38
Lattice="8.421641763931781 0.0 0.0 4.2108208819658905 7.293355709136913 0.0 0.0 0.0 46.87624170604845" Properties=species:S:1:pos:R:3:tags:I:1:initial_magmoms:R:1:forces:R:3 charge=0 spin=0 energy=-197.50808501919033 free_energy=-197.50808501919033 stress="0.009057420305907726 -1.3645281171648094e-07 6.107567784852108e-09 -1.3645281171648094e-07 0.00905739888548851 4.388586916093118e-08 6.107567784852108e-09 4.388586916093118e-08 -0.0008545938762836158" pbc="T T T"
Pt      -0.00000012       0.00000002      19.95723426        4       0.00000000      -0.02258701      -0.00967373      -0.03704396
Pt       2.80721404      -0.00000018      19.95723442        4       0.00000000      -0.00103333       0.00917539       0.01907840
Pt       5.61442782      -0.00000007      19.95723448        4       0.00000000       0.01967540      -0.01473213      -0.03726659
Pt       1.40360721       2.43111841      19.95723428        4       0.00000000       0.00847100      -0.00372881       0.01889641
Pt       4.21082083       2.43111835      19.95723436        4       0.00000000      -0.00743691      -0.00544163       0.01883824
Pt       7.01803478       2.43111845      19.95723424        4       0.00000000      -0.00029931      -0.00597713       0.02191434
Pt       2.80721407       4.86223728      19.95723400        4       0.00000000       0.00291521       0.02440610      -0.03720672
Pt       5.61442803       4.86223733      19.95723419        4       0.00000000      -0.00503720       0.00328888       0.02215617
Pt       8.42164139       4.86223726      19.95723434        4       0.00000000       0.00533415       0.00268157       0.02200217
Pt       1.40360728       0.81037259      22.29206791        3       0.00000000      -0.08907636      -0.05120623      -0.14867717
Pt       4.21082130       0.81037249      22.29206784        3       0.00000000       0.08896788      -0.05148520      -0.14873065
Pt       7.01803471       0.81037256      22.29206781        3       0.00000000      -0.00045439      -0.04877195      -0.19726941
Pt       2.80721448       3.24149124      22.29206773        3       0.00000000       0.00008889       0.10270095      -0.14903350
Pt       5.61442763       3.24149123      22.29206786        3       0.00000000      -0.01938446      -0.01737563      -0.01717672
Pt       8.42164156       3.24149129      22.29206804        3       0.00000000       0.02476372      -0.00803758      -0.01725195
Pt       4.21082092       5.67260997      22.29206793        3       0.00000000      -0.04215365       0.02481973      -0.19698752
Pt       7.01803487       5.67261037      22.29206776        3       0.00000000      -0.00537223       0.02540640      -0.01668382
Pt       9.82524821       5.67261065      22.29206806        3       0.00000000       0.04262083       0.02393883      -0.19712719
Pt      -0.00000053       1.62074569      24.58417386        2       0.00000000       0.24021278       0.10299781       0.31781736
Pt       2.80721443       1.62074549      24.58417398        2       0.00000000       0.00000264      -0.00000227      -0.59256607
Pt       5.61442778       1.62074537      24.58417377        2       0.00000000      -0.23774159       0.10493072       0.31645525
Pt       1.40360637       4.05186439      24.58417390        2       0.00000000       0.02801231      -0.25854650       0.31633767
Pt       4.21082088       4.05186403      24.58417379        2       0.00000000      -0.03101676      -0.25980335       0.31786656
Pt       7.01803504       4.05186408      24.58417406        2       0.00000000       0.00000498      -0.00000740      -0.01356618
Pt       2.80721282       6.48298343      24.58417376        2       0.00000000       0.00000453       0.00001529      -0.21586353
Pt       5.61442796       6.48298325      24.58417391        2       0.00000000       0.20970884       0.15360776       0.31615651
Pt       8.42164222       6.48298341      24.58417381        2       0.00000000      -0.20917428       0.15680042       0.31734207
Pt      -0.01805171      -0.00833855      26.90118391        1       0.00000000      -0.02739551      -0.01894133      -0.00335316
Pt       2.80556310      -0.10333022      27.29850360        1       0.00000000      -0.00589729      -0.03231212      -0.01024760
Pt       5.63067587      -0.01145236      26.90119128        1       0.00000000       0.03010599      -0.01429602      -0.00336956
Pt       1.31495185       2.48421258      27.29849695        1       0.00000000      -0.02504202       0.02126827      -0.01024442
Pt       4.30113456       2.48135197      27.29850346        1       0.00000000       0.03092044       0.01105988      -0.01025006
Pt       7.01834590       2.42904078      26.89637734        1       0.00000000      -0.00239314      -0.01879957       0.01886030
Pt       2.80901457       4.88203677      26.90115530        1       0.00000000      -0.00285709       0.03321087      -0.00317746
Pt       5.61248935       4.86300440      26.89637254        1       0.00000000      -0.01505715       0.01163882       0.01897571
Pt       8.42328523       4.86354567      26.89637544        1       0.00000000       0.01758973       0.00716845       0.01896944
C        2.80721466       1.62074312      28.18220121        0       1.00000000       0.00002317       0.00002286       0.01092847
H        2.80719970       1.62074302      26.17950682        0       0.00000000      -0.00001301      -0.00000055      -0.02950194
