38
Lattice="8.421641763931781 0.0 0.0 4.2108208819658905 7.293355709136913 0.0 0.0 0.0 46.87624170604845" Properties=species:S:1:pos:R:3:tags:I:1:initial_magmoms:R:1:forces:R:3 charge=0 spin=0 energy=-197.9395253725839 free_energy=-197.9395253725839 stress="0.007037030067294836 -1.354134724351752e-06 -1.062866090251191e-06 -1.354134724351752e-06 0.007045314181596041 -3.260919811509666e-06 -1.062866090251191e-06 -3.260919811509666e-06 -0.0010360375745221972" pbc="T T T"
Pt      -0.00000012       0.00000002      19.95723426        4       0.00000000      -0.00765725      -0.00316832       0.01826441
Pt       2.80721404      -0.00000018      19.95723442        4       0.00000000       0.00664257      -0.00504691       0.01821732
Pt       5.61442782      -0.00000007      19.95723448        4       0.00000000      -0.00148101      -0.00889570      -0.02559312
Pt       1.40360721       2.43111841      19.95723428        4       0.00000000       0.00101278       0.00822039       0.01816013
Pt       4.21082083       2.43111835      19.95723436        4       0.00000000      -0.00033051      -0.00455189       0.01463938
Pt       7.01803478       2.43111845      19.95723424        4       0.00000000       0.00410859       0.00202241       0.01474765
Pt       2.80721407       4.86223728      19.95723400        4       0.00000000      -0.00698183       0.00574814      -0.02565069
Pt       5.61442803       4.86223733      19.95723419        4       0.00000000      -0.00376916       0.00257202       0.01478005
Pt       8.42164139       4.86223726      19.95723434        4       0.00000000       0.00845334       0.00310865      -0.02559404
Pt       1.40360728       0.81037259      22.29206791        3       0.00000000       0.00000424       0.00004864      -0.22580479
Pt       4.21082130       0.81037249      22.29206784        3       0.00000000       0.06006582      -0.04245365      -0.12943061
Pt       7.01803471       0.81037256      22.29206781        3       0.00000000      -0.06914104      -0.04290424      -0.13709214
Pt       2.80721448       3.24149124      22.29206773        3       0.00000000      -0.00268362       0.08140429      -0.13698553
Pt       5.61442763       3.24149123      22.29206786        3       0.00000000       0.00000404      -0.00000003      -0.10973448
Pt       8.42164156       3.24149129      22.29206804        3       0.00000000       0.00669505       0.07336788      -0.12935141
Pt       4.21082092       5.67260997      22.29206793        3       0.00000000      -0.06679156      -0.03085170      -0.12894146
Pt       7.01803487       5.67261037      22.29206776        3       0.00000000       0.07189206      -0.03848606      -0.13669227
Pt       9.82524821       5.67261065      22.29206806        3       0.00000000      -0.00002253      -0.00008808      -0.27012575
Pt      -0.00000053       1.62074569      24.58417386        2       0.00000000      -0.49878505       0.28021947       0.29419163
Pt       2.80721443       1.62074549      24.58417398        2       0.00000000       0.49184948       0.29170784       0.29392231
Pt       5.61442778       1.62074537      24.58417377        2       0.00000000       0.00796386      -0.00106812      -0.07608753
Pt       1.40360637       4.05186439      24.58417390        2       0.00000000      -0.00520611      -0.12813666       0.26579279
Pt       4.21082088       4.05186403      24.58417379        2       0.00000000      -0.00501703      -0.00634055      -0.07646544
Pt       7.01803504       4.05186408      24.58417406        2       0.00000000      -0.00288776       0.00766042      -0.07621352
Pt       2.80721282       6.48298343      24.58417376        2       0.00000000       0.11372213       0.05967239       0.26679370
Pt       5.61442796       6.48298325      24.58417391        2       0.00000000       0.00688609      -0.57241172       0.29367736
Pt       8.42164222       6.48298341      24.58417381        2       0.00000000      -0.10869107       0.06837775       0.26653382
Pt      -0.12152825      -0.07361661      27.18466636        1       0.00000000      -0.03515040      -0.01929646      -0.01668952
Pt       2.93182135      -0.06863264      27.18464525        1       0.00000000       0.02929020      -0.01632370      -0.01460479
Pt       5.61884814       0.00813782      26.89428637        1       0.00000000      -0.01931998      -0.00678426       0.00196219
Pt       1.40061851       2.57381564      27.18455891        1       0.00000000       0.00047539       0.01941304      -0.01004111
Pt       4.22825952       2.44042927      26.90050402        1       0.00000000      -0.00892793      -0.01494981      -0.01233651
Pt       7.00115075       2.44156598      26.90062500        1       0.00000000       0.01730237      -0.00060763      -0.01268897
Pt       2.81203253       4.85406661      26.89444571        1       0.00000000       0.00505371       0.02265521       0.00175740
Pt       5.61378379       4.84236639      26.90067454        1       0.00000000      -0.00851201       0.01502674      -0.01289288
Pt       8.41221430       4.86188429      26.89458299        1       0.00000000       0.01542359      -0.01272070       0.00145937
C        1.40341344       0.80984403      27.91129921        0       1.00000000       0.00440911       0.01353742       0.01817166
H        1.40357201       0.81027697      25.36084021        0       0.00000000       0.00010110       0.00032341      -0.01405485
