38
Lattice="8.421641763931781 0.0 0.0 4.2108208819658905 7.293355709136913 0.0 0.0 0.0 46.87624170604845" Properties=species:S:1:pos:R:3:tags:I:1:initial_magmoms:R:1:forces:R:3 charge=0 spin=0 energy=-198.04620719631436 free_energy=-198.04620719631436 stress="0.0075522917322814465 -0.00041175857768394053 5.1478193199727684e-05 -0.00041175857768394053 0.007799518760293722 5.451308607007377e-05 5.1478193199727684e-05 5.451308607007377e-05 -0.0007634736830368638" pbc="T T T"
Pt      -0.00000012       0.00000002      19.95723426        4       0.00000000       0.00837905      -0.01215744       0.00081359
Pt       2.80721404      -0.00000018      19.95723442        4       0.00000000      -0.00250010       0.00899836      -0.01130877
Pt       5.61442782      -0.00000007      19.95723448        4       0.00000000      -0.00409921      -0.00540231       0.01976822
Pt       1.40360721       2.43111841      19.95723428        4       0.00000000      -0.00314855      -0.00630893       0.01084969
Pt       4.21082083       2.43111835      19.95723436        4       0.00000000       0.00256392      -0.00418665       0.01444063
Pt       7.01803478       2.43111845      19.95723424        4       0.00000000       0.00615463      -0.00376607       0.02499122
Pt       2.80721407       4.86223728      19.95723400        4       0.00000000      -0.00307880       0.00272946       0.00955180
Pt       5.61442803       4.86223733      19.95723419        4       0.00000000       0.00614437       0.03609553      -0.01533350
Pt       8.42164139       4.86223726      19.95723434        4       0.00000000       0.01033191      -0.00115800      -0.01275970
Pt       1.40360728       0.81037259      22.29206791        3       0.00000000       0.01198453      -0.04042956      -0.09183282
Pt       4.21082130       0.81037249      22.29206784        3       0.00000000      -0.02833018      -0.02644674      -0.07951461
Pt       7.01803471       0.81037256      22.29206781        3       0.00000000       0.01967584      -0.01003273       0.01641621
Pt       2.80721448       3.24149124      22.29206773        3       0.00000000       0.01581597       0.00434514      -0.08078679
Pt       5.61442763       3.24149123      22.29206786        3       0.00000000       0.00689762       0.11183171      -0.20347030
Pt       8.42164156       3.24149129      22.29206804        3       0.00000000      -0.02081940       0.01646137      -0.07745679
Pt       4.21082092       5.67260997      22.29206793        3       0.00000000       0.06646962      -0.03248137      -0.18519215
Pt       7.01803487       5.67261037      22.29206776        3       0.00000000      -0.00313488      -0.01316422      -0.27254808
Pt       9.82524821       5.67261065      22.29206806        3       0.00000000      -0.01405773      -0.00199003      -0.05256143
Pt      -0.00000053       1.62074569      24.58417386        2       0.00000000      -0.10284585      -0.04242040       0.15797700
Pt       2.80721443       1.62074549      24.58417398        2       0.00000000      -0.02309893      -0.00338551      -0.04552087
Pt       5.61442778       1.62074537      24.58417377        2       0.00000000       0.12962924      -0.19473661       0.20730458
Pt       1.40360637       4.05186439      24.58417390        2       0.00000000       0.00208456       0.07942657      -0.09830365
Pt       4.21082088       4.05186403      24.58417379        2       0.00000000      -0.05677128       0.01029245       0.01933971
Pt       7.01803504       4.05186408      24.58417406        2       0.00000000      -0.01765379      -0.12009060       0.17539902
Pt       2.80721282       6.48298343      24.58417376        2       0.00000000      -0.10812248       0.13990074       0.24423093
Pt       5.61442796       6.48298325      24.58417391        2       0.00000000      -0.09746403       0.09558121       0.12879926
Pt       8.42164222       6.48298341      24.58417381        2       0.00000000       0.16205519       0.05611091       0.17354955
Pt       0.07861314      -0.03334730      27.00736679        1       0.00000000       0.01174509      -0.00208501      -0.00222784
Pt       2.77522938       0.00599685      26.91717606        1       0.00000000       0.04045871      -0.01410479      -0.00305587
Pt       5.40433543      -0.12587329      27.59136828        1       0.00000000      -0.00246866       0.03333892      -0.02126510
Pt       1.43059373       2.47532503      26.88350275        1       0.00000000       0.01032158      -0.01758087       0.00737866
Pt       4.17790389       2.48724123      26.96910575        1       0.00000000       0.00317542      -0.02176457       0.02410598
Pt       7.03154593       2.57035719      27.07098957        1       0.00000000       0.00662122      -0.00598029       0.02323285
Pt       2.77034876       4.90181517      26.90704340        1       0.00000000       0.02471304      -0.01040397       0.00158741
Pt       5.59875982       4.87773798      26.90176246        1       0.00000000      -0.00506149       0.01647376      -0.01296572
Pt       8.41939911       4.88440809      26.88007720        1       0.00000000      -0.02797741       0.00541869       0.01005871
C        7.03105030       0.82853394      27.85419799        0       1.00000000      -0.01936961      -0.00102174      -0.00758030
H        5.11801147       1.08521234      26.23250832        0       0.00000000      -0.00521904      -0.02590643       0.00388932
