38
Lattice="8.421641763931781 0.0 0.0 4.2108208819658905 7.293355709136913 0.0 0.0 0.0 46.87624170604845" Properties=species:S:1:pos:R:3:tags:I:1:initial_magmoms:R:1:forces:R:3 charge=0 spin=0 energy=-198.04614425380947 free_energy=-198.04614425380947 stress="0.008090789429843426 9.78466632659547e-05 1.9950746718677692e-05 9.78466632659547e-05 0.007255919277667999 -7.260634447447956e-05 1.9950746718677692e-05 -7.260634447447956e-05 -0.0007659074035473168" pbc="T T T"
Pt      -0.00000012       0.00000002      19.95723426        4       0.00000000      -0.00489341      -0.00008105       0.01436957
Pt       2.80721404      -0.00000018      19.95723442        4       0.00000000       0.00392074       0.00129520       0.00945029
Pt       5.61442782      -0.00000007      19.95723448        4       0.00000000      -0.00264658       0.00624168       0.01966116
Pt       1.40360721       2.43111841      19.95723428        4       0.00000000      -0.00390200       0.00586754       0.01098315
Pt       4.21082083       2.43111835      19.95723436        4       0.00000000      -0.00619893      -0.00844845      -0.01278383
Pt       7.01803478       2.43111845      19.95723424        4       0.00000000       0.00897045      -0.00229788      -0.01126237
Pt       2.80721407       4.86223728      19.95723400        4       0.00000000      -0.00636174      -0.00352092       0.02503047
Pt       5.61442803       4.86223733      19.95723419        4       0.00000000       0.02810311      -0.02333791      -0.01528299
Pt       8.42164139       4.86223726      19.95723434        4       0.00000000      -0.01477704      -0.00115864       0.00087801
Pt       1.40360728       0.81037259      22.29206791        3       0.00000000      -0.00433461      -0.01589868      -0.08076782
Pt       4.21082130       0.81037249      22.29206784        3       0.00000000       0.00517793       0.01336030      -0.05299082
Pt       7.01803471       0.81037256      22.29206781        3       0.00000000      -0.00890672       0.03765699      -0.07939068
Pt       2.80721448       3.24149124      22.29206773        3       0.00000000       0.02462067       0.00989764      -0.07745439
Pt       5.61442763       3.24149123      22.29206786        3       0.00000000      -0.00972418       0.00928896      -0.27273613
Pt       8.42164156       3.24149129      22.29206804        3       0.00000000      -0.04087319       0.00969463      -0.09144457
Pt       4.21082092       5.67260997      22.29206793        3       0.00000000       0.09315233      -0.06195961      -0.20342574
Pt       7.01803487       5.67261037      22.29206776        3       0.00000000      -0.06130536      -0.04143936      -0.18519968
Pt       9.82524821       5.67261065      22.29206806        3       0.00000000      -0.01863954      -0.01204061       0.01671021
Pt      -0.00000053       1.62074569      24.58417386        2       0.00000000       0.00861476       0.02197167      -0.04635316
Pt       2.80721443       1.62074549      24.58417398        2       0.00000000       0.06802340      -0.04155722      -0.09915204
Pt       5.61442778       1.62074537      24.58417377        2       0.00000000      -0.03206319      -0.16896434       0.17343310
Pt       1.40360637       4.05186439      24.58417390        2       0.00000000       0.01494063       0.11100399       0.15760112
Pt       4.21082088       4.05186403      24.58417379        2       0.00000000      -0.09520090       0.07583702       0.17510997
Pt       7.01803504       4.05186408      24.58417406        2       0.00000000       0.13193421       0.03717174       0.12888730
Pt       2.80721282       6.48298343      24.58417376        2       0.00000000      -0.23342934      -0.01526415       0.20666255
Pt       5.61442796       6.48298325      24.58417391        2       0.00000000       0.03787806       0.04395390       0.01876756
Pt       8.42164222       6.48298341      24.58417381        2       0.00000000       0.17568748       0.02357310       0.24445568
Pt       0.06586642       0.00069182      26.96845660        1       0.00000000      -0.02091700       0.00826580       0.02610508
Pt       2.86045434       0.01230040      26.90692051        1       0.00000000      -0.02212452      -0.01634562       0.00195772
Pt       5.61069081       0.24487515      27.59085922        1       0.00000000       0.03028150      -0.01547395      -0.02047762
Pt       1.42879159       2.38622114      26.88315470        1       0.00000000      -0.02071913      -0.00104132       0.00845087
Pt       4.23145372       2.42207326      26.87985984        1       0.00000000       0.01837822       0.02200048       0.01088704
Pt       7.03935901       2.45619861      26.91700699        1       0.00000000      -0.03230337      -0.02937674      -0.00252115
Pt       2.92123135       4.78104462      27.07135473        1       0.00000000      -0.00851859      -0.00220096       0.02273870
Pt       5.63570814       4.86802653      26.90167683        1       0.00000000       0.01766281      -0.00334620      -0.01265185
Pt       8.35356918       4.81097002      27.00773587        1       0.00000000      -0.00753204      -0.00886241      -0.00286155
C        9.83462259       5.65226456      27.85457598        0       1.00000000       0.00883317       0.01832209      -0.00823488
H       11.01457896       7.18079379      26.23316870        0       0.00000000      -0.02080798       0.01721343       0.00285168
