38
Lattice="8.421641763931781 0.0 0.0 4.2108208819658905 7.293355709136913 0.0 0.0 0.0 46.87624170604845" Properties=species:S:1:pos:R:3:tags:I:1:initial_magmoms:R:1:forces:R:3 charge=0 spin=0 energy=-197.50844550808193 free_energy=-197.50844550808193 stress="0.009107080288231373 -3.595314694848639e-07 1.0003633121868916e-07 -3.595314694848639e-07 0.009108159691095352 5.744833515564096e-07 1.0003633121868916e-07 5.744833515564096e-07 -0.0007797317230142653" pbc="T T T"
Pt      -0.00000012       0.00000002      19.95723426        4       0.00000000       0.01979482      -0.01459475      -0.03709457
Pt       2.80721404      -0.00000018      19.95723442        4       0.00000000      -0.02247475      -0.00981771      -0.03682259
Pt       5.61442782      -0.00000007      19.95723448        4       0.00000000      -0.00104687       0.00932798       0.01955321
Pt       1.40360721       2.43111841      19.95723428        4       0.00000000      -0.00033719      -0.00618094       0.02228906
Pt       4.21082083       2.43111835      19.95723436        4       0.00000000       0.00861560      -0.00378691       0.01937253
Pt       7.01803478       2.43111845      19.95723424        4       0.00000000      -0.00757163      -0.00553570       0.01934093
Pt       2.80721407       4.86223728      19.95723400        4       0.00000000       0.00553636       0.00275770       0.02237848
Pt       5.61442803       4.86223733      19.95723419        4       0.00000000       0.00272415       0.02447238      -0.03709025
Pt       8.42164139       4.86223726      19.95723434        4       0.00000000      -0.00520360       0.00340822       0.02253259
Pt       1.40360728       0.81037259      22.29206791        3       0.00000000      -0.00045129      -0.04877064      -0.19442087
Pt       4.21082130       0.81037249      22.29206784        3       0.00000000      -0.08860910      -0.05070865      -0.15093715
Pt       7.01803471       0.81037256      22.29206781        3       0.00000000       0.08832853      -0.05134891      -0.15098111
Pt       2.80721448       3.24149124      22.29206773        3       0.00000000       0.02430633      -0.00792152      -0.01890223
Pt       5.61442763       3.24149123      22.29206786        3       0.00000000       0.00029811       0.10214922      -0.15129839
Pt       8.42164156       3.24149129      22.29206804        3       0.00000000      -0.01906135      -0.01708353      -0.01881565
Pt       4.21082092       5.67260997      22.29206793        3       0.00000000       0.04259680       0.02394701      -0.19426525
Pt       7.01803487       5.67261037      22.29206776        3       0.00000000      -0.04217074       0.02480207      -0.19412296
Pt       9.82524821       5.67261065      22.29206806        3       0.00000000      -0.00526412       0.02494619      -0.01836377
Pt      -0.00000053       1.62074569      24.58417386        2       0.00000000      -0.22664988       0.10880139       0.33175278
Pt       2.80721443       1.62074549      24.58417398        2       0.00000000       0.23038897       0.10480434       0.33042699
Pt       5.61442778       1.62074537      24.58417377        2       0.00000000       0.00050543       0.00059173      -0.64365703
Pt       1.40360637       4.05186439      24.58417390        2       0.00000000      -0.00005034       0.00004986       0.02966457
Pt       4.21082088       4.05186403      24.58417379        2       0.00000000       0.01937663      -0.25071466       0.33148268
Pt       7.01803504       4.05186408      24.58417406        2       0.00000000      -0.02473186      -0.25231087       0.33128527
Pt       2.80721282       6.48298343      24.58417376        2       0.00000000      -0.20563008       0.14754727       0.33017436
Pt       5.61442796       6.48298325      24.58417391        2       0.00000000      -0.00003045      -0.00007493      -0.22961217
Pt       8.42164222       6.48298341      24.58417381        2       0.00000000       0.20729192       0.14187242       0.33085641
Pt       0.02272970      -0.01438284      26.90384747        1       0.00000000      -0.01157604       0.00754584      -0.00501057
Pt       2.78338416      -0.01230725      26.90376987        1       0.00000000       0.01222549       0.00601110      -0.00468887
Pt       5.61024391      -0.10406994      27.29439478        1       0.00000000      -0.00009347       0.00452573       0.00022485
Pt       1.40570350       2.42445774      26.90764371        1       0.00000000      -0.00645503       0.01077329      -0.01779372
Pt       4.12281188       2.48698336      27.29443935        1       0.00000000       0.00284701      -0.00088881      -0.00056832
Pt       7.11045275       2.47965155      27.29449593        1       0.00000000      -0.00090940      -0.00114349      -0.00152871
Pt       2.81209298       4.86728705      26.90763704        1       0.00000000      -0.00617280      -0.01005992      -0.01769501
Pt       5.61565461       4.88911717      26.90392693        1       0.00000000      -0.00070722      -0.01356157      -0.00519189
Pt       8.41499218       4.86413756      26.90767402        1       0.00000000       0.01159488      -0.00119842      -0.01783818
C        5.61461094       1.62104231      28.18089873        0       1.00000000      -0.00033687      -0.00129376      -0.01809978
H        5.61354896       1.61951733      26.17529424        0       0.00000000      -0.00089712      -0.00133827       0.02346416
