38
Lattice="8.421641763931781 0.0 0.0 4.2108208819658905 7.293355709136913 0.0 0.0 0.0 46.87624170604845" Properties=species:S:1:pos:R:3:tags:I:1:initial_magmoms:R:1:forces:R:3 charge=0 spin=0 energy=-197.93952155788662 free_energy=-197.93952155788662 stress="0.007036908064037561 -1.7692044593786704e-06 -1.3669617828782066e-06 -1.7692044593786704e-06 0.007045564707368612 -3.402319862289005e-06 -1.3669617828782066e-06 -3.402319862289005e-06 -0.0010360139422118664" pbc="T T T"
Pt      -0.00000012       0.00000002      19.95723426        4       0.00000000      -0.00147871      -0.00890096      -0.02558290
Pt       2.80721404      -0.00000018      19.95723442        4       0.00000000      -0.00766090      -0.00316393       0.01825548
Pt       5.61442782      -0.00000007      19.95723448        4       0.00000000       0.00664372      -0.00504634       0.01821730
Pt       1.40360721       2.43111841      19.95723428        4       0.00000000       0.00410928       0.00202357       0.01474691
Pt       4.21082083       2.43111835      19.95723436        4       0.00000000       0.00101488       0.00822062       0.01815890
Pt       7.01803478       2.43111845      19.95723424        4       0.00000000      -0.00033385      -0.00455215       0.01463976
Pt       2.80721407       4.86223728      19.95723400        4       0.00000000       0.00845156       0.00310884      -0.02559743
Pt       5.61442803       4.86223733      19.95723419        4       0.00000000      -0.00698641       0.00574887      -0.02564934
Pt       8.42164139       4.86223726      19.95723434        4       0.00000000      -0.00376464       0.00257049       0.01477907
Pt       1.40360728       0.81037259      22.29206791        3       0.00000000      -0.06914634      -0.04290334      -0.13708788
Pt       4.21082130       0.81037249      22.29206784        3       0.00000000       0.00000744       0.00005452      -0.22580671
Pt       7.01803471       0.81037256      22.29206781        3       0.00000000       0.06006755      -0.04245588      -0.12943263
Pt       2.80721448       3.24149124      22.29206773        3       0.00000000       0.00668379       0.07337189      -0.12935747
Pt       5.61442763       3.24149123      22.29206786        3       0.00000000      -0.00267418       0.08140084      -0.13698931
Pt       8.42164156       3.24149129      22.29206804        3       0.00000000       0.00000445       0.00000055      -0.10972992
Pt       4.21082092       5.67260997      22.29206793        3       0.00000000      -0.00004023      -0.00007738      -0.27012479
Pt       7.01803487       5.67261037      22.29206776        3       0.00000000      -0.06679204      -0.03086044      -0.12893578
Pt       9.82524821       5.67261065      22.29206806        3       0.00000000       0.07190565      -0.03849192      -0.13669875
Pt      -0.00000053       1.62074569      24.58417386        2       0.00000000       0.00797521      -0.00106631      -0.07609088
Pt       2.80721443       1.62074549      24.58417398        2       0.00000000      -0.49881202       0.28022233       0.29418385
Pt       5.61442778       1.62074537      24.58417377        2       0.00000000       0.49186742       0.29171807       0.29393268
Pt       1.40360637       4.05186439      24.58417390        2       0.00000000      -0.00288318       0.00765326      -0.07622553
Pt       4.21082088       4.05186403      24.58417379        2       0.00000000      -0.00520563      -0.12811841       0.26577869
Pt       7.01803504       4.05186408      24.58417406        2       0.00000000      -0.00500826      -0.00634046      -0.07646084
Pt       2.80721282       6.48298343      24.58417376        2       0.00000000      -0.10866269       0.06836472       0.26650029
Pt       5.61442796       6.48298325      24.58417391        2       0.00000000       0.11372729       0.05968367       0.26685947
Pt       8.42164222       6.48298341      24.58417381        2       0.00000000       0.00687132      -0.57243937       0.29366934
Pt       0.00441249       0.00814228      26.89428218        1       0.00000000      -0.01912259      -0.00680944       0.00196533
Pt       2.68572474      -0.07359702      27.18467991        1       0.00000000      -0.03616741      -0.01987839      -0.01707871
Pt       5.73906087      -0.06865034      27.18464026        1       0.00000000       0.02861225      -0.01585707      -0.01433643
Pt       1.38673056       2.44156376      26.90062501        1       0.00000000       0.01726170      -0.00061010      -0.01269468
Pt       4.20783100       2.57383426      27.18455677        1       0.00000000       0.00056955       0.01881551      -0.00984819
Pt       7.03547308       2.44042523      26.90050262        1       0.00000000      -0.00893158      -0.01493538      -0.01232987
Pt       2.79778394       4.86187761      26.89458213        1       0.00000000       0.01544904      -0.01270963       0.00147198
Pt       5.61925404       4.85405938      26.89444793        1       0.00000000       0.00509272       0.02278263       0.00174535
Pt       8.42100009       4.84237092      26.90067701        1       0.00000000      -0.00852596       0.01499128      -0.01289958
C        4.21058142       0.80982004      27.91130843        0       1.00000000       0.00577152       0.01415182       0.01807646
H        4.21078728       0.81027485      25.36083372        0       0.00000000       0.00010995       0.00033367      -0.01402278
