38
Lattice="8.421641763931781 0.0 0.0 4.2108208819658905 7.293355709136913 0.0 0.0 0.0 46.87624170604845" Properties=species:S:1:pos:R:3:tags:I:1:initial_magmoms:R:1:forces:R:3 charge=0 spin=0 energy=-197.50844550808193 free_energy=-197.50844550808193 stress="0.00910702720284462 -3.4496849821152864e-07 8.794828687541667e-08 -3.4496849821152864e-07 0.009108076803386211 5.611479423350829e-07 8.794828687541667e-08 5.611479423350829e-07 -0.0007797203725203872" pbc="T T T"
Pt      -0.00000012       0.00000002      19.95723426        4       0.00000000      -0.00520289       0.00341210       0.02253295
Pt       2.80721404      -0.00000018      19.95723442        4       0.00000000       0.00553333       0.00276379       0.02236889
Pt       5.61442782      -0.00000007      19.95723448        4       0.00000000       0.00272574       0.02447774      -0.03709704
Pt       1.40360721       2.43111841      19.95723428        4       0.00000000      -0.00104777       0.00932578       0.01956377
Pt       4.21082083       2.43111835      19.95723436        4       0.00000000       0.01979585      -0.01459225      -0.03709360
Pt       7.01803478       2.43111845      19.95723424        4       0.00000000      -0.02247504      -0.00981936      -0.03681328
Pt       2.80721407       4.86223728      19.95723400        4       0.00000000      -0.00756876      -0.00554009       0.01934134
Pt       5.61442803       4.86223733      19.95723419        4       0.00000000      -0.00033817      -0.00618554       0.02228857
Pt       8.42164139       4.86223726      19.95723434        4       0.00000000       0.00861465      -0.00379292       0.01937149
Pt       1.40360728       0.81037259      22.29206791        3       0.00000000      -0.00527421       0.02496090      -0.01836334
Pt       4.21082130       0.81037249      22.29206784        3       0.00000000       0.04259414       0.02395487      -0.19426049
Pt       7.01803471       0.81037256      22.29206781        3       0.00000000      -0.04216655       0.02481045      -0.19412315
Pt       2.80721448       3.24149124      22.29206773        3       0.00000000       0.08832049      -0.05135131      -0.15098396
Pt       5.61442763       3.24149123      22.29206786        3       0.00000000      -0.00044412      -0.04877140      -0.19442137
Pt       8.42164156       3.24149129      22.29206804        3       0.00000000      -0.08860370      -0.05071481      -0.15094039
Pt       4.21082092       5.67260997      22.29206793        3       0.00000000      -0.01906703      -0.01708179      -0.01881483
Pt       7.01803487       5.67261037      22.29206776        3       0.00000000       0.02430938      -0.00792996      -0.01890045
Pt       9.82524821       5.67261065      22.29206806        3       0.00000000       0.00030191       0.10213468      -0.15129438
Pt      -0.00000053       1.62074569      24.58417386        2       0.00000000       0.20730008       0.14187734       0.33085912
Pt       2.80721443       1.62074549      24.58417398        2       0.00000000      -0.20564377       0.14755687       0.33018583
Pt       5.61442778       1.62074537      24.58417377        2       0.00000000      -0.00002441      -0.00007110      -0.22958921
Pt       1.40360637       4.05186439      24.58417390        2       0.00000000       0.00050924       0.00056504      -0.64365804
Pt       4.21082088       4.05186403      24.58417379        2       0.00000000      -0.22664762       0.10879871       0.33175710
Pt       7.01803504       4.05186408      24.58417406        2       0.00000000       0.23038736       0.10479899       0.33042848
Pt       2.80721282       6.48298343      24.58417376        2       0.00000000      -0.02471703      -0.25230902       0.33128765
Pt       5.61442796       6.48298325      24.58417391        2       0.00000000      -0.00005490       0.00004845       0.02966643
Pt       8.42164222       6.48298341      24.58417381        2       0.00000000       0.01936612      -0.25071424       0.33148727
Pt      -0.00664643       0.00189539      26.90767473        1       0.00000000       0.01158193      -0.00118509      -0.01784075
Pt       2.81209254       0.00504637      26.90763974        1       0.00000000      -0.00616526      -0.01005530      -0.01770652
Pt       5.61565236       0.02688001      26.90393443        1       0.00000000      -0.00069722      -0.01356230      -0.00521109
Pt       1.39942541       2.32704611      27.29438668        1       0.00000000      -0.00009365       0.00443029       0.00018766
Pt       4.23355230       2.41673369      26.90385205        1       0.00000000      -0.01157677       0.00754299      -0.00502985
Pt       6.99420524       2.41880901      26.90377353        1       0.00000000       0.01222303       0.00600396      -0.00470499
Pt       2.89963330       4.91076655      27.29449079        1       0.00000000      -0.00089976      -0.00113408      -0.00152319
Pt       5.61652419       4.85557708      26.90764544        1       0.00000000      -0.00645200       0.01076143      -0.01779957
Pt       8.33363284       4.91809749      27.29443524        1       0.00000000       0.00280390      -0.00086250      -0.00057642
C        9.82543048       4.05215093      28.18088595        0       1.00000000      -0.00030651      -0.00125953      -0.01801013
H        9.82436602       4.05067799      26.17529682        0       0.00000000      -0.00089994      -0.00129133       0.02342958
