38
Lattice="8.421641763931781 0.0 0.0 4.2108208819658905 7.293355709136913 0.0 0.0 0.0 46.87624170604845" Properties=species:S:1:pos:R:3:tags:I:1:initial_magmoms:R:1:forces:R:3 charge=0 spin=0 energy=-197.50808501919033 free_energy=-197.50808501919033 stress="0.009057433344423771 -1.3887714089833025e-07 1.0207632961112267e-08 -1.3887714089833025e-07 0.009057391434907913 4.3632294222106793e-08 1.0207632961112267e-08 4.3632294222106793e-08 -0.0008545778691768646" pbc="T T T"
Pt      -0.00000012       0.00000002      19.95723426        4       0.00000000      -0.00029635      -0.00597907       0.02191412
Pt       2.80721404      -0.00000018      19.95723442        4       0.00000000       0.00847001      -0.00372688       0.01888638
Pt       5.61442782      -0.00000007      19.95723448        4       0.00000000      -0.00743911      -0.00543994       0.01882887
Pt       1.40360721       2.43111841      19.95723428        4       0.00000000       0.00533198       0.00268697       0.02200363
Pt       4.21082083       2.43111835      19.95723436        4       0.00000000       0.00291603       0.02441137      -0.03720683
Pt       7.01803478       2.43111845      19.95723424        4       0.00000000      -0.00503652       0.00329343       0.02215706
Pt       2.80721407       4.86223728      19.95723400        4       0.00000000       0.01967669      -0.01473901      -0.03725636
Pt       5.61442803       4.86223733      19.95723419        4       0.00000000      -0.02259056      -0.00967644      -0.03704371
Pt       8.42164139       4.86223726      19.95723434        4       0.00000000      -0.00103002       0.00916800       0.01908733
Pt       1.40360728       0.81037259      22.29206791        3       0.00000000       0.02475672      -0.00803513      -0.01724811
Pt       4.21082130       0.81037249      22.29206784        3       0.00000000       0.00009469       0.10270669      -0.14903192
Pt       7.01803471       0.81037256      22.29206781        3       0.00000000      -0.01938620      -0.01737241      -0.01717370
Pt       2.80721448       3.24149124      22.29206773        3       0.00000000       0.04260545       0.02395339      -0.19712390
Pt       5.61442763       3.24149123      22.29206786        3       0.00000000      -0.04214863       0.02481696      -0.19698712
Pt       8.42164156       3.24149129      22.29206804        3       0.00000000      -0.00536547       0.02541399      -0.01668909
Pt       4.21082092       5.67260997      22.29206793        3       0.00000000      -0.00045595      -0.04877260      -0.19726820
Pt       7.01803487       5.67261037      22.29206776        3       0.00000000      -0.08907565      -0.05121554      -0.14867622
Pt       9.82524821       5.67261065      22.29206806        3       0.00000000       0.08897637      -0.05150435      -0.14873266
Pt      -0.00000053       1.62074569      24.58417386        2       0.00000000       0.00001195      -0.00001028      -0.01356411
Pt       2.80721443       1.62074549      24.58417398        2       0.00000000       0.02799726      -0.25853664       0.31634265
Pt       5.61442778       1.62074537      24.58417377        2       0.00000000      -0.03101319      -0.25979957       0.31786659
Pt       1.40360637       4.05186439      24.58417390        2       0.00000000      -0.20915677       0.15679857       0.31733772
Pt       4.21082088       4.05186403      24.58417379        2       0.00000000      -0.00000817       0.00002691      -0.21586598
Pt       7.01803504       4.05186408      24.58417406        2       0.00000000       0.20970719       0.15361050       0.31615919
Pt       2.80721282       6.48298343      24.58417376        2       0.00000000      -0.23772652       0.10491794       0.31645685
Pt       5.61442796       6.48298325      24.58417391        2       0.00000000       0.24020185       0.10299595       0.31781906
Pt       8.42164222       6.48298341      24.58417381        2       0.00000000      -0.00000109      -0.00000959      -0.59257257
Pt       0.00031116      -0.00207623      26.89637897        1       0.00000000      -0.00239163      -0.01880602       0.01885548
Pt       2.71855868       0.05309444      27.29849371        1       0.00000000      -0.02502549       0.02125559      -0.01023682
Pt       5.70474078       0.05023272      27.29849965        1       0.00000000       0.03091147       0.01105912      -0.01024276
Pt       1.40524970       2.43242618      26.89637700        1       0.00000000       0.01759479       0.00717492       0.01896282
Pt       4.21262193       2.45091865      26.90115595        1       0.00000000      -0.00285829       0.03320735      -0.00317574
Pt       7.01609648       2.43188481      26.89637446        1       0.00000000      -0.01505984       0.01164348       0.01897213
Pt       2.82346279       4.85078448      26.90119177        1       0.00000000       0.03010315      -0.01429616      -0.00337367
Pt       5.59637612       4.85389789      26.90118431        1       0.00000000      -0.02739290      -0.01894037      -0.00335378
Pt       8.41999030       4.75890771      27.29850023        1       0.00000000      -0.00589592      -0.03231563      -0.01025023
C        8.42164319       6.48297984      28.18220221        0       1.00000000       0.00001200       0.00003516       0.01092134
H        8.42162817       6.48297987      26.17950542        0       0.00000000      -0.00001332      -0.00000060      -0.02949750
