38
Lattice="8.421641763931781 0.0 0.0 4.2108208819658905 7.293355709136913 0.0 0.0 0.0 46.87624170604845" Properties=species:S:1:pos:R:3:tags:I:1:initial_magmoms:R:1:forces:R:3 charge=0 spin=0 energy=-192.903142697413 free_energy=-192.903142697413 stress="0.010230024345219135 -1.108714684505685e-07 1.0409198836214273e-08 -1.108714684505685e-07 0.010230022482573986 -7.132050061642303e-09 1.0409198836214273e-08 -7.132050061642303e-09 -7.247589383041486e-05" pbc="T T T"
Pt      -0.00000012       0.00000002      19.95723426        4       0.00000000       0.00148132       0.00418409       0.01719563
Pt       2.80721404      -0.00000018      19.95723442        4       0.00000000      -0.00276123       0.00228516       0.01643325
Pt       5.61442782      -0.00000007      19.95723448        4       0.00000000      -0.00000001       0.00000343       0.01532063
Pt       1.40360721       2.43111841      19.95723428        4       0.00000000      -0.00000026       0.00000095      -0.01058697
Pt       4.21082083       2.43111835      19.95723436        4       0.00000000      -0.00435782      -0.00080680       0.01718727
Pt       7.01803478       2.43111845      19.95723424        4       0.00000000       0.00335938       0.00125380       0.01645049
Pt       2.80721407       4.86223728      19.95723400        4       0.00000000      -0.00059960      -0.00353836       0.01647640
Pt       5.61442803       4.86223733      19.95723419        4       0.00000000      -0.00000191      -0.00000375       0.01367776
Pt       8.42164139       4.86223726      19.95723434        4       0.00000000       0.00288233      -0.00338079       0.01719885
Pt       1.40360728       0.81037259      22.29206791        3       0.00000000      -0.00103429       0.00493463      -0.04000409
Pt       4.21082130       0.81037249      22.29206784        3       0.00000000       0.00242703      -0.00311008      -0.05282032
Pt       7.01803471       0.81037256      22.29206781        3       0.00000000      -0.00390442      -0.00057026      -0.05282267
Pt       2.80721448       3.24149124      22.29206773        3       0.00000000      -0.00377401      -0.00332260      -0.03999597
Pt       5.61442763       3.24149123      22.29206786        3       0.00000000      -0.00040678       0.00115739      -0.05311187
Pt       8.42164156       3.24149129      22.29206804        3       0.00000000       0.00480231      -0.00160524      -0.04001591
Pt       4.21082092       5.67260997      22.29206793        3       0.00000000       0.00122051      -0.00019987      -0.05309327
Pt       7.01803487       5.67261037      22.29206776        3       0.00000000      -0.00081898      -0.00096264      -0.05311126
Pt       9.82524821       5.67261065      22.29206806        3       0.00000000       0.00148688       0.00368009      -0.05281399
Pt      -0.00000053       1.62074569      24.58417386        2       0.00000000       0.00746917       0.00755180       0.04062535
Pt       2.80721443       1.62074549      24.58417398        2       0.00000000      -0.01028440       0.00264913       0.04059190
Pt       5.61442778       1.62074537      24.58417377        2       0.00000000       0.00673761      -0.00656358       0.05939164
Pt       1.40360637       4.05186439      24.58417390        2       0.00000000       0.00281610      -0.01021053       0.04053186
Pt       4.21082088       4.05186403      24.58417379        2       0.00000000      -0.01134955      -0.00626043       0.03709688
Pt       7.01803504       4.05186408      24.58417406        2       0.00000000       0.01109617      -0.00670219       0.03713400
Pt       2.80721282       6.48298343      24.58417376        2       0.00000000      -0.00899827      -0.00254587       0.05937146
Pt       5.61442796       6.48298325      24.58417391        2       0.00000000       0.00026344       0.01297737       0.03716734
Pt       8.42164222       6.48298341      24.58417381        2       0.00000000       0.00225832       0.00910095       0.05937184
Pt      -0.00770349       0.00832117      26.92150064        1       0.00000000      -0.00204702       0.00622619      -0.01042151
Pt       2.81191664       0.01077936      26.92152910        1       0.00000000       0.00627055       0.00301094      -0.00974999
Pt       5.61443215       0.00000191      26.92543913        1       0.00000000      -0.00000714      -0.00000799      -0.02470258
Pt       1.40360042       2.43111750      26.92612073        1       0.00000000       0.00001054       0.00000806      -0.02824415
Pt       4.20746053       2.42028073      26.92150508        1       0.00000000      -0.00437878      -0.00490037      -0.01041963
Pt       7.02501210       2.42166807      26.92151656        1       0.00000000      -0.00053029      -0.00693923      -0.00977084
Pt       2.79553330       4.86090964      26.92152267        1       0.00000000      -0.00574979       0.00393995      -0.00976021
Pt       5.61442698       4.86223917      26.90124157        1       0.00000000      -0.00000276      -0.00000144       0.03183851
Pt       8.43270332       4.86475837      26.92150372        1       0.00000000       0.00642525      -0.00133198      -0.01042039
C        5.61442658       4.86223974      29.93894813        0       1.00000000      -0.00000437       0.00000759      -0.00343663
H        5.61442930       4.86223501      28.76323710        0       0.00000000       0.00000489      -0.00000751      -0.00775871
