38
Lattice="8.421641763931781 0.0 0.0 4.2108208819658905 7.293355709136913 0.0 0.0 0.0 46.87624170604845" Properties=species:S:1:pos:R:3:tags:I:1:initial_magmoms:R:1:forces:R:3 charge=0 spin=0 energy=-197.98982597072842 free_energy=-197.98982597072842 stress="0.007481252774596214 -0.00015514671395067126 -6.801807467127219e-05 -0.00015514671395067126 0.007567805238068104 -8.88653303263709e-05 -6.801807467127219e-05 -8.88653303263709e-05 -0.0007391095859929919" pbc="T T T"
Pt      -0.00000012       0.00000002      19.95723426        4       0.00000000       0.01807406      -0.01429523      -0.01409233
Pt       2.80721404      -0.00000018      19.95723442        4       0.00000000      -0.02103237      -0.00468664       0.00239959
Pt       5.61442782      -0.00000007      19.95723448        4       0.00000000       0.00224034      -0.00398720       0.02841228
Pt       1.40360721       2.43111841      19.95723428        4       0.00000000       0.00414162       0.00099057       0.00782540
Pt       4.21082083       2.43111835      19.95723436        4       0.00000000       0.00019516       0.00484323       0.02637238
Pt       7.01803478       2.43111845      19.95723424        4       0.00000000      -0.00474931      -0.00205946       0.01816401
Pt       2.80721407       4.86223728      19.95723400        4       0.00000000      -0.00833670      -0.00592679      -0.01054465
Pt       5.61442803       4.86223733      19.95723419        4       0.00000000       0.00655938       0.01157449      -0.01390825
Pt       8.42164139       4.86223726      19.95723434        4       0.00000000      -0.00197154       0.00468925       0.00889841
Pt       1.40360728       0.81037259      22.29206791        3       0.00000000      -0.03093631      -0.03537760      -0.13716994
Pt       4.21082130       0.81037249      22.29206784        3       0.00000000      -0.03540292      -0.01886804      -0.01797758
Pt       7.01803471       0.81037256      22.29206781        3       0.00000000       0.07193163      -0.05115643      -0.14693730
Pt       2.80721448       3.24149124      22.29206773        3       0.00000000       0.01455189       0.02074695      -0.06519889
Pt       5.61442763       3.24149123      22.29206786        3       0.00000000      -0.00435540       0.06856153      -0.12008291
Pt       8.42164156       3.24149129      22.29206804        3       0.00000000      -0.00677551      -0.00601342      -0.07580078
Pt       4.21082092       5.67260997      22.29206793        3       0.00000000      -0.00739760       0.00144248      -0.26117355
Pt       7.01803487       5.67261037      22.29206776        3       0.00000000      -0.03948402       0.00656091      -0.11096681
Pt       9.82524821       5.67261065      22.29206806        3       0.00000000       0.02568423       0.00504283      -0.07328838
Pt      -0.00000053       1.62074569      24.58417386        2       0.00000000      -0.01425901       0.01012060       0.00792380
Pt       2.80721443       1.62074549      24.58417398        2       0.00000000       0.15906137      -0.00797376       0.24288172
Pt       5.61442778       1.62074537      24.58417377        2       0.00000000      -0.14222576      -0.08024079      -0.17009148
Pt       1.40360637       4.05186439      24.58417390        2       0.00000000       0.02569133      -0.00001390      -0.09652151
Pt       4.21082088       4.05186403      24.58417379        2       0.00000000      -0.01629781      -0.24274762       0.28110284
Pt       7.01803504       4.05186408      24.58417406        2       0.00000000      -0.01795757      -0.02854143       0.00913625
Pt       2.80721282       6.48298343      24.58417376        2       0.00000000      -0.18163498       0.10994615       0.27502570
Pt       5.61442796       6.48298325      24.58417391        2       0.00000000       0.11441395       0.04508511       0.17501199
Pt       8.42164222       6.48298341      24.58417381        2       0.00000000       0.03929828       0.11892215       0.20232993
Pt      -0.00732843      -0.00316042      26.90509147        1       0.00000000      -0.01308211      -0.00281219      -0.00063452
Pt       2.69237156      -0.07484506      27.02261900        1       0.00000000       0.00481840       0.00263515       0.01854891
Pt       5.69763185      -0.09629470      27.18718020        1       0.00000000       0.00721568       0.01832128      -0.00036607
Pt       1.40710005       2.43671341      26.89669735        1       0.00000000       0.00269033       0.00993662       0.00174405
Pt       4.17200070       2.56547186      27.31210647        1       0.00000000       0.00596810       0.02764509       0.01321426
Pt       7.12230503       2.47295019      27.02463098        1       0.00000000      -0.01135900      -0.00378290      -0.01573721
Pt       2.80018789       4.85627410      26.89476834        1       0.00000000       0.03631321       0.01202573       0.00160712
Pt       5.60120992       4.85058756      26.90553387        1       0.00000000       0.00490729       0.00263932      -0.00499844
Pt       8.42396790       4.84029266      26.89155527        1       0.00000000       0.00555152      -0.00647358       0.00179766
C        4.13945797       0.74855559      27.93362962        0       1.00000000       0.01764628      -0.01249259       0.00028974
H        5.61187083       1.80400481      26.31954352        0       0.00000000      -0.00969612       0.04572039       0.01280449
