38
Lattice="8.421641763931781 0.0 0.0 4.2108208819658905 7.293355709136913 0.0 0.0 0.0 46.87624170604845" Properties=species:S:1:pos:R:3:tags:I:1:initial_magmoms:R:1:forces:R:3 charge=0 spin=0 energy=-197.9390847750497 free_energy=-197.9390847750497 stress="0.007025820203125477 -1.36792962734944e-07 3.617929733579217e-09 -1.36792962734944e-07 0.0070251659490168095 -9.578212889493898e-09 3.617929733579217e-09 -9.578212889493898e-09 -0.0010193721391260624" pbc="T T T"
Pt      -0.00000012       0.00000002      19.95723426        4       0.00000000       0.00118040       0.00763957       0.01769840
Pt       2.80721404      -0.00000018      19.95723442        4       0.00000000      -0.00024417      -0.00441358       0.01462621
Pt       5.61442782      -0.00000007      19.95723448        4       0.00000000       0.00392189       0.00199902       0.01475127
Pt       1.40360721       2.43111841      19.95723428        4       0.00000000      -0.00748433       0.00600150      -0.02557332
Pt       4.21082083       2.43111835      19.95723436        4       0.00000000      -0.00367502       0.00242310       0.01480713
Pt       7.01803478       2.43111845      19.95723424        4       0.00000000       0.00892032       0.00343516      -0.02548712
Pt       2.80721407       4.86223728      19.95723400        4       0.00000000      -0.00724870      -0.00274711       0.01779317
Pt       5.61442803       4.86223733      19.95723419        4       0.00000000       0.00607214      -0.00490026       0.01775566
Pt       8.42164139       4.86223726      19.95723434        4       0.00000000      -0.00143725      -0.00943874      -0.02556781
Pt       1.40360728       0.81037259      22.29206791        3       0.00000000      -0.00258041       0.08183891      -0.13914084
Pt       4.21082130       0.81037249      22.29206784        3       0.00000000      -0.00000066       0.00000381      -0.10852256
Pt       7.01803471       0.81037256      22.29206781        3       0.00000000       0.00605214       0.07320920      -0.13173552
Pt       2.80721448       3.24149124      22.29206773        3       0.00000000      -0.06633577      -0.03133219      -0.13138182
Pt       5.61442763       3.24149123      22.29206786        3       0.00000000       0.07216693      -0.03878031      -0.13893113
Pt       8.42164156       3.24149129      22.29206804        3       0.00000000       0.00000611       0.00000768      -0.26969114
Pt       4.21082092       5.67260997      22.29206793        3       0.00000000      -0.00000038       0.00000331      -0.22161341
Pt       7.01803487       5.67261037      22.29206776        3       0.00000000       0.06028241      -0.04187759      -0.13186662
Pt       9.82524821       5.67261065      22.29206806        3       0.00000000      -0.06957682      -0.04307014      -0.13933800
Pt      -0.00000053       1.62074569      24.58417386        2       0.00000000      -0.00236287      -0.12333914       0.27895263
Pt       2.80721443       1.62074549      24.58417398        2       0.00000000      -0.00404569      -0.00793838      -0.07366382
Pt       5.61442778       1.62074537      24.58417377        2       0.00000000      -0.00473421       0.00744158      -0.07354347
Pt       1.40360637       4.05186439      24.58417390        2       0.00000000       0.10783961       0.05958823       0.27899197
Pt       4.21082088       4.05186403      24.58417379        2       0.00000000       0.00637345      -0.56878144       0.29056469
Pt       7.01803504       4.05186408      24.58417406        2       0.00000000      -0.10558105       0.06367520       0.27894190
Pt       2.80721282       6.48298343      24.58417376        2       0.00000000      -0.49563646       0.27903417       0.29083884
Pt       5.61442796       6.48298325      24.58417391        2       0.00000000       0.48941129       0.28973761       0.29067519
Pt       8.42164222       6.48298341      24.58417381        2       0.00000000       0.00867568       0.00057496      -0.07332117
Pt      -0.00174016       0.14538249      27.19010148        1       0.00000000       0.00370931       0.03264610      -0.02254875
Pt       2.81719882       0.00501290      26.89728042        1       0.00000000       0.02986307       0.01180541      -0.00597748
Pt       5.60508187       0.00615409      26.89729558        1       0.00000000      -0.02513675       0.01997926      -0.00602222
Pt       1.41465897       2.42352677      26.89842537        1       0.00000000      -0.02543861       0.01705807      -0.01463185
Pt       4.21016289       2.41995308      26.89732840        1       0.00000000      -0.00464247      -0.03173031      -0.00596801
Pt       7.00591288       2.42533783      26.89844328        1       0.00000000       0.02762329       0.01330576      -0.01465931
Pt       2.68212138       4.78802771      27.19006891        1       0.00000000      -0.02894486      -0.01248295      -0.02208206
Pt       5.74122458       4.79102314      27.19008520        1       0.00000000       0.02523668      -0.01893360      -0.02210622
Pt       8.42266325       4.87560862      26.89837798        1       0.00000000      -0.00219152      -0.03057346      -0.01464042
C        4.21080792       5.67264407      27.90602945        0       1.00000000      -0.00004133      -0.00105729       0.03413091
H        4.21081994       5.67261319      25.35766594        0       0.00000000       0.00000430      -0.00001101      -0.00251329
