38
Lattice="8.421641763931781 0.0 0.0 4.2108208819658905 7.293355709136913 0.0 0.0 0.0 46.87624170604845" Properties=species:S:1:pos:R:3:tags:I:1:initial_magmoms:R:1:forces:R:3 charge=0 spin=0 energy=-197.50808692653897 free_energy=-197.50808692653897 stress="0.009057439863681793 -1.4227174460756942e-07 8.457488043234207e-09 -1.4227174460756942e-07 0.009057413786649704 4.999188973897617e-08 8.457488043234207e-09 4.999188973897617e-08 -0.0008545490563847125" pbc="T T T"
Pt      -0.00000012       0.00000002      19.95723426        4       0.00000000      -0.00503302       0.00329138       0.02215626
Pt       2.80721404      -0.00000018      19.95723442        4       0.00000000       0.00533104       0.00268828       0.02199318
Pt       5.61442782      -0.00000007      19.95723448        4       0.00000000       0.00291362       0.02441294      -0.03721699
Pt       1.40360721       2.43111841      19.95723428        4       0.00000000      -0.00103257       0.00917358       0.01908882
Pt       4.21082083       2.43111835      19.95723436        4       0.00000000       0.01967789      -0.01473360      -0.03725613
Pt       7.01803478       2.43111845      19.95723424        4       0.00000000      -0.02259041      -0.00967156      -0.03704398
Pt       2.80721407       4.86223728      19.95723400        4       0.00000000      -0.00743759      -0.00544679       0.01883820
Pt       5.61442803       4.86223733      19.95723419        4       0.00000000      -0.00030022      -0.00598173       0.02191449
Pt       8.42164139       4.86223726      19.95723434        4       0.00000000       0.00847296      -0.00373442       0.01889530
Pt       1.40360728       0.81037259      22.29206791        3       0.00000000      -0.00537295       0.02541605      -0.01668530
Pt       4.21082130       0.81037249      22.29206784        3       0.00000000       0.04261061       0.02396083      -0.19712615
Pt       7.01803471       0.81037256      22.29206781        3       0.00000000      -0.04215145       0.02482043      -0.19699061
Pt       2.80721448       3.24149124      22.29206773        3       0.00000000       0.08896186      -0.05149062      -0.14873421
Pt       5.61442763       3.24149123      22.29206786        3       0.00000000      -0.00045193      -0.04877411      -0.19726975
Pt       8.42164156       3.24149129      22.29206804        3       0.00000000      -0.08906924      -0.05120806      -0.14868221
Pt       4.21082092       5.67260997      22.29206793        3       0.00000000      -0.01938913      -0.01737374      -0.01717355
Pt       7.01803487       5.67261037      22.29206776        3       0.00000000       0.02475681      -0.00804464      -0.01724663
Pt       9.82524821       5.67261065      22.29206806        3       0.00000000       0.00010282       0.10268704      -0.14903302
Pt      -0.00000053       1.62074569      24.58417386        2       0.00000000       0.20971583       0.15360759       0.31616253
Pt       2.80721443       1.62074549      24.58417398        2       0.00000000      -0.20917101       0.15680645       0.31734535
Pt       5.61442778       1.62074537      24.58417377        2       0.00000000      -0.00000539       0.00002638      -0.21586442
Pt       1.40360637       4.05186439      24.58417390        2       0.00000000       0.00001253      -0.00000886      -0.59255672
Pt       4.21082088       4.05186403      24.58417379        2       0.00000000      -0.23774023       0.10493132       0.31646168
Pt       7.01803504       4.05186408      24.58417406        2       0.00000000       0.24020430       0.10300232       0.31782365
Pt       2.80721282       6.48298343      24.58417376        2       0.00000000      -0.03100284      -0.25981238       0.31787392
Pt       5.61442796       6.48298325      24.58417391        2       0.00000000       0.00000520      -0.00001304      -0.01355976
Pt       8.42164222       6.48298341      24.58417381        2       0.00000000       0.02799494      -0.25854614       0.31635222
Pt      -0.00193772       0.00076600      26.89637642        1       0.00000000      -0.01506506       0.01164113       0.01896312
Pt       2.80885592       0.00130797      26.89637925        1       0.00000000       0.01759904       0.00716994       0.01895561
Pt       5.61622877       0.01980103      26.90115737        1       0.00000000      -0.00285648       0.03319870      -0.00317945
Pt       1.40195644       2.32778591      27.29850537        1       0.00000000      -0.00589708      -0.03229818      -0.01025341
Pt       4.22707075       2.41966551      26.90119227        1       0.00000000       0.03009425      -0.01429224      -0.00337076
Pt       6.99998254       2.42277861      26.90118477        1       0.00000000      -0.02738343      -0.01893426      -0.00335199
Pt       2.89752738       4.91247035      27.29850364        1       0.00000000       0.03092776       0.01106453      -0.01025985
Pt       5.61473928       4.86016150      26.89638093        1       0.00000000      -0.00239577      -0.01880717       0.01884715
Pt       8.33298415       4.91533267      27.29849935        1       0.00000000      -0.02501805       0.02124730      -0.01024013
C        9.82525042       4.05186149      28.18219986        0       1.00000000      -0.00000457       0.00002474       0.01093042
H        9.82523528       4.05186279      26.17950543        0       0.00000000      -0.00001312       0.00000050      -0.02950712
