38
Lattice="8.421641763931781 0.0 0.0 4.2108208819658905 7.293355709136913 0.0 0.0 0.0 46.87624170604845" Properties=species:S:1:pos:R:3:tags:I:1:initial_magmoms:R:1:forces:R:3 charge=0 spin=0 energy=-197.98579383571865 free_energy=-197.98579383571865 stress="0.007734016980975866 3.316023503430188e-05 -1.7660129742580466e-05 3.316023503430188e-05 0.007408534176647663 8.307045936817303e-05 -1.7660129742580466e-05 8.307045936817303e-05 -0.0006750074680894613" pbc="T T T"
Pt      -0.00000012       0.00000002      19.95723426        4       0.00000000      -0.01717647      -0.00641054      -0.01326597
Pt       2.80721404      -0.00000018      19.95723442        4       0.00000000      -0.00020362       0.00632610       0.01842637
Pt       5.61442782      -0.00000007      19.95723448        4       0.00000000       0.01137342      -0.01160484      -0.01433242
Pt       1.40360721       2.43111841      19.95723428        4       0.00000000      -0.00573684       0.00025347       0.02792649
Pt       4.21082083       2.43111835      19.95723436        4       0.00000000       0.00330053      -0.00157059       0.02673759
Pt       7.01803478       2.43111845      19.95723424        4       0.00000000      -0.00049966       0.01104416      -0.01039168
Pt       2.80721407       4.86223728      19.95723400        4       0.00000000       0.00579008       0.02101786       0.00340822
Pt       5.61442803       4.86223733      19.95723419        4       0.00000000      -0.00163017      -0.00298964       0.00833337
Pt       8.42164139       4.86223726      19.95723434        4       0.00000000       0.00498464      -0.00007175       0.00850227
Pt       1.40360728       0.81037259      22.29206791        3       0.00000000      -0.07111229      -0.03124281      -0.13122165
Pt       4.21082130       0.81037249      22.29206784        3       0.00000000       0.06906027      -0.03167361      -0.12987670
Pt       7.01803471       0.81037256      22.29206781        3       0.00000000       0.00274655       0.00694074      -0.26225278
Pt       2.80721448       3.24149124      22.29206773        3       0.00000000       0.00172792       0.04150688      -0.01726165
Pt       5.61442763       3.24149123      22.29206786        3       0.00000000       0.01023360      -0.02336064      -0.06743238
Pt       8.42164156       3.24149129      22.29206804        3       0.00000000      -0.01139064      -0.02242372      -0.07169095
Pt       4.21082092       5.67260997      22.29206793        3       0.00000000      -0.01683516       0.04230900      -0.12893499
Pt       7.01803487       5.67261037      22.29206776        3       0.00000000      -0.00047566       0.01235981      -0.07832748
Pt       9.82524821       5.67261065      22.29206806        3       0.00000000       0.02364406       0.03615416      -0.11890785
Pt      -0.00000053       1.62074569      24.58417386        2       0.00000000       0.20445868       0.10721806       0.29036593
Pt       2.80721443       1.62074549      24.58417398        2       0.00000000       0.00514501       0.15957008      -0.16809270
Pt       5.61442778       1.62074537      24.58417377        2       0.00000000      -0.20964435       0.12114318       0.28835064
Pt       1.40360637       4.05186439      24.58417390        2       0.00000000       0.08466659      -0.10806224       0.23353536
Pt       4.21082088       4.05186403      24.58417379        2       0.00000000      -0.09558625      -0.12357973       0.23854667
Pt       7.01803504       4.05186408      24.58417406        2       0.00000000       0.00169194      -0.03674252      -0.08913168
Pt       2.80721282       6.48298343      24.58417376        2       0.00000000      -0.01076475      -0.14041910       0.19630678
Pt       5.61442796       6.48298325      24.58417391        2       0.00000000       0.00825590       0.00189595       0.00140916
Pt       8.42164222       6.48298341      24.58417381        2       0.00000000      -0.01458355       0.01561953       0.00310592
Pt       0.00591992      -0.00003568      26.90618378        1       0.00000000      -0.00464762      -0.00079218      -0.00273479
Pt       2.80467476      -0.12041610      27.01388898        1       0.00000000      -0.01205511      -0.00391218       0.00105405
Pt       5.60663532       0.00285226      26.90542557        1       0.00000000       0.01992327      -0.01322106      -0.00849851
Pt       1.27772006       2.39623381      27.23937034        1       0.00000000      -0.03151465      -0.01775652      -0.02524183
Pt       4.33946626       2.38706993      27.26823585        1       0.00000000      -0.01105239       0.02539929       0.00110733
Pt       7.01809347       2.41256441      26.89411569        1       0.00000000      -0.00416702       0.01415265       0.00370122
Pt       2.80539376       4.98922712      27.03364537        1       0.00000000       0.00120951       0.00940365      -0.01638534
Pt       5.62815258       4.84856518      26.89523020        1       0.00000000      -0.01310241      -0.01283961       0.00331765
Pt       8.40115493       4.85505766      26.89570593        1       0.00000000       0.01846584      -0.01166202      -0.00542207
C        2.80354448       3.32703627      27.94695482        0       1.00000000       0.04560205      -0.01174188       0.00541551
H        2.82584722       1.54298122      26.33083789        0       0.00000000       0.00989857      -0.02023758      -0.00014718
