38
Lattice="8.421641763931781 0.0 0.0 4.2108208819658905 7.293355709136913 0.0 0.0 0.0 46.87624170604845" Properties=species:S:1:pos:R:3:tags:I:1:initial_magmoms:R:1:forces:R:3 charge=0 spin=0 energy=-197.98725295742275 free_energy=-197.98725295742275 stress="0.0075970361940562725 6.226386904018e-05 -2.5997680495493114e-05 6.226386904018e-05 0.0073191639967262745 8.757958858041093e-05 -2.5997680495493114e-05 8.757958858041093e-05 -0.0007550310110673308" pbc="T T T"
Pt      -0.00000012       0.00000002      19.95723426        4       0.00000000      -0.01892542      -0.00704343      -0.01317653
Pt       2.80721404      -0.00000018      19.95723442        4       0.00000000      -0.00001059       0.00619159       0.01793470
Pt       5.61442782      -0.00000007      19.95723448        4       0.00000000       0.00802858      -0.01096675      -0.01372554
Pt       1.40360721       2.43111841      19.95723428        4       0.00000000      -0.00528831       0.00064195       0.02832971
Pt       4.21082083       2.43111835      19.95723436        4       0.00000000       0.00340650      -0.00130236       0.02704630
Pt       7.01803478       2.43111845      19.95723424        4       0.00000000      -0.00096291       0.01157272      -0.01065207
Pt       2.80721407       4.86223728      19.95723400        4       0.00000000       0.00572172       0.02246629       0.00190019
Pt       5.61442803       4.86223733      19.95723419        4       0.00000000      -0.00184418      -0.00187305       0.00838795
Pt       8.42164139       4.86223726      19.95723434        4       0.00000000       0.00448543       0.00062182       0.00904173
Pt       1.40360728       0.81037259      22.29206791        3       0.00000000      -0.07549407      -0.03033975      -0.13687569
Pt       4.21082130       0.81037249      22.29206784        3       0.00000000       0.06344269      -0.02705560      -0.12154172
Pt       7.01803471       0.81037256      22.29206781        3       0.00000000       0.00386174       0.00844942      -0.25838077
Pt       2.80721448       3.24149124      22.29206773        3       0.00000000       0.00114226       0.04519238      -0.02362880
Pt       5.61442763       3.24149123      22.29206786        3       0.00000000       0.00914100      -0.02035205      -0.06971948
Pt       8.42164156       3.24149129      22.29206804        3       0.00000000      -0.01022123      -0.02086062      -0.07484665
Pt       4.21082092       5.67260997      22.29206793        3       0.00000000      -0.01634358       0.04439464      -0.13277072
Pt       7.01803487       5.67261037      22.29206776        3       0.00000000      -0.00142436       0.01325291      -0.07440929
Pt       9.82524821       5.67261065      22.29206806        3       0.00000000       0.02413521       0.03380680      -0.11582349
Pt      -0.00000053       1.62074569      24.58417386        2       0.00000000       0.18893756       0.08521153       0.27466717
Pt       2.80721443       1.62074549      24.58417398        2       0.00000000       0.00407350       0.14988250      -0.18367726
Pt       5.61442778       1.62074537      24.58417377        2       0.00000000      -0.19986115       0.11200020       0.29623130
Pt       1.40360637       4.05186439      24.58417390        2       0.00000000       0.08001512      -0.10279380       0.18924098
Pt       4.21082088       4.05186403      24.58417379        2       0.00000000      -0.08035170      -0.13268483       0.22224869
Pt       7.01803504       4.05186408      24.58417406        2       0.00000000      -0.00509795      -0.03564173      -0.07444309
Pt       2.80721282       6.48298343      24.58417376        2       0.00000000      -0.00689206      -0.12550712       0.16987641
Pt       5.61442796       6.48298325      24.58417391        2       0.00000000       0.02222766      -0.00454264       0.01010987
Pt       8.42164222       6.48298341      24.58417381        2       0.00000000      -0.02558499       0.01515450       0.01082393
Pt       0.01300906      -0.01095521      26.90915530        1       0.00000000      -0.02921006       0.00698169      -0.00193307
Pt       2.79711142      -0.12819705      27.03003071        1       0.00000000       0.01398987      -0.02473127      -0.00958600
Pt       5.60918146      -0.01467874      26.90490435        1       0.00000000       0.00805062       0.04677946      -0.00104656
Pt       1.27717691       2.39036516      27.19379877        1       0.00000000       0.03988349      -0.00517922       0.01885841
Pt       4.34613770       2.37530727      27.27749872        1       0.00000000       0.03986980      -0.00694274       0.00675106
Pt       7.02087787       2.40646233      26.89502107        1       0.00000000      -0.02883514       0.01173029      -0.00460465
Pt       2.80591589       4.97978901      27.01618310        1       0.00000000       0.01806279      -0.01114609       0.03149368
Pt       5.62365729       4.84348328      26.89877650        1       0.00000000       0.01410382      -0.03358795      -0.00765295
Pt       8.41013422       4.85291113      26.89597982        1       0.00000000      -0.03865556      -0.01177667      -0.00752592
C        2.80141347       3.31270714      27.92476935        0       1.00000000      -0.03623258       0.01173067       0.01732871
H        2.90471303       1.51028448      26.32542066        0       0.00000000       0.02865619      -0.01173404      -0.00425047
