38
Lattice="8.421641763931781 0.0 0.0 4.2108208819658905 7.293355709136913 0.0 0.0 0.0 46.87624170604845" Properties=species:S:1:pos:R:3:tags:I:1:initial_magmoms:R:1:forces:R:3 charge=0 spin=0 energy=-197.93908286770107 free_energy=-197.93908286770107 stress="0.0070258015766739845 -1.500445989677246e-07 -8.104245274864752e-09 -1.500445989677246e-07 0.007025166880339384 -1.334150745435636e-08 -8.104245274864752e-09 -1.334150745435636e-08 -0.0010193664347752929" pbc="T T T"
Pt      -0.00000012       0.00000002      19.95723426        4       0.00000000       0.00118043       0.00763960       0.01769857
Pt       2.80721404      -0.00000018      19.95723442        4       0.00000000      -0.00024406      -0.00441355       0.01462638
Pt       5.61442782      -0.00000007      19.95723448        4       0.00000000       0.00392191       0.00199897       0.01475147
Pt       1.40360721       2.43111841      19.95723428        4       0.00000000      -0.00748435       0.00600155      -0.02557300
Pt       4.21082083       2.43111835      19.95723436        4       0.00000000      -0.00367478       0.00242280       0.01480730
Pt       7.01803478       2.43111845      19.95723424        4       0.00000000       0.00892012       0.00343517      -0.02548710
Pt       2.80721407       4.86223728      19.95723400        4       0.00000000      -0.00724879      -0.00274709       0.01779321
Pt       5.61442803       4.86223733      19.95723419        4       0.00000000       0.00607228      -0.00490043       0.01775559
Pt       8.42164139       4.86223726      19.95723434        4       0.00000000      -0.00143720      -0.00943874      -0.02556764
Pt       1.40360728       0.81037259      22.29206791        3       0.00000000      -0.00258034       0.08183892      -0.13914131
Pt       4.21082130       0.81037249      22.29206784        3       0.00000000      -0.00000047       0.00000394      -0.10852201
Pt       7.01803471       0.81037256      22.29206781        3       0.00000000       0.00605225       0.07320923      -0.13173564
Pt       2.80721448       3.24149124      22.29206773        3       0.00000000      -0.06633610      -0.03133220      -0.13138181
Pt       5.61442763       3.24149123      22.29206786        3       0.00000000       0.07216671      -0.03877963      -0.13893145
Pt       8.42164156       3.24149129      22.29206804        3       0.00000000       0.00000614       0.00000715      -0.26969057
Pt       4.21082092       5.67260997      22.29206793        3       0.00000000      -0.00000066       0.00000340      -0.22161376
Pt       7.01803487       5.67261037      22.29206776        3       0.00000000       0.06028235      -0.04187788      -0.13186707
Pt       9.82524821       5.67261065      22.29206806        3       0.00000000      -0.06957676      -0.04307015      -0.13933796
Pt      -0.00000053       1.62074569      24.58417386        2       0.00000000      -0.00236272      -0.12333470       0.27895817
Pt       2.80721443       1.62074549      24.58417398        2       0.00000000      -0.00404863      -0.00793723      -0.07367089
Pt       5.61442778       1.62074537      24.58417377        2       0.00000000      -0.00473060       0.00744137      -0.07354996
Pt       1.40360637       4.05186439      24.58417390        2       0.00000000       0.10783584       0.05958657       0.27899978
Pt       4.21082088       4.05186403      24.58417379        2       0.00000000       0.00637306      -0.56878018       0.29056349
Pt       7.01803504       4.05186408      24.58417406        2       0.00000000      -0.10557687       0.06367338       0.27894706
Pt       2.80721282       6.48298343      24.58417376        2       0.00000000      -0.49563679       0.27903408       0.29084009
Pt       5.61442796       6.48298325      24.58417391        2       0.00000000       0.48941213       0.28973815       0.29067788
Pt       8.42164222       6.48298341      24.58417381        2       0.00000000       0.00867560       0.00057272      -0.07332517
Pt      -0.00174071       0.14538299      27.19010169        1       0.00000000       0.00371537       0.03264005      -0.02254909
Pt       2.81720084       0.00501505      26.89727948        1       0.00000000       0.02984506       0.01179051      -0.00597458
Pt       5.60507908       0.00615482      26.89729511        1       0.00000000      -0.02511714       0.01997147      -0.00601884
Pt       1.41466235       2.42352452      26.89842879        1       0.00000000      -0.02545476       0.01707327      -0.01463677
Pt       4.21016356       2.41995052      26.89732808        1       0.00000000      -0.00464542      -0.03170964      -0.00595845
Pt       7.00590951       2.42533600      26.89844568        1       0.00000000       0.02764085       0.01331639      -0.01466440
Pt       2.68212358       4.78802845      27.19006928        1       0.00000000      -0.02899440      -0.01251072      -0.02210342
Pt       5.74122553       4.79102342      27.19008371        1       0.00000000       0.02523043      -0.01892713      -0.02210533
Pt       8.42266332       4.87561275      26.89838083        1       0.00000000      -0.00218566      -0.03059482      -0.01464665
C        4.21080629       5.67264337      27.90602686        0       1.00000000       0.00000220      -0.00103381       0.03414838
H        4.21082003       5.67261326      25.35766531        0       0.00000000       0.00000393      -0.00001079      -0.00251431
