38
Lattice="8.421641763931781 0.0 0.0 4.2108208819658905 7.293355709136913 0.0 0.0 0.0 46.87624170604845" Properties=species:S:1:pos:R:3:tags:I:1:initial_magmoms:R:1:forces:R:3 charge=0 spin=0 energy=-197.98584533413174 free_energy=-197.98584533413174 stress="0.0075073642656207085 -0.0001715730904834345 -6.719346129102632e-05 -0.0001715730904834345 0.007612473797053099 -5.334181332727894e-05 -6.719346129102632e-05 -5.334181332727894e-05 -0.0006807324243709445" pbc="T T T"
Pt      -0.00000012       0.00000002      19.95723426        4       0.00000000      -0.00231428       0.00426295       0.00854173
Pt       2.80721404      -0.00000018      19.95723442        4       0.00000000      -0.00920855      -0.00592482      -0.01015065
Pt       5.61442782      -0.00000007      19.95723448        4       0.00000000       0.00443447       0.01559359      -0.01430153
Pt       1.40360721       2.43111841      19.95723428        4       0.00000000       0.00268569      -0.00511237       0.02798834
Pt       4.21082083       2.43111835      19.95723436        4       0.00000000       0.01420614      -0.01154181      -0.01345164
Pt       7.01803478       2.43111845      19.95723424        4       0.00000000      -0.02127333      -0.00556345       0.00348097
Pt       2.80721407       4.86223728      19.95723400        4       0.00000000      -0.00544190      -0.00331765       0.01825061
Pt       5.61442803       4.86223733      19.95723419        4       0.00000000       0.00341155       0.00021632       0.00818136
Pt       8.42164139       4.86223726      19.95723434        4       0.00000000      -0.00026150       0.00365915       0.02682459
Pt       1.40360728       0.81037259      22.29206791        3       0.00000000       0.02509371       0.00134928      -0.07140969
Pt       4.21082130       0.81037249      22.29206784        3       0.00000000      -0.00727442      -0.00089893      -0.26159024
Pt       7.01803471       0.81037256      22.29206781        3       0.00000000      -0.04264655       0.00261795      -0.11852990
Pt       2.80721448       3.24149124      22.29206773        3       0.00000000       0.06237751      -0.04610548      -0.13132778
Pt       5.61442763       3.24149123      22.29206786        3       0.00000000      -0.02807551      -0.03549001      -0.12910442
Pt       8.42164156       3.24149129      22.29206804        3       0.00000000      -0.03724596      -0.01950912      -0.01792653
Pt       4.21082092       5.67260997      22.29206793        3       0.00000000      -0.01047944      -0.00653633      -0.07846393
Pt       7.01803487       5.67261037      22.29206776        3       0.00000000       0.01497267       0.02052844      -0.06749186
Pt       9.82524821       5.67261065      22.29206806        3       0.00000000      -0.00713744       0.07507595      -0.12946306
Pt      -0.00000053       1.62074569      24.58417386        2       0.00000000       0.04940282       0.12705722       0.23319393
Pt       2.80721443       1.62074549      24.58417398        2       0.00000000      -0.19496028       0.12242943       0.28611237
Pt       5.61442778       1.62074537      24.58417377        2       0.00000000       0.12594964       0.06035552       0.19779219
Pt       1.40360637       4.05186439      24.58417390        2       0.00000000      -0.14029330      -0.07491921      -0.17440435
Pt       4.21082088       4.05186403      24.58417379        2       0.00000000      -0.00476367       0.00700498       0.00138137
Pt       7.01803504       4.05186408      24.58417406        2       0.00000000       0.15342680      -0.02198352       0.23821092
Pt       2.80721282       6.48298343      24.58417376        2       0.00000000      -0.00527665      -0.02020695       0.00287658
Pt       5.61442796       6.48298325      24.58417391        2       0.00000000       0.03108759       0.01989791      -0.08715969
Pt       8.42164222       6.48298341      24.58417381        2       0.00000000      -0.00121687      -0.24213710       0.28600046
Pt       0.01649030      -0.01352556      26.89594616        1       0.00000000       0.00216781       0.02255116      -0.00607174
Pt       2.82460745       0.01023151      26.89456679        1       0.00000000      -0.01527806      -0.01534825       0.00469598
Pt       5.61525324      -0.01035602      26.90494178        1       0.00000000       0.00471098       0.03142545      -0.00747388
Pt       1.49654320       2.34054437      27.23588149        1       0.00000000       0.00771432      -0.01421194      -0.01555433
Pt       4.20548040       2.43650905      26.90570779        1       0.00000000       0.01366888      -0.00362815      -0.00145761
Pt       6.90581710       2.36447069      27.03481550        1       0.00000000       0.00410757       0.00148595      -0.01581319
Pt       2.91460382       4.92106666      27.01446148        1       0.00000000       0.00592371      -0.00999463       0.00150345
Pt       5.62021653       4.88115098      26.89561545        1       0.00000000       0.01700375      -0.00492002       0.00221778
Pt       8.39562075       4.99418662      27.26588709        1       0.00000000      -0.02109448      -0.01294950       0.00098333
C        8.34726192       3.19538416      27.94555850        0       1.00000000      -0.00045127       0.02671728      -0.00043367
H        9.88477382       4.10926477      26.33008539        0       0.00000000       0.01234808       0.01807061       0.00334367
