38
Lattice="8.421641763931781 0.0 0.0 4.2108208819658905 7.293355709136913 0.0 0.0 0.0 46.87624170604845" Properties=species:S:1:pos:R:3:tags:I:1:initial_magmoms:R:1:forces:R:3 charge=0 spin=0 energy=-197.5080831118417 free_energy=-197.5080831118417 stress="0.00905738677829504 -1.401627116592863e-07 1.1597687255004985e-08 -1.401627116592863e-07 0.00905735231935978 4.3552205397645594e-08 1.1597687255004985e-08 4.3552205397645594e-08 -0.0008546268218196929" pbc="T T T"
Pt      -0.00000012       0.00000002      19.95723426        4       0.00000000      -0.02258663      -0.00967343      -0.03704360
Pt       2.80721404      -0.00000018      19.95723442        4       0.00000000      -0.00103348       0.00917514       0.01907804
Pt       5.61442782      -0.00000007      19.95723448        4       0.00000000       0.01967532      -0.01473186      -0.03726561
Pt       1.40360721       2.43111841      19.95723428        4       0.00000000       0.00847102      -0.00372865       0.01889600
Pt       4.21082083       2.43111835      19.95723436        4       0.00000000      -0.00743697      -0.00544156       0.01883826
Pt       7.01803478       2.43111845      19.95723424        4       0.00000000      -0.00029937      -0.00597719       0.02191480
Pt       2.80721407       4.86223728      19.95723400        4       0.00000000       0.00291503       0.02440534      -0.03720645
Pt       5.61442803       4.86223733      19.95723419        4       0.00000000      -0.00503716       0.00328910       0.02215656
Pt       8.42164139       4.86223726      19.95723434        4       0.00000000       0.00533450       0.00268114       0.02200232
Pt       1.40360728       0.81037259      22.29206791        3       0.00000000      -0.08907543      -0.05120547      -0.14867491
Pt       4.21082130       0.81037249      22.29206784        3       0.00000000       0.08896729      -0.05148467      -0.14872935
Pt       7.01803471       0.81037256      22.29206781        3       0.00000000      -0.00045216      -0.04877016      -0.19726348
Pt       2.80721448       3.24149124      22.29206773        3       0.00000000       0.00008871       0.10270051      -0.14903107
Pt       5.61442763       3.24149123      22.29206786        3       0.00000000      -0.01938481      -0.01737574      -0.01717657
Pt       8.42164156       3.24149129      22.29206804        3       0.00000000       0.02476368      -0.00803746      -0.01725233
Pt       4.21082092       5.67260997      22.29206793        3       0.00000000      -0.04215398       0.02482007      -0.19698834
Pt       7.01803487       5.67261037      22.29206776        3       0.00000000      -0.00537216       0.02540682      -0.01668445
Pt       9.82524821       5.67261065      22.29206806        3       0.00000000       0.04261905       0.02393952      -0.19712047
Pt      -0.00000053       1.62074569      24.58417386        2       0.00000000       0.24021095       0.10299871       0.31780824
Pt       2.80721443       1.62074549      24.58417398        2       0.00000000       0.00000156      -0.00000249      -0.59257418
Pt       5.61442778       1.62074537      24.58417377        2       0.00000000      -0.23773909       0.10493140       0.31644753
Pt       1.40360637       4.05186439      24.58417390        2       0.00000000       0.02801121      -0.25854385       0.31633234
Pt       4.21082088       4.05186403      24.58417379        2       0.00000000      -0.03101536      -0.25979987       0.31785962
Pt       7.01803504       4.05186408      24.58417406        2       0.00000000       0.00000471      -0.00000718      -0.01357038
Pt       2.80721282       6.48298343      24.58417376        2       0.00000000       0.00000505       0.00001350      -0.21587189
Pt       5.61442796       6.48298325      24.58417391        2       0.00000000       0.20970836       0.15360546       0.31614941
Pt       8.42164222       6.48298341      24.58417381        2       0.00000000      -0.20917463       0.15679726       0.31733432
Pt      -0.01805089      -0.00833765      26.90118246        1       0.00000000      -0.02740251      -0.01895137      -0.00334774
Pt       2.80556325      -0.10332441      27.29849357        1       0.00000000      -0.00589876      -0.03236217      -0.01025057
Pt       5.63067461      -0.01145222      26.90119051        1       0.00000000       0.03011682      -0.01430285      -0.00336448
Pt       1.31495542       2.48421074      27.29848606        1       0.00000000      -0.02505386       0.02127247      -0.01023513
Pt       4.30112988       2.48134834      27.29849263        1       0.00000000       0.03095089       0.01108315      -0.01024183
Pt       7.01834579       2.42904001      26.89637486        1       0.00000000      -0.00239327      -0.01879380       0.01887272
Pt       2.80901507       4.88203552      26.90115511        1       0.00000000      -0.00285766       0.03322335      -0.00317754
Pt       5.61248868       4.86300464      26.89636945        1       0.00000000      -0.01505440       0.01163602       0.01898657
Pt       8.42328564       4.86354581      26.89637306        1       0.00000000       0.01758626       0.00716862       0.01897912
C        2.80721570       1.62074270      28.18220573        0       1.00000000       0.00000465       0.00004210       0.01094221
H        2.80720010       1.62074312      26.17951054        0       0.00000000      -0.00001345       0.00000022      -0.02952794
