38
Lattice="8.421641763931781 0.0 0.0 4.2108208819658905 7.293355709136913 0.0 0.0 0.0 46.87624170604845" Properties=species:S:1:pos:R:3:tags:I:1:initial_magmoms:R:1:forces:R:3 charge=0 spin=0 energy=-198.04618240078213 free_energy=-198.04618240078213 stress="0.007379764690995216 0.0003127036616206169 -7.131061283871531e-05 0.0003127036616206169 0.007969984784722328 1.8374725186731666e-05 -7.131061283871531e-05 1.8374725186731666e-05 -0.0007643034332431853" pbc="T T T"
Pt      -0.00000012       0.00000002      19.95723426        4       0.00000000       0.00671933      -0.00084684       0.01966307
Pt       2.80721404      -0.00000018      19.95723442        4       0.00000000      -0.00413869       0.00960353      -0.01290391
Pt       5.61442782      -0.00000007      19.95723448        4       0.00000000       0.00016379       0.00727798       0.02501971
Pt       1.40360721       2.43111841      19.95723428        4       0.00000000      -0.00085026      -0.00404576       0.00952491
Pt       4.21082083       2.43111835      19.95723436        4       0.00000000       0.00705082       0.00044515       0.01091112
Pt       7.01803478       2.43111845      19.95723424        4       0.00000000       0.00636188       0.01331174       0.00085755
Pt       2.80721407       4.86223728      19.95723400        4       0.00000000       0.00231262       0.00426937       0.01453032
Pt       5.61442803       4.86223733      19.95723419        4       0.00000000      -0.00650503      -0.00668705      -0.01133561
Pt       8.42164139       4.86223726      19.95723434        4       0.00000000      -0.03426555      -0.01270103      -0.01520157
Pt       1.40360728       0.81037259      22.29206791        3       0.00000000       0.00883004      -0.01132332      -0.05305453
Pt       4.21082130       0.81037249      22.29206784        3       0.00000000      -0.00385061      -0.02638466      -0.07772280
Pt       7.01803471       0.81037256      22.29206781        3       0.00000000      -0.00107202       0.02206210       0.01647160
Pt       2.80721448       3.24149124      22.29206773        3       0.00000000      -0.01157051       0.01158380      -0.08055037
Pt       5.61442763       3.24149123      22.29206786        3       0.00000000       0.02882073       0.03067940      -0.09155531
Pt       8.42164156       3.24149129      22.29206804        3       0.00000000      -0.00522609       0.07389104      -0.18514436
Pt       4.21082092       5.67260997      22.29206793        3       0.00000000       0.03717570      -0.01121404      -0.07920803
Pt       7.01803487       5.67261037      22.29206776        3       0.00000000       0.01280167       0.00383964      -0.27276099
Pt       9.82524821       5.67261065      22.29206806        3       0.00000000      -0.10010149      -0.04981558      -0.20320717
Pt      -0.00000053       1.62074569      24.58417386        2       0.00000000      -0.06721069      -0.16397573       0.24480154
Pt       2.80721443       1.62074549      24.58417398        2       0.00000000      -0.06989582      -0.03788328      -0.09887747
Pt       5.61442778       1.62074537      24.58417377        2       0.00000000       0.08846592      -0.06801299       0.15817524
Pt       1.40360637       4.05186439      24.58417390        2       0.00000000       0.01939366      -0.05460745       0.01860137
Pt       4.21082088       4.05186403      24.58417379        2       0.00000000       0.01473288      -0.01823601      -0.04618903
Pt       7.01803504       4.05186408      24.58417406        2       0.00000000      -0.03388170      -0.13264243       0.12876651
Pt       2.80721282       6.48298343      24.58417376        2       0.00000000       0.10369824       0.20972359       0.20746194
Pt       5.61442796       6.48298325      24.58417391        2       0.00000000      -0.13007027       0.11242940       0.17351510
Pt       8.42164222       6.48298341      24.58417381        2       0.00000000       0.11290123       0.04486243       0.17511879
Pt       0.21401510      -0.11903280      27.59118309        1       0.00000000      -0.02822383      -0.01822461      -0.02096194
Pt       2.78915084      -0.01305861      26.87995756        1       0.00000000       0.00923152      -0.02696702       0.01051958
Pt       5.48712579      -0.05797514      27.07116313        1       0.00000000       0.00184715       0.00859545       0.02291739
Pt       1.38773907       2.37936711      26.90695012        1       0.00000000      -0.00338487       0.02628748       0.00184588
Pt       4.15916733       2.43221332      26.88334967        1       0.00000000       0.00998306       0.01786902       0.00785515
Pt       7.00765625       2.51581235      27.00763175        1       0.00000000      -0.00406163       0.01128183      -0.00274037
Pt       2.77494966       4.80535915      26.96878421        1       0.00000000       0.01750557       0.01371918       0.02530267
Pt       5.62538501       4.83147518      26.91704695        1       0.00000000      -0.00853549       0.04228510      -0.00269401
Pt       8.41606226       4.84095057      26.90162362        1       0.00000000      -0.01193608      -0.01301577      -0.01258012
C        6.99572253       0.81253301      27.85448429        0       1.00000000       0.01161867      -0.01666412      -0.00798734
H        7.72980055      -0.97331982      26.23316440        0       0.00000000       0.02516596       0.00923056       0.00281552
