38
Lattice="8.421641763931781 0.0 0.0 4.2108208819658905 7.293355709136913 0.0 0.0 0.0 46.87624170604845" Properties=species:S:1:pos:R:3:tags:I:1:initial_magmoms:R:1:forces:R:3 charge=0 spin=0 energy=-197.9887616701913 free_energy=-197.9887616701913 stress="0.0074792541563510895 -0.00014741175982635468 -6.876065890537575e-05 -0.00014741175982635468 0.007527478504925966 -6.567747914232314e-05 -6.876065890537575e-05 -6.567747914232314e-05 -0.0007329924846999347" pbc="T T T"
Pt      -0.00000012       0.00000002      19.95723426        4       0.00000000      -0.00365517       0.00367264       0.00924047
Pt       2.80721404      -0.00000018      19.95723442        4       0.00000000      -0.00993916      -0.00710823      -0.01067529
Pt       5.61442782      -0.00000007      19.95723448        4       0.00000000       0.00524764       0.01130008      -0.01329241
Pt       1.40360721       2.43111841      19.95723428        4       0.00000000       0.00092361      -0.00550263       0.02860200
Pt       4.21082083       2.43111835      19.95723436        4       0.00000000       0.01534035      -0.01326312      -0.01286366
Pt       7.01803478       2.43111845      19.95723424        4       0.00000000      -0.02376884      -0.00729248       0.00102243
Pt       2.80721407       4.86223728      19.95723400        4       0.00000000      -0.00630342      -0.00330289       0.01792029
Pt       5.61442803       4.86223733      19.95723419        4       0.00000000       0.00241719      -0.00112024       0.00854480
Pt       8.42164139       4.86223726      19.95723434        4       0.00000000      -0.00169623       0.00331328       0.02701418
Pt       1.40360728       0.81037259      22.29206791        3       0.00000000       0.02097866       0.00101881      -0.07348128
Pt       4.21082130       0.81037249      22.29206784        3       0.00000000      -0.01003398      -0.00078436      -0.25830960
Pt       7.01803471       0.81037256      22.29206781        3       0.00000000      -0.04294011       0.00277793      -0.11423419
Pt       2.80721448       3.24149124      22.29206773        3       0.00000000       0.06329076      -0.05169507      -0.13970089
Pt       5.61442763       3.24149123      22.29206786        3       0.00000000      -0.03267245      -0.03714526      -0.13392560
Pt       8.42164156       3.24149129      22.29206804        3       0.00000000      -0.04348770      -0.02327442      -0.02618838
Pt       4.21082092       5.67260997      22.29206793        3       0.00000000      -0.01327453      -0.00937001      -0.07469957
Pt       7.01803487       5.67261037      22.29206776        3       0.00000000       0.01045900       0.01765588      -0.06764347
Pt       9.82524821       5.67261065      22.29206806        3       0.00000000      -0.00999110       0.06600436      -0.11994062
Pt      -0.00000053       1.62074569      24.58417386        2       0.00000000       0.05122001       0.12333599       0.19176440
Pt       2.80721443       1.62074549      24.58417398        2       0.00000000      -0.16354352       0.12362333       0.28924432
Pt       5.61442778       1.62074537      24.58417377        2       0.00000000       0.12440494       0.05997872       0.17255853
Pt       1.40360637       4.05186439      24.58417390        2       0.00000000      -0.13225141      -0.07512282      -0.18943739
Pt       4.21082088       4.05186403      24.58417379        2       0.00000000      -0.00209169       0.02640826       0.01938911
Pt       7.01803504       4.05186408      24.58417406        2       0.00000000       0.16283567      -0.00344415       0.21402296
Pt       2.80721282       6.48298343      24.58417376        2       0.00000000       0.00654564      -0.02164792       0.01878647
Pt       5.61442796       6.48298325      24.58417391        2       0.00000000       0.04742790       0.02195918      -0.08472527
Pt       8.42164222       6.48298341      24.58417381        2       0.00000000       0.00843940      -0.22827294       0.29685670
Pt       0.03135130      -0.00554578      26.89475577        1       0.00000000       0.00334740       0.02078070      -0.00449915
Pt       2.83992086       0.01686638      26.90119055        1       0.00000000      -0.02210070       0.01839309      -0.01298690
Pt       5.63186548       0.00764749      26.90488492        1       0.00000000       0.00227512       0.01133792      -0.00049326
Pt       1.51385257       2.35569149      27.19401206        1       0.00000000      -0.02033814      -0.00141195       0.00297841
Pt       4.22515464       2.44887322      26.90817338        1       0.00000000       0.00166661      -0.00683487      -0.00319815
Pt       6.92747611       2.38199228      27.01721969        1       0.00000000       0.00694445      -0.02185319       0.02304512
Pt       2.93699822       4.92823455      27.03370021        1       0.00000000       0.01496580       0.00391281      -0.00208642
Pt       5.64147369       4.89079879      26.89659097        1       0.00000000       0.00171099       0.00081624       0.00128928
Pt       8.41206904       5.01552212      27.28467737        1       0.00000000       0.00338824       0.00154180       0.01021662
C        8.37400977       3.20707299      27.92991626        0       1.00000000       0.00908599      -0.02438072      -0.00049940
H        9.89088016       4.22155605      26.31813555        0       0.00000000      -0.02482714       0.02499598       0.01038527
