38
Lattice="8.421641763931781 0.0 0.0 4.2108208819658905 7.293355709136913 0.0 0.0 0.0 46.87624170604845" Properties=species:S:1:pos:R:3:tags:I:1:initial_magmoms:R:1:forces:R:3 charge=0 spin=0 energy=-198.04621864040615 free_energy=-198.04621864040615 stress="0.007552472874522209 -0.0004119942313991487 5.143185626366176e-05 -0.0004119942313991487 0.007799888961017132 5.4567542974837124e-05 5.143185626366176e-05 5.4567542974837124e-05 -0.0007631692569702864" pbc="T T T"
Pt      -0.00000012       0.00000002      19.95723426        4       0.00000000      -0.00250037       0.00899656      -0.01130147
Pt       2.80721404      -0.00000018      19.95723442        4       0.00000000      -0.00410728      -0.00539993       0.01977075
Pt       5.61442782      -0.00000007      19.95723448        4       0.00000000       0.00837329      -0.01214764       0.00080579
Pt       1.40360721       2.43111841      19.95723428        4       0.00000000       0.00255971      -0.00418357       0.01444538
Pt       4.21082083       2.43111835      19.95723436        4       0.00000000       0.00615010      -0.00375873       0.02499860
Pt       7.01803478       2.43111845      19.95723424        4       0.00000000      -0.00314913      -0.00630822       0.01085082
Pt       2.80721407       4.86223728      19.95723400        4       0.00000000       0.00614557       0.03610738      -0.01534890
Pt       5.61442803       4.86223733      19.95723419        4       0.00000000       0.01032742      -0.00115786      -0.01275781
Pt       8.42164139       4.86223726      19.95723434        4       0.00000000      -0.00308006       0.00272734       0.00955114
Pt       1.40360728       0.81037259      22.29206791        3       0.00000000      -0.02835033      -0.02644585      -0.07951979
Pt       4.21082130       0.81037249      22.29206784        3       0.00000000       0.01966976      -0.01002262       0.01637725
Pt       7.01803471       0.81037256      22.29206781        3       0.00000000       0.01197595      -0.04043087      -0.09183458
Pt       2.80721448       3.24149124      22.29206773        3       0.00000000       0.00688246       0.11184953      -0.20346870
Pt       5.61442763       3.24149123      22.29206786        3       0.00000000      -0.02082536       0.01646223      -0.07744836
Pt       8.42164156       3.24149129      22.29206804        3       0.00000000       0.01581825       0.00435358      -0.08078431
Pt       4.21082092       5.67260997      22.29206793        3       0.00000000      -0.00313964      -0.01315248      -0.27253985
Pt       7.01803487       5.67261037      22.29206776        3       0.00000000      -0.01407019      -0.00197226      -0.05255479
Pt       9.82524821       5.67261065      22.29206806        3       0.00000000       0.06646741      -0.03248839      -0.18520533
Pt      -0.00000053       1.62074569      24.58417386        2       0.00000000      -0.02297898      -0.00339484      -0.04540846
Pt       2.80721443       1.62074549      24.58417398        2       0.00000000       0.12956299      -0.19470252       0.20732038
Pt       5.61442778       1.62074537      24.58417377        2       0.00000000      -0.10276267      -0.04236552       0.15798923
Pt       1.40360637       4.05186439      24.58417390        2       0.00000000      -0.05668564       0.01017564       0.01944459
Pt       4.21082088       4.05186403      24.58417379        2       0.00000000      -0.01763179      -0.12005787       0.17545165
Pt       7.01803504       4.05186408      24.58417406        2       0.00000000       0.00208368       0.07939678      -0.09823478
Pt       2.80721282       6.48298343      24.58417376        2       0.00000000      -0.09734467       0.09554849       0.12884027
Pt       5.61442796       6.48298325      24.58417391        2       0.00000000       0.16203161       0.05606506       0.17360364
Pt       8.42164222       6.48298341      24.58417381        2       0.00000000      -0.10812581       0.13980800       0.24426080
Pt      -0.03192359       0.00601726      26.91720543        1       0.00000000       0.04028572      -0.01426426      -0.00316201
Pt       2.59715890      -0.12588967      27.59134674        1       0.00000000      -0.00261949       0.03312359      -0.02121315
Pt       5.69307004      -0.03334421      27.00731427        1       0.00000000       0.01170940      -0.00211968      -0.00208886
Pt       1.37074177       2.48716516      26.96920872        1       0.00000000       0.00331477      -0.02168431       0.02377922
Pt       4.22439156       2.57034659      27.07097746        1       0.00000000       0.00654870      -0.00590815       0.02326306
Pt       7.04513079       2.47531744      26.88354525        1       0.00000000       0.01013088      -0.01763853       0.00727292
Pt       2.79154765       4.87774220      26.90179288        1       0.00000000      -0.00493117       0.01634466      -0.01304593
Pt       5.61222468       4.88436346      26.88010186        1       0.00000000      -0.02796005       0.00556122       0.00995725
Pt       8.38483382       4.90172362      26.90705019        1       0.00000000       0.02469010      -0.01021189       0.00156010
C        4.22385787       0.82851630      27.85417703        0       1.00000000      -0.01901383      -0.00093166      -0.00750329
H        2.31110270       1.08512225      26.23248651        0       0.00000000      -0.00545141      -0.02577240       0.00387783
