38
Lattice="8.421641763931781 0.0 0.0 4.2108208819658905 7.293355709136913 0.0 0.0 0.0 46.87624170604845" Properties=species:S:1:pos:R:3:tags:I:1:initial_magmoms:R:1:forces:R:3 charge=0 spin=0 energy=-197.93952155788662 free_energy=-197.93952155788662 stress="0.007036812137812376 -1.6539801208637073e-06 -1.2906971278425772e-06 -1.6539801208637073e-06 0.007045644335448742 -3.45657622347062e-06 -1.2906971278425772e-06 -3.45657622347062e-06 -0.0010359734296798706" pbc="T T T"
Pt      -0.00000012       0.00000002      19.95723426        4       0.00000000      -0.00376468       0.00257400       0.01477933
Pt       2.80721404      -0.00000018      19.95723442        4       0.00000000       0.00844851       0.00311538      -0.02560705
Pt       5.61442782      -0.00000007      19.95723448        4       0.00000000      -0.00698361       0.00575541      -0.02565977
Pt       1.40360721       2.43111841      19.95723428        4       0.00000000       0.00664290      -0.00504879       0.01822718
Pt       4.21082083       2.43111835      19.95723436        4       0.00000000      -0.00147880      -0.00889855      -0.02558116
Pt       7.01803478       2.43111845      19.95723424        4       0.00000000      -0.00765963      -0.00316613       0.01826530
Pt       2.80721407       4.86223728      19.95723400        4       0.00000000      -0.00033121      -0.00455638       0.01464042
Pt       5.61442803       4.86223733      19.95723419        4       0.00000000       0.00410805       0.00201878       0.01474642
Pt       8.42164139       4.86223726      19.95723434        4       0.00000000       0.00101445       0.00821395       0.01815767
Pt       1.40360728       0.81037259      22.29206791        3       0.00000000       0.07189389      -0.03847731      -0.13669726
Pt       4.21082130       0.81037249      22.29206784        3       0.00000000      -0.00003769      -0.00007405      -0.27012482
Pt       7.01803471       0.81037256      22.29206781        3       0.00000000      -0.06678814      -0.03085081      -0.12893890
Pt       2.80721448       3.24149124      22.29206773        3       0.00000000       0.06005753      -0.04245741      -0.12943178
Pt       5.61442763       3.24149123      22.29206786        3       0.00000000      -0.06914019      -0.04290569      -0.13709307
Pt       8.42164156       3.24149129      22.29206804        3       0.00000000       0.00001234       0.00004803      -0.22581100
Pt       4.21082092       5.67260997      22.29206793        3       0.00000000      -0.00000114       0.00000199      -0.10972904
Pt       7.01803487       5.67261037      22.29206776        3       0.00000000       0.00668784       0.07336312      -0.12935622
Pt       9.82524821       5.67261065      22.29206806        3       0.00000000      -0.00267036       0.08138869      -0.13698696
Pt      -0.00000053       1.62074569      24.58417386        2       0.00000000       0.00688456      -0.57244337       0.29365700
Pt       2.80721443       1.62074549      24.58417398        2       0.00000000      -0.10868043       0.06838050       0.26652360
Pt       5.61442778       1.62074537      24.58417377        2       0.00000000       0.11372740       0.05968847       0.26686221
Pt       1.40360637       4.05186439      24.58417390        2       0.00000000       0.49188745       0.29171255       0.29391682
Pt       4.21082088       4.05186403      24.58417379        2       0.00000000       0.00796992      -0.00105837      -0.07606899
Pt       7.01803504       4.05186408      24.58417406        2       0.00000000      -0.49882457       0.28022876       0.29418221
Pt       2.80721282       6.48298343      24.58417376        2       0.00000000      -0.00499304      -0.00634839      -0.07644454
Pt       5.61442796       6.48298325      24.58417391        2       0.00000000      -0.00289642       0.00765373      -0.07620461
Pt       8.42164222       6.48298341      24.58417381        2       0.00000000      -0.00521326      -0.12811916       0.26577502
Pt      -0.00064163      -0.01985799      26.90067821        1       0.00000000      -0.00852528       0.01495103      -0.01291363
Pt       2.79778591      -0.00035776      26.89458444        1       0.00000000       0.01541539      -0.01267082       0.00146304
Pt       5.61925194      -0.00817743      26.89445366        1       0.00000000       0.00511130       0.02279979       0.00173632
Pt       1.52822787       2.36247662      27.18463891        1       0.00000000       0.02895543      -0.01604688      -0.01446039
Pt       4.21523751       2.43926251      26.89428689        1       0.00000000      -0.01918740      -0.00680372       0.00194673
Pt       6.89653978       2.35751967      27.18467951        1       0.00000000      -0.03604294      -0.01978797      -0.01702837
Pt       2.82464544       4.87154305      26.90050433        1       0.00000000      -0.00888669      -0.01492094      -0.01234411
Pt       5.59755574       4.87268169      26.90062809        1       0.00000000       0.01723650      -0.00059493      -0.01270888
Pt       8.41865123       5.00496394      27.18455138        1       0.00000000       0.00054274       0.01857722      -0.00976244
C        8.42141580       3.24093146      27.91130417        0       1.00000000       0.00540202       0.01442695       0.01807976
H        8.42160673       3.24139502      25.36082759        0       0.00000000       0.00010733       0.00033104      -0.01400573
