38
Lattice="8.421641763931781 0.0 0.0 4.2108208819658905 7.293355709136913 0.0 0.0 0.0 46.87624170604845" Properties=species:S:1:pos:R:3:tags:I:1:initial_magmoms:R:1:forces:R:3 charge=0 spin=0 energy=-197.93990874965908 free_energy=-197.93990874965908 stress="0.007024707738310099 3.059120601278664e-08 1.6888378695512074e-07 3.059120601278664e-08 0.007021118886768818 1.0240080428047804e-06 1.6888378695512074e-07 1.0240080428047804e-06 -0.001091149402782321" pbc="T T T"
Pt      -0.00000012       0.00000002      19.95723426        4       0.00000000      -0.00695516       0.00571362      -0.02590116
Pt       2.80721404      -0.00000018      19.95723442        4       0.00000000      -0.00348211       0.00263100       0.01468736
Pt       5.61442782      -0.00000007      19.95723448        4       0.00000000       0.00841840       0.00311384      -0.02581956
Pt       1.40360721       2.43111841      19.95723428        4       0.00000000      -0.00777309      -0.00315605       0.01830489
Pt       4.21082083       2.43111835      19.95723436        4       0.00000000       0.00668233      -0.00515771       0.01826498
Pt       7.01803478       2.43111845      19.95723424        4       0.00000000      -0.00146072      -0.00883744      -0.02590519
Pt       2.80721407       4.86223728      19.95723400        4       0.00000000       0.00109639       0.00827503       0.01820256
Pt       5.61442803       4.86223733      19.95723419        4       0.00000000      -0.00053000      -0.00437221       0.01451938
Pt       8.42164139       4.86223726      19.95723434        4       0.00000000       0.00400978       0.00169220       0.01464735
Pt       1.40360728       0.81037259      22.29206791        3       0.00000000      -0.06604879      -0.03103278      -0.12910710
Pt       4.21082130       0.81037249      22.29206784        3       0.00000000       0.07184184      -0.03858580      -0.13561136
Pt       7.01803471       0.81037256      22.29206781        3       0.00000000       0.00000257       0.00000261      -0.26908422
Pt       2.80721448       3.24149124      22.29206773        3       0.00000000      -0.00001108      -0.00003986      -0.22470598
Pt       5.61442763       3.24149123      22.29206786        3       0.00000000       0.05984024      -0.04182881      -0.12953129
Pt       8.42164156       3.24149129      22.29206804        3       0.00000000      -0.06922630      -0.04293773      -0.13595927
Pt       4.21082092       5.67260997      22.29206793        3       0.00000000      -0.00264228       0.08141020      -0.13576868
Pt       7.01803487       5.67261037      22.29206776        3       0.00000000      -0.00000996      -0.00004278      -0.11084011
Pt       9.82524821       5.67261065      22.29206806        3       0.00000000       0.00621124       0.07272994      -0.12942608
Pt      -0.00000053       1.62074569      24.58417386        2       0.00000000       0.11082363       0.06251777       0.26221243
Pt       2.80721443       1.62074549      24.58417398        2       0.00000000       0.00713006      -0.57449716       0.27910081
Pt       5.61442778       1.62074537      24.58417377        2       0.00000000      -0.10936682       0.06515262       0.26218614
Pt       1.40360637       4.05186439      24.58417390        2       0.00000000      -0.50101048       0.28130826       0.27953115
Pt       4.21082088       4.05186403      24.58417379        2       0.00000000       0.49405393       0.29335454       0.27942485
Pt       7.01803504       4.05186408      24.58417406        2       0.00000000       0.01002310      -0.00454331      -0.08807047
Pt       2.80721282       6.48298343      24.58417376        2       0.00000000      -0.00146474      -0.12723300       0.26231837
Pt       5.61442796       6.48298325      24.58417391        2       0.00000000      -0.00921904      -0.00634291      -0.08839974
Pt       8.42164222       6.48298341      24.58417381        2       0.00000000      -0.00088575       0.01133535      -0.08830625
Pt       0.00660339      -0.00336724      26.89476247        1       0.00000000      -0.00611228      -0.00123440       0.00407164
Pt       2.80427235      -0.01708277      26.89440594        1       0.00000000       0.00184785       0.00258405       0.00617970
Pt       5.60807785      -0.00372533      26.89475436        1       0.00000000       0.00182539       0.00613947       0.00408915
Pt       1.27966961       2.35966217      27.18029639        1       0.00000000       0.01355430       0.01106697       0.00816083
Pt       4.33492249       2.35989207      27.18029589        1       0.00000000      -0.01616658       0.00528869       0.00795804
Pt       7.01784010       2.43883175      26.89478552        1       0.00000000       0.00420426      -0.00486973       0.00394019
Pt       2.80711594       5.00559109      27.18021201        1       0.00000000       0.00307515      -0.01280227       0.00664209
Pt       5.63095470       4.86854842      26.89436940        1       0.00000000      -0.00314866       0.00015461       0.00611472
Pt       8.40812166       4.87368346      26.89436851        1       0.00000000       0.00141456      -0.00284355       0.00611300
C        2.80726750       3.24198730      27.91226067        0       1.00000000      -0.00055382      -0.00418630      -0.02868292
H        2.80720469       3.24142016      25.35836617        0       0.00000000       0.00001283       0.00007300      -0.00555022
