38
Lattice="8.421641763931781 0.0 0.0 4.2108208819658905 7.293355709136913 0.0 0.0 0.0 46.87624170604845" Properties=species:S:1:pos:R:3:tags:I:1:initial_magmoms:R:1:forces:R:3 charge=0 spin=0 energy=-192.903142697413 free_energy=-192.903142697413 stress="0.010230031795799732 -1.1012011214006634e-07 8.571335641249789e-09 -1.1012011214006634e-07 0.010230021551251411 -4.1373269255018386e-09 8.571335641249789e-09 -4.1373269255018386e-09 -7.2463444666937e-05" pbc="T T T"
Pt      -0.00000012       0.00000002      19.95723426        4       0.00000000      -0.00275733       0.00228148       0.01644192
Pt       2.80721404      -0.00000018      19.95723442        4       0.00000000      -0.00000164       0.00000252       0.01532087
Pt       5.61442782      -0.00000007      19.95723448        4       0.00000000       0.00147910       0.00418848       0.01718708
Pt       1.40360721       2.43111841      19.95723428        4       0.00000000      -0.00436091      -0.00080742       0.01718753
Pt       4.21082083       2.43111835      19.95723436        4       0.00000000       0.00336294       0.00125475       0.01645095
Pt       7.01803478       2.43111845      19.95723424        4       0.00000000      -0.00000083       0.00000084      -0.01058788
Pt       2.80721407       4.86223728      19.95723400        4       0.00000000       0.00000123      -0.00000384       0.01367848
Pt       5.61442803       4.86223733      19.95723419        4       0.00000000       0.00287891      -0.00337978       0.01719913
Pt       8.42164139       4.86223726      19.95723434        4       0.00000000      -0.00059936      -0.00353944       0.01647538
Pt       1.40360728       0.81037259      22.29206791        3       0.00000000       0.00242554      -0.00311386      -0.05282068
Pt       4.21082130       0.81037249      22.29206784        3       0.00000000      -0.00390737      -0.00056651      -0.05282260
Pt       7.01803471       0.81037256      22.29206781        3       0.00000000      -0.00102991       0.00493506      -0.04000467
Pt       2.80721448       3.24149124      22.29206773        3       0.00000000      -0.00041626       0.00115873      -0.05311133
Pt       5.61442763       3.24149123      22.29206786        3       0.00000000       0.00480118      -0.00160614      -0.04001618
Pt       8.42164156       3.24149129      22.29206804        3       0.00000000      -0.00376353      -0.00332355      -0.03999690
Pt       4.21082092       5.67260997      22.29206793        3       0.00000000      -0.00081806      -0.00095379      -0.05311332
Pt       7.01803487       5.67261037      22.29206776        3       0.00000000       0.00147712       0.00368551      -0.05281083
Pt       9.82524821       5.67261065      22.29206806        3       0.00000000       0.00122965      -0.00021294      -0.05309322
Pt      -0.00000053       1.62074569      24.58417386        2       0.00000000      -0.01027584       0.00264870       0.04059235
Pt       2.80721443       1.62074549      24.58417398        2       0.00000000       0.00672990      -0.00656593       0.05939186
Pt       5.61442778       1.62074537      24.58417377        2       0.00000000       0.00746926       0.00755862       0.04062960
Pt       1.40360637       4.05186439      24.58417390        2       0.00000000      -0.01134506      -0.00626700       0.03709478
Pt       4.21082088       4.05186403      24.58417379        2       0.00000000       0.01109902      -0.00670078       0.03713614
Pt       7.01803504       4.05186408      24.58417406        2       0.00000000       0.00280781      -0.01020479       0.04053903
Pt       2.80721282       6.48298343      24.58417376        2       0.00000000       0.00027667       0.01297233       0.03716421
Pt       5.61442796       6.48298325      24.58417391        2       0.00000000       0.00226569       0.00910256       0.05936698
Pt       8.42164222       6.48298341      24.58417381        2       0.00000000      -0.00901963      -0.00254604       0.05937558
Pt       0.00470172       0.01077935      26.92152868        1       0.00000000       0.00627209       0.00301224      -0.00974370
Pt       2.80721845       0.00000172      26.92543946        1       0.00000000      -0.00000727      -0.00000788      -0.02470574
Pt       5.60672464       0.00832111      26.92150169        1       0.00000000      -0.00204725       0.00622909      -0.01041783
Pt       1.40024692       2.42028097      26.92150490        1       0.00000000      -0.00438167      -0.00490273      -0.01042166
Pt       4.21779834       2.42166835      26.92151714        1       0.00000000      -0.00052725      -0.00694104      -0.00977029
Pt       7.01802852       2.43111757      26.92612232        1       0.00000000       0.00000875       0.00000933      -0.02825170
Pt       2.80721275       4.86223937      26.90124168        1       0.00000000       0.00000087      -0.00000043       0.03183227
Pt       5.62548928       4.86475813      26.92150384        1       0.00000000       0.00642773      -0.00133133      -0.01042082
Pt       8.40996164       4.86090971      26.92152317        1       0.00000000      -0.00575246       0.00393745      -0.00976679
C        2.80721709       4.86224117      29.93894612        0       1.00000000       0.00000489       0.00000996      -0.00346496
H        2.80721136       4.86223371      28.76323366        0       0.00000000      -0.00000691      -0.00001249      -0.00772292
