38
Lattice="8.421641763931781 0.0 0.0 4.2108208819658905 7.293355709136913 0.0 0.0 0.0 46.87624170604845" Properties=species:S:1:pos:R:3:tags:I:1:initial_magmoms:R:1:forces:R:3 charge=0 spin=0 energy=-197.93990684231045 free_energy=-197.93990684231045 stress="0.007024690508842468 5.412644910052222e-08 1.8239336441183696e-07 5.412644910052222e-08 0.007021141238510609 1.015814405036508e-06 1.8239336441183696e-07 1.015814405036508e-06 -0.0010911899153143167" pbc="T T T"
Pt      -0.00000012       0.00000002      19.95723426        4       0.00000000      -0.00145777      -0.00883940      -0.02590576
Pt       2.80721404      -0.00000018      19.95723442        4       0.00000000      -0.00777440      -0.00315461       0.01829461
Pt       5.61442782      -0.00000007      19.95723448        4       0.00000000       0.00668011      -0.00515629       0.01825542
Pt       1.40360721       2.43111841      19.95723428        4       0.00000000       0.00400736       0.00169771       0.01464833
Pt       4.21082083       2.43111835      19.95723436        4       0.00000000       0.00109681       0.00828041       0.01820279
Pt       7.01803478       2.43111845      19.95723424        4       0.00000000      -0.00052953      -0.00436802       0.01451957
Pt       2.80721407       4.86223728      19.95723400        4       0.00000000       0.00841919       0.00310702      -0.02580973
Pt       5.61442803       4.86223733      19.95723419        4       0.00000000      -0.00695842       0.00571067      -0.02590165
Pt       8.42164139       4.86223726      19.95723434        4       0.00000000      -0.00347912       0.00262390       0.01469595
Pt       1.40360728       0.81037259      22.29206791        3       0.00000000      -0.06923465      -0.04293588      -0.13595644
Pt       4.21082130       0.81037249      22.29206784        3       0.00000000      -0.00000565      -0.00003423      -0.22470631
Pt       7.01803471       0.81037256      22.29206781        3       0.00000000       0.05983919      -0.04182603      -0.12952769
Pt       2.80721448       3.24149124      22.29206773        3       0.00000000       0.00619699       0.07274421      -0.12942638
Pt       5.61442763       3.24149123      22.29206786        3       0.00000000      -0.00263710       0.08140818      -0.13576938
Pt       8.42164156       3.24149129      22.29206804        3       0.00000000      -0.00000348      -0.00003600      -0.11084565
Pt       4.21082092       5.67260997      22.29206793        3       0.00000000      -0.00000134       0.00000068      -0.26908457
Pt       7.01803487       5.67261037      22.29206776        3       0.00000000      -0.06604847      -0.03104237      -0.12910232
Pt       9.82524821       5.67261065      22.29206806        3       0.00000000       0.07184985      -0.03860396      -0.13561095
Pt      -0.00000053       1.62074569      24.58417386        2       0.00000000       0.01002967      -0.00455065      -0.08808231
Pt       2.80721443       1.62074549      24.58417398        2       0.00000000      -0.50103378       0.28132430       0.27952433
Pt       5.61442778       1.62074537      24.58417377        2       0.00000000       0.49406451       0.29336187       0.27941319
Pt       1.40360637       4.05186439      24.58417390        2       0.00000000      -0.00086350       0.01133930      -0.08832464
Pt       4.21082088       4.05186403      24.58417379        2       0.00000000      -0.00147757      -0.12722385       0.26231840
Pt       7.01803504       4.05186408      24.58417406        2       0.00000000      -0.00922284      -0.00633249      -0.08841330
Pt       2.80721282       6.48298343      24.58417376        2       0.00000000      -0.10935308       0.06514233       0.26218861
Pt       5.61442796       6.48298325      24.58417391        2       0.00000000       0.11081937       0.06251269       0.26221010
Pt       8.42164222       6.48298341      24.58417381        2       0.00000000       0.00712783      -0.57451290       0.27909422
Pt      -0.00018964       0.00771332      26.89478520        1       0.00000000       0.00417299      -0.00487280       0.00394227
Pt       2.68328123      -0.07145099      27.18029103        1       0.00000000       0.01355960       0.01104145       0.00817233
Pt       5.73852544      -0.07122200      27.18028704        1       0.00000000      -0.01610417       0.00525330       0.00795333
Pt       1.39008719       2.44256547      26.89436490        1       0.00000000       0.00143131      -0.00284324       0.00612714
Pt       4.21072707       2.57447136      27.18021444        1       0.00000000       0.00305436      -0.01282321       0.00665376
Pt       7.03456472       2.43743230      26.89436521        1       0.00000000      -0.00315208       0.00014418       0.00613081
Pt       2.80086611       4.85851470      26.89475450        1       0.00000000       0.00183236       0.00612736       0.00408998
Pt       5.62103058       4.85886796      26.89476213        1       0.00000000      -0.00609912      -0.00120682       0.00407666
Pt       8.41870287       4.84514921      26.89440200        1       0.00000000       0.00184136       0.00260898       0.00619274
C        4.21087929       0.81086593      27.91226712        0       1.00000000      -0.00060223      -0.00413470      -0.02869390
H        4.21081032       0.81030560      25.35836673        0       0.00000000       0.00001548       0.00006878      -0.00554404
