38
Lattice="8.421641763931781 0.0 0.0 4.2108208819658905 7.293355709136913 0.0 0.0 0.0 46.87624170604845" Properties=species:S:1:pos:R:3:tags:I:1:initial_magmoms:R:1:forces:R:3 charge=0 spin=0 energy=-192.90342498501064 free_energy=-192.90342498501064 stress="0.010173289105296135 -9.914797516330509e-08 3.482547805688796e-09 -9.914797516330509e-08 0.010173273272812366 -2.883724370406071e-09 3.482547805688796e-09 -2.883724370406071e-09 -0.00016924973169807345" pbc="T T T"
Pt      -0.00000012       0.00000002      19.95723426        4       0.00000000       0.00166170       0.00412021       0.01723142
Pt       2.80721404      -0.00000018      19.95723442        4       0.00000000      -0.00275641       0.00230977       0.01648038
Pt       5.61442782      -0.00000007      19.95723448        4       0.00000000      -0.00000045       0.00000409       0.01524890
Pt       1.40360721       2.43111841      19.95723428        4       0.00000000      -0.00000036       0.00000028      -0.01117938
Pt       4.21082083       2.43111835      19.95723436        4       0.00000000      -0.00439218      -0.00061851       0.01722745
Pt       7.01803478       2.43111845      19.95723424        4       0.00000000       0.00337724       0.00123602       0.01650025
Pt       2.80721407       4.86223728      19.95723400        4       0.00000000      -0.00062228      -0.00354542       0.01652438
Pt       5.61442803       4.86223733      19.95723419        4       0.00000000      -0.00000194      -0.00000304       0.01381194
Pt       8.42164139       4.86223726      19.95723434        4       0.00000000       0.00273580      -0.00350492       0.01723558
Pt       1.40360728       0.81037259      22.29206791        3       0.00000000      -0.00098716       0.00575165      -0.04118412
Pt       4.21082130       0.81037249      22.29206784        3       0.00000000       0.00201150      -0.00290209      -0.05267964
Pt       7.01803471       0.81037256      22.29206781        3       0.00000000      -0.00351577      -0.00031709      -0.05268414
Pt       2.80721448       3.24149124      22.29206773        3       0.00000000      -0.00450837      -0.00368760      -0.04117235
Pt       5.61442763       3.24149123      22.29206786        3       0.00000000      -0.00042072       0.00108736      -0.05159760
Pt       8.42164156       3.24149129      22.29206804        3       0.00000000       0.00548906      -0.00205543      -0.04119528
Pt       4.21082092       5.67260997      22.29206793        3       0.00000000       0.00116325      -0.00014801      -0.05159372
Pt       7.01803487       5.67261037      22.29206776        3       0.00000000      -0.00074686      -0.00093882      -0.05161059
Pt       9.82524821       5.67261065      22.29206806        3       0.00000000       0.00151286       0.00321501      -0.05268763
Pt      -0.00000053       1.62074569      24.58417386        2       0.00000000       0.00244456       0.00534883       0.01950383
Pt       2.80721443       1.62074549      24.58417398        2       0.00000000      -0.00586344      -0.00060286       0.01946362
Pt       5.61442778       1.62074537      24.58417377        2       0.00000000       0.00588843      -0.00125634       0.04080071
Pt       1.40360637       4.05186439      24.58417390        2       0.00000000       0.00342499      -0.00476528       0.01938589
Pt       4.21082088       4.05186403      24.58417379        2       0.00000000      -0.00357717      -0.00128357       0.03838074
Pt       7.01803504       4.05186408      24.58417406        2       0.00000000       0.00287888      -0.00249431       0.03841303
Pt       2.80721282       6.48298343      24.58417376        2       0.00000000      -0.00396854      -0.00444051       0.04079048
Pt       5.61442796       6.48298325      24.58417391        2       0.00000000       0.00070010       0.00376002       0.03847045
Pt       8.42164222       6.48298341      24.58417381        2       0.00000000      -0.00192197       0.00572973       0.04078422
Pt      -0.00711021       0.00949080      26.91885513        1       0.00000000      -0.00027231      -0.00358152       0.00076800
Pt       2.81315052       0.01041496      26.91898162        1       0.00000000      -0.00200080      -0.00143203       0.00106333
Pt       5.61442876      -0.00000213      26.91834604        1       0.00000000       0.00001183      -0.00000810       0.00809858
Pt       1.40360614       2.43112036      26.91804256        1       0.00000000      -0.00001399       0.00000729       0.00909349
Pt       4.20616409       2.42019879      26.91885528        1       0.00000000       0.00318338       0.00158716       0.00079046
Pt       7.02406775       2.42076840      26.91896730        1       0.00000000      -0.00017607       0.00248442       0.00103329
Pt       2.79524398       4.86217222      26.91895726        1       0.00000000       0.00217230      -0.00105494       0.00110600
Pt       5.61442764       4.86223734      26.90598126        1       0.00000000       0.00000060      -0.00000057      -0.00328692
Pt       8.43340927       4.86366634      26.91883229        1       0.00000000      -0.00290924       0.00199931       0.00085742
C        5.61442784       4.86223745      29.93871745        0       1.00000000      -0.00000114       0.00000079      -0.01287969
H        5.61442807       4.86223730      28.76194056        0       0.00000000       0.00000092      -0.00000078       0.01468707
