38
Lattice="8.421641763931781 0.0 0.0 4.2108208819658905 7.293355709136913 0.0 0.0 0.0 46.87624170604845" Properties=species:S:1:pos:R:3:tags:I:1:initial_magmoms:R:1:forces:R:3 charge=0 spin=0 energy=-198.04618240078213 free_energy=-198.04618240078213 stress="0.007551900111138821 -0.0004112017049919814 5.1500770496204495e-05 -0.0004112017049919814 0.00779833784326911 5.448360025184229e-05 5.1500770496204495e-05 5.448360025184229e-05 -0.0007643089047633111" pbc="T T T"
Pt      -0.00000012       0.00000002      19.95723426        4       0.00000000      -0.00307258       0.00273421       0.00954980
Pt       2.80721404      -0.00000018      19.95723442        4       0.00000000       0.00614878       0.03606730      -0.01529758
Pt       5.61442782      -0.00000007      19.95723448        4       0.00000000       0.01033327      -0.00114896      -0.01277365
Pt       1.40360721       2.43111841      19.95723428        4       0.00000000       0.00838412      -0.01216855       0.00081817
Pt       4.21082083       2.43111835      19.95723436        4       0.00000000      -0.00248729       0.00899004      -0.01129488
Pt       7.01803478       2.43111845      19.95723424        4       0.00000000      -0.00408625      -0.00541126       0.01977060
Pt       2.80721407       4.86223728      19.95723400        4       0.00000000      -0.00314763      -0.00631596       0.01084325
Pt       5.61442803       4.86223733      19.95723419        4       0.00000000       0.00256487      -0.00420212       0.01442585
Pt       8.42164139       4.86223726      19.95723434        4       0.00000000       0.00617753      -0.00378371       0.02497294
Pt       1.40360728       0.81037259      22.29206791        3       0.00000000       0.06649760      -0.03249486      -0.18513802
Pt       4.21082130       0.81037249      22.29206784        3       0.00000000      -0.00311951      -0.01316007      -0.27257273
Pt       7.01803471       0.81037256      22.29206781        3       0.00000000      -0.01405920      -0.00201203      -0.05258358
Pt       2.80721448       3.24149124      22.29206773        3       0.00000000       0.01201992      -0.04042950      -0.09182948
Pt       5.61442763       3.24149123      22.29206786        3       0.00000000      -0.02828931      -0.02646619      -0.07951184
Pt       8.42164156       3.24149129      22.29206804        3       0.00000000       0.01968413      -0.01004837       0.01650262
Pt       4.21082092       5.67260997      22.29206793        3       0.00000000       0.01583866       0.00431895      -0.08079813
Pt       7.01803487       5.67261037      22.29206776        3       0.00000000       0.00690659       0.11177875      -0.20345406
Pt       9.82524821       5.67261065      22.29206806        3       0.00000000      -0.02079940       0.01644962      -0.07746983
Pt      -0.00000053       1.62074569      24.58417386        2       0.00000000      -0.10815550       0.14015625       0.24420123
Pt       2.80721443       1.62074549      24.58417398        2       0.00000000      -0.09777091       0.09565154       0.12875395
Pt       5.61442778       1.62074537      24.58417377        2       0.00000000       0.16214038       0.05631584       0.17344865
Pt       1.40360637       4.05186439      24.58417390        2       0.00000000      -0.10309178      -0.04255348       0.15793194
Pt       4.21082088       4.05186403      24.58417379        2       0.00000000      -0.02330308      -0.00341353      -0.04584994
Pt       7.01803504       4.05186408      24.58417406        2       0.00000000       0.12974338      -0.19480053       0.20734939
Pt       2.80721282       6.48298343      24.58417376        2       0.00000000       0.00205967       0.07952395      -0.09862672
Pt       5.61442796       6.48298325      24.58417391        2       0.00000000      -0.05690091       0.01058744       0.01904335
Pt       8.42164222       6.48298341      24.58417381        2       0.00000000      -0.01776924      -0.12022808       0.17531492
Pt      -0.03702630       0.03975334      26.90700707        1       0.00000000       0.02489175      -0.01066406       0.00171387
Pt       2.79155796       0.01550480      26.90172559        1       0.00000000      -0.00545085       0.01677303      -0.01284303
Pt       5.61209496       0.02225759      26.87999402        1       0.00000000      -0.02805944       0.00526537       0.01038733
Pt       1.48213573       2.39779491      27.00751358        1       0.00000000       0.01174774      -0.00220381      -0.00257595
Pt       4.17865326       2.43708342      26.91710307        1       0.00000000       0.04104627      -0.01377938      -0.00280006
Pt       6.80785604       2.30529502      27.59133180        1       0.00000000      -0.00196683       0.03385629      -0.02121067
Pt       2.83393440       4.90647332      26.88337246        1       0.00000000       0.01073472      -0.01751058       0.00776256
Pt       5.58132590       4.91857486      26.96882489        1       0.00000000       0.00308932      -0.02202328       0.02493123
Pt       8.43505533       5.00151020      27.07106394        1       0.00000000       0.00651080      -0.00604092       0.02306688
C        8.43460218       3.25972266      27.85430250        0       1.00000000      -0.02020438      -0.00144737      -0.00775363
H        6.52108425       3.51659787      26.23272247        0       0.00000000      -0.00478549      -0.02616183       0.00359494
