38
Lattice="8.421641763931781 0.0 0.0 4.2108208819658905 7.293355709136913 0.0 0.0 0.0 46.87624170604845" Properties=species:S:1:pos:R:3:tags:I:1:initial_magmoms:R:1:forces:R:3 charge=0 spin=0 energy=-192.90323425014736 free_energy=-192.90323425014736 stress="0.010190206579864025 -8.630161829614735e-08 -8.124997208369678e-08 -8.630161829614735e-08 0.01019020564854145 3.368985446172701e-08 -8.124997208369678e-08 3.368985446172701e-08 -0.00012904522009193897" pbc="T T T"
Pt      -0.00000012       0.00000002      19.95723426        4       0.00000000       0.00152895       0.00405245       0.01719160
Pt       2.80721404      -0.00000018      19.95723442        4       0.00000000      -0.00270661       0.00219444       0.01643176
Pt       5.61442782      -0.00000007      19.95723448        4       0.00000000      -0.00000022       0.00000370       0.01529283
Pt       1.40360721       2.43111841      19.95723428        4       0.00000000      -0.00000150       0.00000130      -0.01063082
Pt       4.21082083       2.43111835      19.95723436        4       0.00000000      -0.00426653      -0.00069978       0.01718413
Pt       7.01803478       2.43111845      19.95723424        4       0.00000000       0.00325393       0.00125091       0.01645118
Pt       2.80721407       4.86223728      19.95723400        4       0.00000000      -0.00054800      -0.00344579       0.01647589
Pt       5.61442803       4.86223733      19.95723419        4       0.00000000      -0.00000220      -0.00000423       0.01358754
Pt       8.42164139       4.86223726      19.95723434        4       0.00000000       0.00274401      -0.00335614       0.01719541
Pt       1.40360728       0.81037259      22.29206791        3       0.00000000      -0.00099459       0.00527253      -0.04063959
Pt       4.21082130       0.81037249      22.29206784        3       0.00000000       0.00227035      -0.00298772      -0.05267412
Pt       7.01803471       0.81037256      22.29206781        3       0.00000000      -0.00372214      -0.00049735      -0.05267542
Pt       2.80721448       3.24149124      22.29206773        3       0.00000000      -0.00408815      -0.00345680      -0.04062814
Pt       5.61442763       3.24149123      22.29206786        3       0.00000000      -0.00039567       0.00102093      -0.05218874
Pt       8.42164156       3.24149129      22.29206804        3       0.00000000       0.00507620      -0.00180980      -0.04064418
Pt       4.21082092       5.67260997      22.29206793        3       0.00000000       0.00109602      -0.00014174      -0.05217938
Pt       7.01803487       5.67261037      22.29206776        3       0.00000000      -0.00070774      -0.00088303      -0.05219325
Pt       9.82524821       5.67261065      22.29206806        3       0.00000000       0.00145791       0.00348572      -0.05266767
Pt      -0.00000053       1.62074569      24.58417386        2       0.00000000       0.00455338       0.00634260       0.03069193
Pt       2.80721443       1.62074549      24.58417398        2       0.00000000      -0.00776746       0.00074043       0.03067105
Pt       5.61442778       1.62074537      24.58417377        2       0.00000000       0.00625425      -0.00438085       0.04780878
Pt       1.40360637       4.05186439      24.58417390        2       0.00000000       0.00319634      -0.00707612       0.03060183
Pt       4.21082088       4.05186403      24.58417379        2       0.00000000      -0.00989632      -0.00508165       0.02806320
Pt       7.01803504       4.05186408      24.58417406        2       0.00000000       0.00937071      -0.00605451       0.02808548
Pt       2.80721282       6.48298343      24.58417376        2       0.00000000      -0.00686805      -0.00320346       0.04775692
Pt       5.61442796       6.48298325      24.58417391        2       0.00000000       0.00057068       0.01113338       0.02812289
Pt       8.42164222       6.48298341      24.58417381        2       0.00000000       0.00061880       0.00757811       0.04778769
Pt      -0.00643666       0.00764314      26.91954822        1       0.00000000      -0.00833706       0.01182444      -0.00228167
Pt       2.81175191       0.00923173      26.91970283        1       0.00000000       0.00873546       0.01161989      -0.00209274
Pt       5.61443326       0.00000249      26.92090433        1       0.00000000      -0.00000046      -0.00000682      -0.00563542
Pt       1.40360478       2.43112000      26.92174206        1       0.00000000       0.00001048      -0.00000165      -0.01017022
Pt       4.20741781       2.42171309      26.91956179        1       0.00000000      -0.00607586      -0.01314796      -0.00229734
Pt       7.02375774       2.42258546      26.91969255        1       0.00000000       0.00569828      -0.01337038      -0.00210911
Pt       2.79696287       4.86154331      26.91968767        1       0.00000000      -0.01444026       0.00175436      -0.00210281
Pt       5.61443716       4.86223607      26.90105474        1       0.00000000       0.00002395      -0.00000819       0.04235977
Pt       8.43148738       4.86400256      26.91955974        1       0.00000000       0.01442986       0.00131709      -0.00227073
C        5.61454011       4.86219064      29.94204125        0       1.00000000       0.00035111      -0.00012448      -0.03602976
H        5.61426812       4.86228683      28.76467382        0       0.00000000      -0.00042163       0.00014605       0.02035096
