38
Lattice="8.421641763931781 0.0 0.0 4.2108208819658905 7.293355709136913 0.0 0.0 0.0 46.87624170604845" Properties=species:S:1:pos:R:3:tags:I:1:initial_magmoms:R:1:forces:R:3 charge=0 spin=0 energy=-192.90322852810147 free_energy=-192.90322852810147 stress="0.0101902075111866 -1.0476163225803248e-07 -1.6419132720102425e-08 -1.0476163225803248e-07 0.010190197266638279 8.58859827701508e-09 -1.6419132720102425e-08 8.58859827701508e-09 -0.0001290165091631934" pbc="T T T"
Pt      -0.00000012       0.00000002      19.95723426        4       0.00000000       0.00325698       0.00124914       0.01645059
Pt       2.80721404      -0.00000018      19.95723442        4       0.00000000      -0.00000131       0.00000280      -0.01064087
Pt       5.61442782      -0.00000007      19.95723448        4       0.00000000      -0.00426951      -0.00069810       0.01717483
Pt       1.40360721       2.43111841      19.95723428        4       0.00000000       0.00274202      -0.00335022       0.01719643
Pt       4.21082083       2.43111835      19.95723436        4       0.00000000      -0.00054715      -0.00344029       0.01647589
Pt       7.01803478       2.43111845      19.95723424        4       0.00000000      -0.00000132       0.00000067       0.01358760
Pt       2.80721407       4.86223728      19.95723400        4       0.00000000       0.00000145      -0.00000362       0.01530240
Pt       5.61442803       4.86223733      19.95723419        4       0.00000000       0.00152508       0.00404963       0.01719206
Pt       8.42164139       4.86223726      19.95723434        4       0.00000000      -0.00270349       0.00218737       0.01644130
Pt       1.40360728       0.81037259      22.29206791        3       0.00000000       0.00506866      -0.00180738      -0.04064178
Pt       4.21082130       0.81037249      22.29206784        3       0.00000000      -0.00408162      -0.00345144      -0.04062407
Pt       7.01803471       0.81037256      22.29206781        3       0.00000000      -0.00039529       0.00102372      -0.05218757
Pt       2.80721448       3.24149124      22.29206773        3       0.00000000       0.00144510       0.00349779      -0.05266910
Pt       5.61442763       3.24149123      22.29206786        3       0.00000000       0.00110122      -0.00014433      -0.05218183
Pt       8.42164156       3.24149129      22.29206804        3       0.00000000      -0.00070068      -0.00087667      -0.05219942
Pt       4.21082092       5.67260997      22.29206793        3       0.00000000      -0.00372479      -0.00049911      -0.05267533
Pt       7.01803487       5.67261037      22.29206776        3       0.00000000      -0.00099375       0.00526286      -0.04063640
Pt       9.82524821       5.67261065      22.29206806        3       0.00000000       0.00228013      -0.00300651      -0.05267354
Pt      -0.00000053       1.62074569      24.58417386        2       0.00000000       0.00936806      -0.00605324       0.02808243
Pt       2.80721443       1.62074549      24.58417398        2       0.00000000       0.00319426      -0.00707228       0.03060717
Pt       5.61442778       1.62074537      24.58417377        2       0.00000000      -0.00991063      -0.00508870       0.02805565
Pt       1.40360637       4.05186439      24.58417390        2       0.00000000       0.00063098       0.00758820       0.04777452
Pt       4.21082088       4.05186403      24.58417379        2       0.00000000      -0.00687970      -0.00319446       0.04777015
Pt       7.01803504       4.05186408      24.58417406        2       0.00000000       0.00056747       0.01114799       0.02811953
Pt       2.80721282       6.48298343      24.58417376        2       0.00000000       0.00625192      -0.00439256       0.04780450
Pt       5.61442796       6.48298325      24.58417391        2       0.00000000       0.00455266       0.00633283       0.03069628
Pt       8.42164222       6.48298341      24.58417381        2       0.00000000      -0.00777100       0.00073447       0.03067574
Pt       0.00571953      -0.00853255      26.91968960        1       0.00000000       0.00569618      -0.01336916      -0.00211121
Pt       2.80720911       0.00000160      26.92174347        1       0.00000000       0.00000725      -0.00000191      -0.01017512
Pt       5.61102133      -0.00940580      26.91956400        1       0.00000000      -0.00607954      -0.01314306      -0.00229951
Pt       1.41344907       2.43288452      26.91955653        1       0.00000000       0.01442309       0.00131877      -0.00227667
Pt       4.20056536       2.43042417      26.91969113        1       0.00000000      -0.01443574       0.00175317      -0.00209662
Pt       7.01803404       2.43111919      26.90105147        1       0.00000000       0.00000674      -0.00000099       0.04239134
Pt       2.80721642       4.86223991      26.92090408        1       0.00000000      -0.00000137      -0.00000784      -0.00563758
Pt       5.60798820       4.86988195      26.91955145        1       0.00000000      -0.00833972       0.01182404      -0.00228172
Pt       8.42617657       4.87146901      26.91970274        1       0.00000000       0.00872918       0.01161982      -0.00209539
C        7.01806945       2.43109712      29.94204347        0       1.00000000       0.00007909      -0.00004834      -0.03607505
H        7.01800744       2.43113546      28.76467324        0       0.00000000      -0.00009090       0.00005702       0.02038018
