38
Lattice="8.421641763931781 0.0 0.0 4.2108208819658905 7.293355709136913 0.0 0.0 0.0 46.87624170604845" Properties=species:S:1:pos:R:3:tags:I:1:initial_magmoms:R:1:forces:R:3 charge=0 spin=0 energy=-197.5084836550546 free_energy=-197.5084836550546 stress="0.009098675101995468 -1.6399702928993065e-07 7.422692460679059e-10 -1.6399702928993065e-07 0.009098626673221588 5.867385155511329e-08 7.422692460679059e-10 5.867385155511329e-08 -0.0007911792490631342" pbc="T T T"
Pt      -0.00000012       0.00000002      19.95723426        4       0.00000000      -0.00025872      -0.00618036       0.02226578
Pt       2.80721404      -0.00000018      19.95723442        4       0.00000000       0.00856031      -0.00382033       0.01935720
Pt       5.61442782      -0.00000007      19.95723448        4       0.00000000      -0.00756843      -0.00546900       0.01930251
Pt       1.40360721       2.43111841      19.95723428        4       0.00000000       0.00548884       0.00282053       0.02235212
Pt       4.21082083       2.43111835      19.95723436        4       0.00000000       0.00277023       0.02442177      -0.03705246
Pt       7.01803478       2.43111845      19.95723424        4       0.00000000      -0.00522989       0.00336237       0.02250588
Pt       2.80721407       4.86223728      19.95723400        4       0.00000000       0.01975821      -0.01461893      -0.03709619
Pt       5.61442803       4.86223733      19.95723419        4       0.00000000      -0.02252560      -0.00980614      -0.03688098
Pt       8.42164139       4.86223726      19.95723434        4       0.00000000      -0.00099416       0.00929283       0.01955858
Pt       1.40360728       0.81037259      22.29206791        3       0.00000000       0.02444789      -0.00784661      -0.01864154
Pt       4.21082130       0.81037249      22.29206784        3       0.00000000       0.00024824       0.10218199      -0.15139899
Pt       7.01803471       0.81037256      22.29206781        3       0.00000000      -0.01906382      -0.01720535      -0.01857467
Pt       2.80721448       3.24149124      22.29206773        3       0.00000000       0.04277902       0.02411680      -0.19443184
Pt       5.61442763       3.24149123      22.29206786        3       0.00000000      -0.04238208       0.02488372      -0.19430012
Pt       8.42164156       3.24149129      22.29206804        3       0.00000000      -0.00537852       0.02505464      -0.01807417
Pt       4.21082092       5.67260997      22.29206793        3       0.00000000      -0.00040183      -0.04899920      -0.19458993
Pt       7.01803487       5.67261037      22.29206776        3       0.00000000      -0.08869755      -0.05081661      -0.15105422
Pt       9.82524821       5.67261065      22.29206806        3       0.00000000       0.08844527      -0.05136548      -0.15111539
Pt      -0.00000053       1.62074569      24.58417386        2       0.00000000       0.00000143       0.00004034       0.02687822
Pt       2.80721443       1.62074549      24.58417398        2       0.00000000       0.01912855      -0.25230783       0.32897174
Pt       5.61442778       1.62074537      24.58417377        2       0.00000000      -0.02442286      -0.25275505       0.33159640
Pt       1.40360637       4.05186439      24.58417390        2       0.00000000      -0.20641431       0.14750129       0.33099207
Pt       4.21082088       4.05186403      24.58417379        2       0.00000000      -0.00000392      -0.00003376      -0.23465809
Pt       7.01803504       4.05186408      24.58417406        2       0.00000000       0.20879717       0.14277932       0.32871988
Pt       2.80721282       6.48298343      24.58417376        2       0.00000000      -0.22791545       0.10952261       0.32902187
Pt       5.61442796       6.48298325      24.58417391        2       0.00000000       0.23082413       0.10525605       0.33137572
Pt       8.42164222       6.48298341      24.58417381        2       0.00000000       0.00002810       0.00003181      -0.64007902
Pt       0.00079887      -0.00594844      26.90733353        1       0.00000000       0.00213313       0.00741840      -0.01672765
Pt       2.71895909       0.05573534      27.29537910        1       0.00000000      -0.00349008      -0.00095230      -0.00394668
Pt       5.70684942       0.04859655      27.29539042        1       0.00000000       0.00099517       0.00354487      -0.00403472
Pt       1.40838213       2.43475282      26.90737874        1       0.00000000      -0.00751377      -0.00181527      -0.01677495
Pt       4.21066726       2.45822266      26.90279060        1       0.00000000       0.00450971      -0.01670575      -0.00139177
Pt       7.01248850       2.43344501      26.90736169        1       0.00000000       0.00538834      -0.00553561      -0.01674807
Pt       2.83074488       4.84878946      26.90275234        1       0.00000000      -0.01674560       0.00446396      -0.00137170
Pt       5.59101697       4.84858734      26.90273863        1       0.00000000       0.01221775       0.01223730      -0.00133083
Pt       8.41752404       4.75794651      27.29537751        1       0.00000000       0.00257521      -0.00279516      -0.00404973
C        8.42167039       6.48298974      28.18021279        0       1.00000000      -0.00002894       0.00015661      -0.00923212
H        8.42158954       6.48292075      26.17534028        0       0.00000000      -0.00006115      -0.00005838       0.02065800
