38
Lattice="8.421641763931781 0.0 0.0 4.2108208819658905 7.293355709136913 0.0 0.0 0.0 46.87624170604845" Properties=species:S:1:pos:R:3:tags:I:1:initial_magmoms:R:1:forces:R:3 charge=0 spin=0 energy=-197.93990684231045 free_energy=-197.93990684231045 stress="0.007024712860584259 1.3043593760642125e-08 1.525898909449097e-07 1.3043593760642125e-08 0.007021172437816858 1.0105060255227727e-06 1.525898909449097e-07 1.0105060255227727e-06 -0.0010911617428064346" pbc="T T T"
Pt      -0.00000012       0.00000002      19.95723426        4       0.00000000       0.00668219      -0.00516014       0.01826395
Pt       2.80721404      -0.00000018      19.95723442        4       0.00000000      -0.00146131      -0.00883570      -0.02591450
Pt       5.61442782      -0.00000007      19.95723448        4       0.00000000      -0.00777229      -0.00315380       0.01829478
Pt       1.40360721       2.43111841      19.95723428        4       0.00000000      -0.00052887      -0.00436760       0.01452044
Pt       4.21082083       2.43111835      19.95723436        4       0.00000000       0.00401083       0.00169887       0.01464814
Pt       7.01803478       2.43111845      19.95723424        4       0.00000000       0.00109404       0.00828001       0.01820213
Pt       2.80721407       4.86223728      19.95723400        4       0.00000000      -0.00347891       0.00262516       0.01469686
Pt       5.61442803       4.86223733      19.95723419        4       0.00000000       0.00841670       0.00310712      -0.02581015
Pt       8.42164139       4.86223726      19.95723434        4       0.00000000      -0.00695523       0.00570955      -0.02590196
Pt       1.40360728       0.81037259      22.29206791        3       0.00000000       0.05983433      -0.04182548      -0.12952659
Pt       4.21082130       0.81037249      22.29206784        3       0.00000000      -0.06923182      -0.04293137      -0.13595553
Pt       7.01803471       0.81037256      22.29206781        3       0.00000000      -0.00000182      -0.00003787      -0.22470595
Pt       2.80721448       3.24149124      22.29206773        3       0.00000000      -0.00001309      -0.00003492      -0.11084390
Pt       5.61442763       3.24149123      22.29206786        3       0.00000000       0.00620754       0.07274249      -0.12942815
Pt       8.42164156       3.24149129      22.29206804        3       0.00000000      -0.00263532       0.08140811      -0.13577008
Pt       4.21082092       5.67260997      22.29206793        3       0.00000000       0.07184281      -0.03859126      -0.13561317
Pt       7.01803487       5.67261037      22.29206776        3       0.00000000      -0.00000119      -0.00000757      -0.26908034
Pt       9.82524821       5.67261065      22.29206806        3       0.00000000      -0.06603776      -0.03104735      -0.12910493
Pt      -0.00000053       1.62074569      24.58417386        2       0.00000000       0.49405533       0.29335156       0.27941507
Pt       2.80721443       1.62074549      24.58417398        2       0.00000000       0.01001917      -0.00454758      -0.08807562
Pt       5.61442778       1.62074537      24.58417377        2       0.00000000      -0.50102264       0.28131953       0.27953130
Pt       1.40360637       4.05186439      24.58417390        2       0.00000000      -0.00921619      -0.00633988      -0.08840664
Pt       4.21082088       4.05186403      24.58417379        2       0.00000000      -0.00087758       0.01134430      -0.08831555
Pt       7.01803504       4.05186408      24.58417406        2       0.00000000      -0.00148398      -0.12722608       0.26231441
Pt       2.80721282       6.48298343      24.58417376        2       0.00000000       0.00714479      -0.57451159       0.27909631
Pt       5.61442796       6.48298325      24.58417391        2       0.00000000      -0.10937391       0.06514391       0.26218233
Pt       8.42164222       6.48298341      24.58417381        2       0.00000000       0.11081435       0.06251286       0.26222283
Pt       0.12409230      -0.07122561      27.18028535        1       0.00000000      -0.01616445       0.00530101       0.00797869
Pt       2.80701730       0.00771052      26.89478565        1       0.00000000       0.00418808      -0.00486506       0.00394231
Pt       5.49048774      -0.07145372      27.18030038        1       0.00000000       0.01353108       0.01102795       0.00814951
Pt       1.42013408       2.43743073      26.89436729        1       0.00000000      -0.00316189       0.00014692       0.00612096
Pt       4.19729823       2.44256296      26.89436645        1       0.00000000       0.00141652      -0.00284019       0.00612339
Pt       7.01793105       2.57446940      27.18021070        1       0.00000000       0.00309501      -0.01284681       0.00666512
Pt       2.80427030       4.84515063      26.89440427        1       0.00000000       0.00183980       0.00259655       0.00618452
Pt       5.60807544       4.85851123      26.89475521        1       0.00000000       0.00182225       0.00614191       0.00409180
Pt       8.42823833       4.85886859      26.89476201        1       0.00000000      -0.00609529      -0.00122360       0.00407452
C        7.01808306       0.81086474      27.91226923        0       1.00000000      -0.00051760      -0.00413668      -0.02871561
H        7.01802280       0.81030279      25.35836700        0       0.00000000       0.00001639       0.00007261      -0.00555060
