38
Lattice="8.421641763931781 0.0 0.0 4.2108208819658905 7.293355709136913 0.0 0.0 0.0 46.87624170604845" Properties=species:S:1:pos:R:3:tags:I:1:initial_magmoms:R:1:forces:R:3 charge=0 spin=0 energy=-197.93952346523525 free_energy=-197.93952346523525 stress="0.007036874070763588 -1.3956494058220414e-06 -1.1023420256606187e-06 -1.3956494058220414e-06 0.007045498583465815 -3.3814101243478945e-06 -1.1023420256606187e-06 -3.3814101243478945e-06 -0.0010360137093812227" pbc="T T T"
Pt      -0.00000012       0.00000002      19.95723426        4       0.00000000      -0.00376528       0.00257425       0.01477931
Pt       2.80721404      -0.00000018      19.95723442        4       0.00000000       0.00844947       0.00311599      -0.02560447
Pt       5.61442782      -0.00000007      19.95723448        4       0.00000000      -0.00698307       0.00575521      -0.02566115
Pt       1.40360721       2.43111841      19.95723428        4       0.00000000       0.00664355      -0.00504880       0.01822730
Pt       4.21082083       2.43111835      19.95723436        4       0.00000000      -0.00147873      -0.00889784      -0.02558201
Pt       7.01803478       2.43111845      19.95723424        4       0.00000000      -0.00765985      -0.00316658       0.01826469
Pt       2.80721407       4.86223728      19.95723400        4       0.00000000      -0.00033111      -0.00455665       0.01463965
Pt       5.61442803       4.86223733      19.95723419        4       0.00000000       0.00410766       0.00201828       0.01474712
Pt       8.42164139       4.86223726      19.95723434        4       0.00000000       0.00101507       0.00821442       0.01815809
Pt       1.40360728       0.81037259      22.29206791        3       0.00000000       0.07189212      -0.03847679      -0.13669360
Pt       4.21082130       0.81037249      22.29206784        3       0.00000000      -0.00003222      -0.00007259      -0.27012518
Pt       7.01803471       0.81037256      22.29206781        3       0.00000000      -0.06678828      -0.03085081      -0.12894119
Pt       2.80721448       3.24149124      22.29206773        3       0.00000000       0.06005903      -0.04245794      -0.12943237
Pt       5.61442763       3.24149123      22.29206786        3       0.00000000      -0.06914025      -0.04290647      -0.13709545
Pt       8.42164156       3.24149129      22.29206804        3       0.00000000       0.00001132       0.00004706      -0.22581066
Pt       4.21082092       5.67260997      22.29206793        3       0.00000000      -0.00000124       0.00000213      -0.10972995
Pt       7.01803487       5.67261037      22.29206776        3       0.00000000       0.00668813       0.07336184      -0.12935147
Pt       9.82524821       5.67261065      22.29206806        3       0.00000000      -0.00267002       0.08139048      -0.13698645
Pt      -0.00000053       1.62074569      24.58417386        2       0.00000000       0.00689351      -0.57242846       0.29366991
Pt       2.80721443       1.62074549      24.58417398        2       0.00000000      -0.10868890       0.06838554       0.26654285
Pt       5.61442778       1.62074537      24.58417377        2       0.00000000       0.11371531       0.05968254       0.26681679
Pt       1.40360637       4.05186439      24.58417390        2       0.00000000       0.49187735       0.29170430       0.29391623
Pt       4.21082088       4.05186403      24.58417379        2       0.00000000       0.00796390      -0.00106505      -0.07607837
Pt       7.01803504       4.05186408      24.58417406        2       0.00000000      -0.49881032       0.28022799       0.29418802
Pt       2.80721282       6.48298343      24.58417376        2       0.00000000      -0.00500195      -0.00634840      -0.07645722
Pt       5.61442796       6.48298325      24.58417391        2       0.00000000      -0.00289042       0.00765620      -0.07620896
Pt       8.42164222       6.48298341      24.58417381        2       0.00000000      -0.00521766      -0.12812586       0.26578346
Pt      -0.00064268      -0.01986656      26.90067690        1       0.00000000      -0.00851652       0.01500080      -0.01290250
Pt       2.79778645      -0.00035661      26.89458496        1       0.00000000       0.01540191      -0.01266540       0.00145600
Pt       5.61924842      -0.00817395      26.89445193        1       0.00000000       0.00507958       0.02272221       0.00174679
Pt       1.52821339       2.36248635      27.18464572        1       0.00000000       0.02936587      -0.01633489      -0.01463384
Pt       4.21524182       2.43925780      26.89428646        1       0.00000000      -0.01930432      -0.00679003       0.00195192
Pt       6.89651626       2.35750593      27.18467018        1       0.00000000      -0.03541240      -0.01942443      -0.01678575
Pt       2.82464927       4.87154622      26.90050248        1       0.00000000      -0.00891000      -0.01494499      -0.01233825
Pt       5.59754748       4.87268329      26.90062727        1       0.00000000       0.01728065      -0.00060798      -0.01269709
Pt       8.41865168       5.00495294      27.18455260        1       0.00000000       0.00049232       0.01890370      -0.00987007
C        8.42144346       3.24094391      27.91129839        0       1.00000000       0.00456182       0.01407978       0.01812828
H        8.42160614       3.24139449      25.36083410        0       0.00000000       0.00010425       0.00032735      -0.01403022
