38
Lattice="8.421641763931781 0.0 0.0 4.2108208819658905 7.293355709136913 0.0 0.0 0.0 46.87624170604845" Properties=species:S:1:pos:R:3:tags:I:1:initial_magmoms:R:1:forces:R:3 charge=0 spin=0 energy=-197.98927665432217 free_energy=-197.98927665432217 stress="0.007690426893532276 4.920922947349027e-05 -3.35626355081331e-05 4.920922947349027e-05 0.007383634336292744 9.403882722835988e-05 -3.35626355081331e-05 9.403882722835988e-05 -0.0007176367216743529" pbc="T T T"
Pt      -0.00000012       0.00000002      19.95723426        4       0.00000000       0.00698400      -0.01152255      -0.01379517
Pt       2.80721404      -0.00000018      19.95723442        4       0.00000000      -0.02108863      -0.00835110      -0.01376355
Pt       5.61442782      -0.00000007      19.95723448        4       0.00000000       0.00055959       0.00511116       0.01822802
Pt       1.40360721       2.43111841      19.95723428        4       0.00000000      -0.00085604       0.01022737      -0.01070960
Pt       4.21082083       2.43111835      19.95723436        4       0.00000000      -0.00467606      -0.00006653       0.02825715
Pt       7.01803478       2.43111845      19.95723424        4       0.00000000       0.00411284      -0.00269054       0.02626912
Pt       2.80721407       4.86223728      19.95723400        4       0.00000000       0.00502176      -0.00077683       0.00880668
Pt       5.61442803       4.86223733      19.95723419        4       0.00000000       0.00642072       0.02011742       0.00280900
Pt       8.42164139       4.86223726      19.95723434        4       0.00000000      -0.00119291      -0.00420718       0.00789934
Pt       1.40360728       0.81037259      22.29206791        3       0.00000000       0.00500372       0.00579605      -0.26166394
Pt       4.21082130       0.81037249      22.29206784        3       0.00000000      -0.07944787      -0.03672846      -0.14570244
Pt       7.01803471       0.81037256      22.29206781        3       0.00000000       0.06207984      -0.03107340      -0.12013783
Pt       2.80721448       3.24149124      22.29206773        3       0.00000000      -0.00867679      -0.02505300      -0.07338195
Pt       5.61442763       3.24149123      22.29206786        3       0.00000000       0.00121066       0.03892186      -0.01717149
Pt       8.42164156       3.24149129      22.29206804        3       0.00000000       0.01067566      -0.02352756      -0.06500023
Pt       4.21082092       5.67260997      22.29206793        3       0.00000000       0.02537220       0.03110634      -0.11145902
Pt       7.01803487       5.67261037      22.29206776        3       0.00000000      -0.01537350       0.04438557      -0.13662887
Pt       9.82524821       5.67261065      22.29206806        3       0.00000000      -0.00182084       0.00872666      -0.07615730
Pt      -0.00000053       1.62074569      24.58417386        2       0.00000000      -0.20406632       0.13668519       0.28077829
Pt       2.80721443       1.62074549      24.58417398        2       0.00000000       0.18749700       0.10444167       0.27583906
Pt       5.61442778       1.62074537      24.58417377        2       0.00000000       0.00364844       0.16180018      -0.15350975
Pt       1.40360637       4.05186439      24.58417390        2       0.00000000      -0.01207224      -0.02167501      -0.09422041
Pt       4.21082088       4.05186403      24.58417379        2       0.00000000       0.08290026      -0.09399293       0.20728639
Pt       7.01803504       4.05186408      24.58417406        2       0.00000000      -0.08585969      -0.13253567       0.24592218
Pt       2.80721282       6.48298343      24.58417376        2       0.00000000      -0.01426446       0.03087720       0.00708552
Pt       5.61442796       6.48298325      24.58417391        2       0.00000000      -0.01793888      -0.12311894       0.17886257
Pt       8.42164222       6.48298341      24.58417381        2       0.00000000       0.01399948       0.00814124       0.00524507
Pt      -0.00364301       0.01896496      26.90564901        1       0.00000000       0.00472771      -0.01345803      -0.00607645
Pt       2.80837648       0.00935847      26.90533009        1       0.00000000      -0.00107156       0.00535246      -0.00159086
Pt       5.59950193      -0.10953743      27.02226626        1       0.00000000       0.00164020       0.01261882      -0.01481082
Pt       1.40122755       2.44010692      26.89414232        1       0.00000000      -0.00334454      -0.03174439       0.00295601
Pt       4.08567754       2.40645409      27.19105350        1       0.00000000       0.01754594       0.00188922       0.00248178
Pt       7.15273494       2.39832217      27.31175585        1       0.00000000       0.04258351      -0.02230012       0.00635289
Pt       2.78718058       4.87326546      26.89222250        1       0.00000000      -0.00548667      -0.00979477       0.00015051
Pt       5.60710865       4.99825322      27.02322674        1       0.00000000      -0.00101751       0.00108927       0.01747909
Pt       8.42591852       4.85947463      26.89742272        1       0.00000000       0.00307094      -0.01580222      -0.00020809
C        5.59844943       3.33438030      27.93657194        0       1.00000000      -0.04605514       0.00059715      -0.00015606
H        5.76583576       1.53921372      26.32581624        0       0.00000000       0.03925498      -0.01946578      -0.00656482
