38
Lattice="8.421641763931781 0.0 0.0 4.2108208819658905 7.293355709136913 0.0 0.0 0.0 46.87624170604845" Properties=species:S:1:pos:R:3:tags:I:1:initial_magmoms:R:1:forces:R:3 charge=0 spin=0 energy=-197.93982673366787 free_energy=-197.93982673366787 stress="0.007027242332696915 -1.4955116967030335e-07 1.0892898139047702e-08 -1.4955116967030335e-07 0.0070273056626319885 -2.559510505761864e-07 1.0892898139047702e-08 -2.559510505761864e-07 -0.001059635658748448" pbc="T T T"
Pt      -0.00000012       0.00000002      19.95723426        4       0.00000000      -0.00700784       0.00573137      -0.02574934
Pt       2.80721404      -0.00000018      19.95723442        4       0.00000000      -0.00370014       0.00255687       0.01476546
Pt       5.61442782      -0.00000007      19.95723448        4       0.00000000       0.00845184       0.00316346      -0.02567239
Pt       1.40360721       2.43111841      19.95723428        4       0.00000000      -0.00768178      -0.00322688       0.01827461
Pt       4.21082083       2.43111835      19.95723436        4       0.00000000       0.00671081      -0.00502555       0.01823712
Pt       7.01803478       2.43111845      19.95723424        4       0.00000000      -0.00144319      -0.00889147      -0.02573772
Pt       2.80721407       4.86223728      19.95723400        4       0.00000000       0.00097653       0.00825212       0.01818318
Pt       5.61442803       4.86223733      19.95723419        4       0.00000000      -0.00034907      -0.00450345       0.01460887
Pt       8.42164139       4.86223726      19.95723434        4       0.00000000       0.00404768       0.00194082       0.01473370
Pt       1.40360728       0.81037259      22.29206791        3       0.00000000      -0.06604420      -0.03089446      -0.12884304
Pt       4.21082130       0.81037249      22.29206784        3       0.00000000       0.07157637      -0.03839384      -0.13648789
Pt       7.01803471       0.81037256      22.29206781        3       0.00000000       0.00000206       0.00000380      -0.26885036
Pt       2.80721448       3.24149124      22.29206773        3       0.00000000      -0.00000756       0.00000274      -0.22391130
Pt       5.61442763       3.24149123      22.29206786        3       0.00000000       0.05977007      -0.04184049      -0.12930222
Pt       8.42164156       3.24149129      22.29206804        3       0.00000000      -0.06895525      -0.04274053      -0.13688013
Pt       4.21082092       5.67260997      22.29206793        3       0.00000000      -0.00261729       0.08114494      -0.13668187
Pt       7.01803487       5.67261037      22.29206776        3       0.00000000      -0.00000186      -0.00000645      -0.11067758
Pt       9.82524821       5.67261065      22.29206806        3       0.00000000       0.00628589       0.07272743      -0.12919110
Pt      -0.00000053       1.62074569      24.58417386        2       0.00000000       0.10954236       0.05889312       0.26757926
Pt       2.80721443       1.62074549      24.58417398        2       0.00000000       0.00673276      -0.56730932       0.28544247
Pt       5.61442778       1.62074537      24.58417377        2       0.00000000      -0.10580885       0.06554870       0.26744977
Pt       1.40360637       4.05186439      24.58417390        2       0.00000000      -0.49456996       0.27797571       0.28574416
Pt       4.21082088       4.05186403      24.58417379        2       0.00000000       0.48798767       0.28934419       0.28558591
Pt       7.01803504       4.05186408      24.58417406        2       0.00000000       0.00766573      -0.00400692      -0.08012073
Pt       2.80721282       6.48298343      24.58417376        2       0.00000000      -0.00378386      -0.12445565       0.26744971
Pt       5.61442796       6.48298325      24.58417391        2       0.00000000      -0.00751599      -0.00481865      -0.08045197
Pt       8.42164222       6.48298341      24.58417381        2       0.00000000      -0.00028214       0.00884216      -0.08038307
Pt       0.00629496      -0.00652876      26.89688053        1       0.00000000      -0.00292368       0.01441120      -0.00371744
Pt       2.80751171      -0.01726702      26.89673847        1       0.00000000      -0.00946568       0.00154872      -0.00198412
Pt       5.60562722      -0.00215187      26.89685169        1       0.00000000       0.01401615      -0.00493607      -0.00362533
Pt       1.28050424       2.35776112      27.18118383        1       0.00000000      -0.00691921      -0.00287044      -0.00146543
Pt       4.33591215       2.36119038      27.18119274        1       0.00000000       0.00574170      -0.00444597      -0.00139983
Pt       7.02052283       2.43981494      26.89683787        1       0.00000000      -0.01098816      -0.00970572      -0.00373695
Pt       2.80523555       5.00552757      27.18118831        1       0.00000000       0.00085322       0.00739937      -0.00146179
Pt       5.62923170       4.87110968      26.89672773        1       0.00000000       0.00342092      -0.00895856      -0.00210642
Pt       8.40651295       4.87061554      26.89671161        1       0.00000000       0.00622984       0.00751473      -0.00207005
C        2.80721187       3.24148818      27.90897597        0       1.00000000       0.00005491       0.00003410       0.00195971
H        2.80721325       3.24149463      25.36173814        0       0.00000000      -0.00000073      -0.00000513      -0.01950578
