38
Lattice="8.421641763931781 0.0 0.0 4.2108208819658905 7.293355709136913 0.0 0.0 0.0 46.87624170604845" Properties=species:S:1:pos:R:3:tags:I:1:initial_magmoms:R:1:forces:R:3 charge=0 spin=0 energy=-197.50808692653897 free_energy=-197.50808692653897 stress="0.009057454764842987 -1.3533890808048454e-07 1.53371928490742e-08 -1.3533890808048454e-07 0.00905741099268198 5.5376155216890766e-08 1.53371928490742e-08 5.5376155216890766e-08 -0.0008545290911570191" pbc="T T T"
Pt      -0.00000012       0.00000002      19.95723426        4       0.00000000      -0.00743698      -0.00544410       0.01883725
Pt       2.80721404      -0.00000018      19.95723442        4       0.00000000      -0.00029993      -0.00597584       0.02190549
Pt       5.61442782      -0.00000007      19.95723448        4       0.00000000       0.00847149      -0.00372629       0.01888619
Pt       1.40360721       2.43111841      19.95723428        4       0.00000000      -0.00503596       0.00329321       0.02215730
Pt       4.21082083       2.43111835      19.95723436        4       0.00000000       0.00533490       0.00268741       0.02200278
Pt       7.01803478       2.43111845      19.95723424        4       0.00000000       0.00291272       0.02441042      -0.03720825
Pt       2.80721407       4.86223728      19.95723400        4       0.00000000      -0.00103033       0.00916927       0.01908877
Pt       5.61442803       4.86223733      19.95723419        4       0.00000000       0.01967372      -0.01473879      -0.03725662
Pt       8.42164139       4.86223726      19.95723434        4       0.00000000      -0.02258800      -0.00967708      -0.03704381
Pt       1.40360728       0.81037259      22.29206791        3       0.00000000      -0.01939010      -0.01737301      -0.01717306
Pt       4.21082130       0.81037249      22.29206784        3       0.00000000       0.02475788      -0.00803105      -0.01724837
Pt       7.01803471       0.81037256      22.29206781        3       0.00000000       0.00009770       0.10270296      -0.14903273
Pt       2.80721448       3.24149124      22.29206773        3       0.00000000      -0.00537703       0.02541451      -0.01668760
Pt       5.61442763       3.24149123      22.29206786        3       0.00000000       0.04261807       0.02395157      -0.19713326
Pt       8.42164156       3.24149129      22.29206804        3       0.00000000      -0.04214744       0.02482191      -0.19699456
Pt       4.21082092       5.67260997      22.29206793        3       0.00000000       0.08896752      -0.05148995      -0.14873289
Pt       7.01803487       5.67261037      22.29206776        3       0.00000000      -0.00045682      -0.04877874      -0.19725922
Pt       9.82524821       5.67261065      22.29206806        3       0.00000000      -0.08906658      -0.05122047      -0.14867966
Pt      -0.00000053       1.62074569      24.58417386        2       0.00000000      -0.03101292      -0.25980595       0.31787404
Pt       2.80721443       1.62074549      24.58417398        2       0.00000000       0.00000301      -0.00000742      -0.01355868
Pt       5.61442778       1.62074537      24.58417377        2       0.00000000       0.02800757      -0.25853583       0.31635067
Pt       1.40360637       4.05186439      24.58417390        2       0.00000000       0.20971727       0.15360549       0.31616202
Pt       4.21082088       4.05186403      24.58417379        2       0.00000000      -0.20916459       0.15680751       0.31734651
Pt       7.01803504       4.05186408      24.58417406        2       0.00000000      -0.00000912       0.00002448      -0.21586102
Pt       2.80721282       6.48298343      24.58417376        2       0.00000000       0.00001847      -0.00001087      -0.59254432
Pt       5.61442796       6.48298325      24.58417391        2       0.00000000      -0.23774490       0.10492375       0.31646118
Pt       8.42164222       6.48298341      24.58417381        2       0.00000000       0.24019891       0.10299180       0.31783140
Pt       0.09031521       0.05023396      27.29850545        1       0.00000000       0.03091836       0.01105740      -0.01025684
Pt       2.80752498      -0.00207541      26.89638141        1       0.00000000      -0.00239069      -0.01880847       0.01884607
Pt       5.52576926       0.05309623      27.29850360        1       0.00000000      -0.02502116       0.02124941      -0.01025078
Pt       1.40166977       2.43188461      26.89637608        1       0.00000000      -0.01506604       0.01164569       0.01896146
Pt       4.21246318       2.43242697      26.89638010        1       0.00000000       0.01759669       0.00717075       0.01895440
Pt       7.01983533       2.45091975      26.90115684        1       0.00000000      -0.00285474       0.03319576      -0.00318167
Pt       2.80556375       4.75890477      27.29850703        1       0.00000000      -0.00590201      -0.03230415      -0.01025591
Pt       5.63067807       4.85078401      26.90119201        1       0.00000000       0.03009263      -0.01428926      -0.00337168
Pt       8.40358951       4.85389769      26.90118553        1       0.00000000      -0.02738313      -0.01893368      -0.00335798
C       11.22885673       6.48298048      28.18219926        0       1.00000000       0.00000534       0.00003008       0.01093288
H       11.22884121       6.48297811      26.17950551        0       0.00000000      -0.00001372      -0.00000245      -0.02950989
