38
Lattice="8.421641763931781 0.0 0.0 4.2108208819658905 7.293355709136913 0.0 0.0 0.0 46.87624170604845" Properties=species:S:1:pos:R:3:tags:I:1:initial_magmoms:R:1:forces:R:3 charge=0 spin=0 energy=-197.98933387478115 free_energy=-197.98933387478115 stress="0.007682594005018473 4.0093818824971095e-05 -4.0066886867862195e-05 4.0093818824971095e-05 0.007365108467638493 0.00010031167039414868 -4.0066886867862195e-05 0.00010031167039414868 -0.0007315004477277398" pbc="T T T"
Pt      -0.00000012       0.00000002      19.95723426        4       0.00000000       0.00054228       0.00511981       0.01828530
Pt       2.80721404      -0.00000018      19.95723442        4       0.00000000       0.00698978      -0.01155855      -0.01388472
Pt       5.61442782      -0.00000007      19.95723448        4       0.00000000      -0.02113774      -0.00837387      -0.01381608
Pt       1.40360721       2.43111841      19.95723428        4       0.00000000       0.00408414      -0.00264331       0.02632173
Pt       4.21082083       2.43111835      19.95723436        4       0.00000000      -0.00084564       0.01021420      -0.01067959
Pt       7.01803478       2.43111845      19.95723424        4       0.00000000      -0.00466126      -0.00007538       0.02831735
Pt       2.80721407       4.86223728      19.95723400        4       0.00000000      -0.00116467      -0.00420484       0.00791421
Pt       5.61442803       4.86223733      19.95723419        4       0.00000000       0.00499370      -0.00074777       0.00878083
Pt       8.42164139       4.86223726      19.95723434        4       0.00000000       0.00641263       0.02036635       0.00258945
Pt       1.40360728       0.81037259      22.29206791        3       0.00000000       0.06197134      -0.03092337      -0.12056915
Pt       4.21082130       0.81037249      22.29206784        3       0.00000000       0.00484623       0.00581575      -0.26130909
Pt       7.01803471       0.81037256      22.29206781        3       0.00000000      -0.07945692      -0.03664779      -0.14568223
Pt       2.80721448       3.24149124      22.29206773        3       0.00000000       0.01056353      -0.02346714      -0.06515045
Pt       5.61442763       3.24149123      22.29206786        3       0.00000000      -0.00869045      -0.02497887      -0.07343846
Pt       8.42164156       3.24149129      22.29206804        3       0.00000000       0.00132446       0.03944150      -0.01771078
Pt       4.21082092       5.67260997      22.29206793        3       0.00000000      -0.00178580       0.00873824      -0.07604925
Pt       7.01803487       5.67261037      22.29206776        3       0.00000000       0.02533928       0.03101358      -0.11144113
Pt       9.82524821       5.67261065      22.29206806        3       0.00000000      -0.01532249       0.04414488      -0.13646927
Pt      -0.00000053       1.62074569      24.58417386        2       0.00000000       0.00242177       0.16275513      -0.16334784
Pt       2.80721443       1.62074549      24.58417398        2       0.00000000      -0.20254253       0.13649628       0.28025043
Pt       5.61442778       1.62074537      24.58417377        2       0.00000000       0.18678318       0.10407047       0.27541038
Pt       1.40360637       4.05186439      24.58417390        2       0.00000000      -0.08613367      -0.13266499       0.24418055
Pt       4.21082088       4.05186403      24.58417379        2       0.00000000      -0.01210400      -0.02167522      -0.09494811
Pt       7.01803504       4.05186408      24.58417406        2       0.00000000       0.08295579      -0.09381297       0.20476784
Pt       2.80721282       6.48298343      24.58417376        2       0.00000000       0.01441350       0.00790394       0.00487070
Pt       5.61442796       6.48298325      24.58417391        2       0.00000000      -0.01436521       0.03009242       0.00769195
Pt       8.42164222       6.48298341      24.58417381        2       0.00000000      -0.01818728      -0.12089748       0.17694798
Pt      -0.01520342      -0.11103809      27.02268654        1       0.00000000       0.00278433       0.01621700      -0.01331873
Pt       2.80300439       0.01937060      26.90582559        1       0.00000000       0.00508574      -0.01324993      -0.00631599
Pt       5.61602544       0.00917106      26.90525543        1       0.00000000      -0.00004114       0.00975394      -0.00093106
Pt       1.53869052       2.39862285      27.30979807        1       0.00000000       0.02232391      -0.01411554       0.01155395
Pt       4.20914188       2.44018541      26.89459682        1       0.00000000      -0.00807204      -0.03336279       0.00204035
Pt       6.89260425       2.40790240      27.19019298        1       0.00000000       0.01372223      -0.01322017      -0.00135880
Pt       2.81110416       4.85889115      26.89707391        1       0.00000000       0.00407468      -0.01516931       0.00088443
Pt       5.59498591       4.87202701      26.89207594        1       0.00000000      -0.00882940      -0.00389711       0.00063104
Pt       8.41409139       5.00012462      27.02257142        1       0.00000000       0.00163813      -0.00475053       0.01937849
C        8.40447310       3.33550000      27.93424654        0       1.00000000      -0.02106773      -0.00573525       0.00082858
H        8.57356510       1.53527554      26.32271263        0       0.00000000       0.04113727      -0.01597124       0.00477516
