38
Lattice="8.421641763931781 0.0 0.0 4.2108208819658905 7.293355709136913 0.0 0.0 0.0 46.87624170604845" Properties=species:S:1:pos:R:3:tags:I:1:initial_magmoms:R:1:forces:R:3 charge=0 spin=0 energy=-197.93991065700772 free_energy=-197.93991065700772 stress="0.0070245168171823025 3.783680213587104e-08 1.7304709842846933e-07 3.783680213587104e-08 0.007020973600447178 1.0085366284329211e-06 1.7304709842846933e-07 1.0085366284329211e-06 -0.0010912350844591856" pbc="T T T"
Pt      -0.00000012       0.00000002      19.95723426        4       0.00000000       0.00401017       0.00169616       0.01464722
Pt       2.80721404      -0.00000018      19.95723442        4       0.00000000       0.00109311       0.00828142       0.01819255
Pt       5.61442782      -0.00000007      19.95723448        4       0.00000000      -0.00052829      -0.00436528       0.01451080
Pt       1.40360721       2.43111841      19.95723428        4       0.00000000       0.00841776       0.00311150      -0.02580858
Pt       4.21082083       2.43111835      19.95723436        4       0.00000000      -0.00695504       0.00571599      -0.02590031
Pt       7.01803478       2.43111845      19.95723424        4       0.00000000      -0.00348159       0.00262931       0.01469627
Pt       2.80721407       4.86223728      19.95723400        4       0.00000000      -0.00145835      -0.00884247      -0.02590330
Pt       5.61442803       4.86223733      19.95723419        4       0.00000000      -0.00777428      -0.00316052       0.01830423
Pt       8.42164139       4.86223726      19.95723434        4       0.00000000       0.00668137      -0.00516426       0.01826377
Pt       1.40360728       0.81037259      22.29206791        3       0.00000000       0.00620099       0.07274523      -0.12942660
Pt       4.21082130       0.81037249      22.29206784        3       0.00000000      -0.00264232       0.08141427      -0.13576747
Pt       7.01803471       0.81037256      22.29206781        3       0.00000000      -0.00000571      -0.00003363      -0.11084125
Pt       2.80721448       3.24149124      22.29206773        3       0.00000000      -0.00000615      -0.00000009      -0.26908380
Pt       5.61442763       3.24149123      22.29206786        3       0.00000000      -0.06604280      -0.03103603      -0.12911066
Pt       8.42164156       3.24149129      22.29206804        3       0.00000000       0.07184811      -0.03859233      -0.13561720
Pt       4.21082092       5.67260997      22.29206793        3       0.00000000      -0.06923413      -0.04293731      -0.13595796
Pt       7.01803487       5.67261037      22.29206776        3       0.00000000      -0.00000708      -0.00004768      -0.22470826
Pt       9.82524821       5.67261065      22.29206806        3       0.00000000       0.05984380      -0.04184071      -0.12952994
Pt      -0.00000053       1.62074569      24.58417386        2       0.00000000      -0.00087207       0.01134211      -0.08832284
Pt       2.80721443       1.62074549      24.58417398        2       0.00000000      -0.00147927      -0.12721698       0.26230276
Pt       5.61442778       1.62074537      24.58417377        2       0.00000000      -0.00921423      -0.00633337      -0.08841062
Pt       1.40360637       4.05186439      24.58417390        2       0.00000000      -0.10935384       0.06513935       0.26217085
Pt       4.21082088       4.05186403      24.58417379        2       0.00000000       0.11081575       0.06252318       0.26220885
Pt       7.01803504       4.05186408      24.58417406        2       0.00000000       0.00713149      -0.57451934       0.27909330
Pt       2.80721282       6.48298343      24.58417376        2       0.00000000       0.01004385      -0.00455425      -0.08807852
Pt       5.61442796       6.48298325      24.58417391        2       0.00000000      -0.50104558       0.28132361       0.27952963
Pt       8.42164222       6.48298341      24.58417381        2       0.00000000       0.49406403       0.29335749       0.27942044
Pt      -0.01351853       0.01145025      26.89436628        1       0.00000000       0.00143337      -0.00287153       0.00612323
Pt       2.80711749       0.14336372      27.18021621        1       0.00000000       0.00308485      -0.01284950       0.00664031
Pt       5.63096143       0.00631346      26.89436741        1       0.00000000      -0.00317730       0.00014586       0.00612811
Pt       1.39725962       2.42739165      26.89475187        1       0.00000000       0.00181546       0.00616489       0.00408966
Pt       4.21742620       2.42775141      26.89476012        1       0.00000000      -0.00610918      -0.00122088       0.00407372
Pt       7.01509477       2.41403087      26.89440327        1       0.00000000       0.00184926       0.00262240       0.00618833
Pt       2.80701739       4.86995182      26.89478421        1       0.00000000       0.00424008      -0.00487242       0.00393451
Pt       5.49049059       4.79077869      27.18030018        1       0.00000000       0.01349477       0.01104365       0.00812534
Pt       8.54574944       4.79101303      27.18028879        1       0.00000000      -0.01613611       0.00524384       0.00793742
C        7.01809272       5.67310363      27.91223444        0       1.00000000      -0.00056075      -0.00411238      -0.02859483
H        7.01802331       5.67254110      25.35835469        0       0.00000000       0.00001614       0.00007085      -0.00551913
