38
Lattice="8.421641763931781 0.0 0.0 4.2108208819658905 7.293355709136913 0.0 0.0 0.0 46.87624170604845" Properties=species:S:1:pos:R:3:tags:I:1:initial_magmoms:R:1:forces:R:3 charge=0 spin=0 energy=-192.90342498501064 free_energy=-192.90342498501064 stress="0.010173270478844643 -9.660949729095591e-08 3.735679765526356e-09 -9.660949729095591e-08 0.010173268616199493 -2.428885093053168e-09 3.735679765526356e-09 -2.428885093053168e-09 -0.00016926568059716374" pbc="T T T"
Pt      -0.00000012       0.00000002      19.95723426        4       0.00000000      -0.00062169      -0.00354294       0.01652353
Pt       2.80721404      -0.00000018      19.95723442        4       0.00000000      -0.00000189       0.00000305       0.01380276
Pt       5.61442782      -0.00000007      19.95723448        4       0.00000000       0.00273448      -0.00349678       0.01722731
Pt       1.40360721       2.43111841      19.95723428        4       0.00000000       0.00165866       0.00412225       0.01723280
Pt       4.21082083       2.43111835      19.95723436        4       0.00000000      -0.00275235       0.00230914       0.01649016
Pt       7.01803478       2.43111845      19.95723424        4       0.00000000      -0.00000172       0.00000156       0.01525829
Pt       2.80721407       4.86223728      19.95723400        4       0.00000000       0.00000178      -0.00000402      -0.01117944
Pt       5.61442803       4.86223733      19.95723419        4       0.00000000      -0.00439634      -0.00062391       0.01722659
Pt       8.42164139       4.86223726      19.95723434        4       0.00000000       0.00337996       0.00123019       0.01650008
Pt       1.40360728       0.81037259      22.29206791        3       0.00000000       0.00116224      -0.00014730      -0.05159301
Pt       4.21082130       0.81037249      22.29206784        3       0.00000000      -0.00074543      -0.00092569      -0.05161244
Pt       7.01803471       0.81037256      22.29206781        3       0.00000000       0.00150763       0.00322950      -0.05268842
Pt       2.80721448       3.24149124      22.29206773        3       0.00000000      -0.00099090       0.00575032      -0.04118556
Pt       5.61442763       3.24149123      22.29206786        3       0.00000000       0.00201579      -0.00290907      -0.05268293
Pt       8.42164156       3.24149129      22.29206804        3       0.00000000      -0.00351328      -0.00031980      -0.05268672
Pt       4.21082092       5.67260997      22.29206793        3       0.00000000      -0.00450371      -0.00368743      -0.04117049
Pt       7.01803487       5.67261037      22.29206776        3       0.00000000      -0.00042591       0.00108108      -0.05159264
Pt       9.82524821       5.67261065      22.29206806        3       0.00000000       0.00549166      -0.00206763      -0.04119223
Pt      -0.00000053       1.62074569      24.58417386        2       0.00000000      -0.00397636      -0.00443556       0.04078728
Pt       2.80721443       1.62074549      24.58417398        2       0.00000000       0.00069760       0.00376654       0.03847062
Pt       5.61442778       1.62074537      24.58417377        2       0.00000000      -0.00191300       0.00573932       0.04078009
Pt       1.40360637       4.05186439      24.58417390        2       0.00000000       0.00244814       0.00534688       0.01950190
Pt       4.21082088       4.05186403      24.58417379        2       0.00000000      -0.00585729      -0.00060199       0.01946443
Pt       7.01803504       4.05186408      24.58417406        2       0.00000000       0.00588248      -0.00125694       0.04079669
Pt       2.80721282       6.48298343      24.58417376        2       0.00000000       0.00343107      -0.00476917       0.01939017
Pt       5.61442796       6.48298325      24.58417391        2       0.00000000      -0.00358078      -0.00129024       0.03837975
Pt       8.42164222       6.48298341      24.58417381        2       0.00000000       0.00287451      -0.00250269       0.03841597
Pt      -0.01197017      -0.00006506      26.91895724        1       0.00000000       0.00216881      -0.00105632       0.00110500
Pt       2.80721397       0.00000034      26.90598156        1       0.00000000       0.00000166      -0.00000215      -0.00328481
Pt       5.62619591       0.00142905      26.91883246        1       0.00000000      -0.00290857       0.00199822       0.00085782
Pt       1.39649650       2.44060971      26.91885509        1       0.00000000      -0.00026791      -0.00358323       0.00076823
Pt       4.21675753       2.44153395      26.91898169        1       0.00000000      -0.00200172      -0.00143431       0.00106317
Pt       7.01803582       2.43111617      26.91834545        1       0.00000000       0.00001211      -0.00000942       0.00810392
Pt       2.80721291       4.86223904      26.91804222        1       0.00000000      -0.00001703       0.00000821       0.00909073
Pt       5.60977066       4.85131704      26.91885499        1       0.00000000       0.00318295       0.00159073       0.00078908
Pt       8.42767474       4.85188682      26.91896733        1       0.00000000      -0.00017447       0.00248906       0.00103348
C        2.80721381       0.00000001      29.93871653        0       1.00000000      -0.00000223       0.00000194      -0.01284229
H        2.80721407      -0.00000025      28.76194160        0       0.00000000       0.00000144      -0.00000154       0.01465085
