38
Lattice="8.421641763931781 0.0 0.0 4.2108208819658905 7.293355709136913 0.0 0.0 0.0 46.87624170604845" Properties=species:S:1:pos:R:3:tags:I:1:initial_magmoms:R:1:forces:R:3 charge=0 spin=0 energy=-192.90315795620205 free_energy=-192.90315795620205 stress="0.01013739313930273 -9.535545331118556e-08 2.7171134231451788e-09 -9.535545331118556e-08 0.010137387551367283 -8.500571357927811e-10 2.7171134231451788e-09 -8.500571357927811e-10 -0.00024293010937981308" pbc="T T T"
Pt      -0.00000012       0.00000002      19.95723426        4       0.00000000      -0.00268703       0.00218393       0.01646652
Pt       2.80721404      -0.00000018      19.95723442        4       0.00000000      -0.00000235       0.00000355       0.01529353
Pt       5.61442782      -0.00000007      19.95723448        4       0.00000000       0.00161325       0.00398610       0.01716692
Pt       1.40360721       2.43111841      19.95723428        4       0.00000000      -0.00425142      -0.00059045       0.01717349
Pt       4.21082083       2.43111835      19.95723436        4       0.00000000       0.00324175       0.00124073       0.01647890
Pt       7.01803478       2.43111845      19.95723424        4       0.00000000      -0.00000084       0.00000014      -0.01068063
Pt       2.80721407       4.86223728      19.95723400        4       0.00000000       0.00000108      -0.00000303       0.01379920
Pt       5.61442803       4.86223733      19.95723419        4       0.00000000       0.00263525      -0.00339410       0.01718115
Pt       8.42164139       4.86223726      19.95723434        4       0.00000000      -0.00054852      -0.00342855       0.01650099
Pt       1.40360728       0.81037259      22.29206791        3       0.00000000       0.00187449      -0.00285797      -0.05212907
Pt       4.21082130       0.81037249      22.29206784        3       0.00000000      -0.00340777      -0.00022003      -0.05213342
Pt       7.01803471       0.81037256      22.29206781        3       0.00000000      -0.00101807       0.00572012      -0.04146446
Pt       2.80721448       3.24149124      22.29206773        3       0.00000000      -0.00047343       0.00110920      -0.05100264
Pt       5.61442763       3.24149123      22.29206786        3       0.00000000       0.00547846      -0.00201006      -0.04147280
Pt       8.42164156       3.24149129      22.29206804        3       0.00000000      -0.00445321      -0.00370351      -0.04145076
Pt       4.21082092       5.67260997      22.29206793        3       0.00000000      -0.00074132      -0.00097671      -0.05102625
Pt       7.01803487       5.67261037      22.29206776        3       0.00000000       0.00152868       0.00307733      -0.05213900
Pt       9.82524821       5.67261065      22.29206806        3       0.00000000       0.00121019      -0.00013359      -0.05100759
Pt      -0.00000053       1.62074569      24.58417386        2       0.00000000      -0.00460615      -0.00139507       0.00821710
Pt       2.80721443       1.62074549      24.58417398        2       0.00000000       0.00620852      -0.00272915       0.03085973
Pt       5.61442778       1.62074537      24.58417377        2       0.00000000       0.00113558       0.00466851       0.00825640
Pt       1.40360637       4.05186439      24.58417390        2       0.00000000      -0.00140523       0.00041294       0.02884580
Pt       4.21082088       4.05186403      24.58417379        2       0.00000000       0.00031093      -0.00148132       0.02887587
Pt       7.01803504       4.05186408      24.58417406        2       0.00000000       0.00347873      -0.00328679       0.00813039
Pt       2.80721282       6.48298343      24.58417376        2       0.00000000       0.00111873       0.00103330       0.02894671
Pt       5.61442796       6.48298325      24.58417391        2       0.00000000      -0.00081100       0.00676750       0.03083762
Pt       8.42164222       6.48298341      24.58417381        2       0.00000000      -0.00542665      -0.00398432       0.03085144
Pt       0.00540323       0.00961526      26.91644743        1       0.00000000       0.00136969       0.00244044       0.01192528
Pt       2.80721629      -0.00000271      26.91690272        1       0.00000000       0.00000491      -0.00001128       0.01366992
Pt       5.60784019       0.00838105      26.91597048        1       0.00000000      -0.00339854       0.00156071       0.01315444
Pt       1.39965348       2.42120487      26.91597057        1       0.00000000       0.00027869      -0.00368056       0.01316790
Pt       4.21642068       2.42163129      26.91643192        1       0.00000000       0.00151453      -0.00237585       0.01190370
Pt       7.01803202       2.43112055      26.91456630        1       0.00000000      -0.00000734       0.00001174       0.02314037
Pt       2.80721222       4.86224002      26.90652768        1       0.00000000      -0.00000017      -0.00000619       0.01440075
Pt       5.62496726       4.86377154      26.91593594        1       0.00000000       0.00313054       0.00213003       0.01327664
Pt       8.41063658       4.86211199      26.91641482        1       0.00000000      -0.00289581      -0.00007570       0.01199526
C        2.80721264       4.86223737      29.94594933        0       1.00000000      -0.00000569       0.00000244       0.02498424
H        2.80721610       4.86223603      28.77175720        0       0.00000000       0.00000680      -0.00000441      -0.04099361
