38
Lattice="8.421641763931781 0.0 0.0 4.2108208819658905 7.293355709136913 0.0 0.0 0.0 46.87624170604845" Properties=species:S:1:pos:R:3:tags:I:1:initial_magmoms:R:1:forces:R:3 charge=0 spin=0 energy=-197.9896905489755 free_energy=-197.9896905489755 stress="0.007408604025840759 0.00011468657612567768 0.00010797716095112264 0.00011468657612567768 0.007633562199771404 -1.3741366274189204e-05 0.00010797716095112264 -1.3741366274189204e-05 -0.0007390876999124885" pbc="T T T"
Pt      -0.00000012       0.00000002      19.95723426        4       0.00000000       0.01461251      -0.01586162       0.00234787
Pt       2.80721404      -0.00000018      19.95723442        4       0.00000000      -0.01333184      -0.00010950      -0.01386279
Pt       5.61442782      -0.00000007      19.95723448        4       0.00000000      -0.00424707      -0.00224298       0.02646984
Pt       1.40360721       2.43111841      19.95723428        4       0.00000000      -0.00306713      -0.00399423       0.00873123
Pt       4.21082083       2.43111835      19.95723436        4       0.00000000       0.00421732      -0.00306518       0.01819832
Pt       7.01803478       2.43111845      19.95723424        4       0.00000000       0.00230862       0.00393937       0.02829659
Pt       2.80721407       4.86223728      19.95723400        4       0.00000000      -0.00293884       0.00304608       0.00792863
Pt       5.61442803       4.86223733      19.95723419        4       0.00000000       0.00330612       0.02263836      -0.01401398
Pt       8.42164139       4.86223726      19.95723434        4       0.00000000       0.00925064      -0.00430167      -0.01045767
Pt       1.40360728       0.81037259      22.29206791        3       0.00000000       0.01412695      -0.03757921      -0.11148286
Pt       4.21082130       0.81037249      22.29206784        3       0.00000000      -0.05735681      -0.03815567      -0.12040177
Pt       7.01803471       0.81037256      22.29206781        3       0.00000000       0.03415724      -0.02118920      -0.01791727
Pt       2.80721448       3.24149124      22.29206773        3       0.00000000       0.00865537      -0.00292326      -0.07591102
Pt       5.61442763       3.24149123      22.29206786        3       0.00000000       0.00826117       0.08759184      -0.14649075
Pt       8.42164156       3.24149129      22.29206804        3       0.00000000      -0.01714667       0.01978805      -0.07338378
Pt       4.21082092       5.67260997      22.29206793        3       0.00000000       0.04607508      -0.00902705      -0.13674313
Pt       7.01803487       5.67261037      22.29206776        3       0.00000000       0.00244305      -0.00718845      -0.26111004
Pt       9.82524821       5.67261065      22.29206806        3       0.00000000      -0.02520879       0.00240131      -0.06490017
Pt      -0.00000053       1.62074569      24.58417386        2       0.00000000      -0.12260409      -0.02529687       0.20265052
Pt       2.80721443       1.62074549      24.58417398        2       0.00000000       0.03291231      -0.00092142       0.00968863
Pt       5.61442778       1.62074537      24.58417377        2       0.00000000       0.14042971      -0.08272877      -0.17125617
Pt       1.40360637       4.05186439      24.58417390        2       0.00000000      -0.01291347       0.02185596      -0.09520555
Pt       4.21082088       4.05186403      24.58417379        2       0.00000000      -0.00190586      -0.01704924       0.00782665
Pt       7.01803504       4.05186408      24.58417406        2       0.00000000      -0.00416227      -0.21280608       0.27537838
Pt       2.80721282       6.48298343      24.58417376        2       0.00000000      -0.07215475       0.14159155       0.24179173
Pt       5.61442796       6.48298325      24.58417391        2       0.00000000      -0.09598342       0.07637951       0.17581427
Pt       8.42164222       6.48298341      24.58417381        2       0.00000000       0.21832609       0.10717698       0.28111726
Pt       0.12240790      -0.06215875      27.02251502        1       0.00000000      -0.00508871       0.00348325       0.02040124
Pt       2.82458162      -0.00526265      26.90554506        1       0.00000000      -0.00880597       0.00183261      -0.00542049
Pt       5.51826580      -0.09985857      27.31048929        1       0.00000000      -0.03699422      -0.01956225       0.01112792
Pt       1.42059845       2.44389611      26.89180748        1       0.00000000       0.00562626       0.00927145       0.00084222
Pt       4.12231299       2.50035345      27.02432253        1       0.00000000       0.00492253      -0.00537748      -0.01484288
Pt       7.05932769       2.55098139      27.18795543        1       0.00000000      -0.01604909       0.00397381      -0.00176304
Pt       2.80050335       4.86273769      26.89686551        1       0.00000000      -0.01010349      -0.00492837       0.00087574
Pt       5.62077444       4.85693695      26.90512933        1       0.00000000       0.00840545      -0.00690454      -0.00083397
Pt       8.42984270       4.85931924      26.89482075        1       0.00000000      -0.02691730       0.02531412       0.00176142
C        7.10708018       0.77919558      27.93386865        0       1.00000000       0.01307799       0.02070701       0.00407225
H        5.45830816       1.52876376      26.32016565        0       0.00000000      -0.03413465      -0.02977839       0.01067633
