38
Lattice="8.421641763931781 0.0 0.0 4.2108208819658905 7.293355709136913 0.0 0.0 0.0 46.87624170604845" Properties=species:S:1:pos:R:3:tags:I:1:initial_magmoms:R:1:forces:R:3 charge=0 spin=0 energy=-197.98970580776455 free_energy=-197.98970580776455 stress="0.007408862933516502 0.00011465603893157095 0.00010815171845024452 0.00011465603893157095 0.007633778732270002 -1.3762487469648477e-05 0.00010815171845024452 -1.3762487469648477e-05 -0.0007391910185106099" pbc="T T T"
Pt      -0.00000012       0.00000002      19.95723426        4       0.00000000      -0.00424708      -0.00224863       0.02647783
Pt       2.80721404      -0.00000018      19.95723442        4       0.00000000       0.01460956      -0.01585953       0.00233384
Pt       5.61442782      -0.00000007      19.95723448        4       0.00000000      -0.01332564      -0.00010306      -0.01386372
Pt       1.40360721       2.43111841      19.95723428        4       0.00000000       0.00230866       0.00393736       0.02829842
Pt       4.21082083       2.43111835      19.95723436        4       0.00000000      -0.00306462      -0.00399627       0.00873166
Pt       7.01803478       2.43111845      19.95723424        4       0.00000000       0.00421234      -0.00306676       0.01819783
Pt       2.80721407       4.86223728      19.95723400        4       0.00000000       0.00925046      -0.00429884      -0.01045773
Pt       5.61442803       4.86223733      19.95723419        4       0.00000000      -0.00293995       0.00304693       0.00792646
Pt       8.42164139       4.86223726      19.95723434        4       0.00000000       0.00331181       0.02264800      -0.01401635
Pt       1.40360728       0.81037259      22.29206791        3       0.00000000       0.03415003      -0.02118843      -0.01792586
Pt       4.21082130       0.81037249      22.29206784        3       0.00000000       0.01412402      -0.03757717      -0.11146432
Pt       7.01803471       0.81037256      22.29206781        3       0.00000000      -0.05734383      -0.03815062      -0.12038029
Pt       2.80721448       3.24149124      22.29206773        3       0.00000000      -0.01715959       0.01978465      -0.07338807
Pt       5.61442763       3.24149123      22.29206786        3       0.00000000       0.00866165      -0.00291998      -0.07590774
Pt       8.42164156       3.24149129      22.29206804        3       0.00000000       0.00826394       0.08761508      -0.14652547
Pt       4.21082092       5.67260997      22.29206793        3       0.00000000      -0.02521284       0.00240947      -0.06489986
Pt       7.01803487       5.67261037      22.29206776        3       0.00000000       0.04608637      -0.00904800      -0.13676777
Pt       9.82524821       5.67261065      22.29206806        3       0.00000000       0.00245102      -0.00719706      -0.26111099
Pt      -0.00000053       1.62074569      24.58417386        2       0.00000000       0.14044654      -0.08274218      -0.17123494
Pt       2.80721443       1.62074549      24.58417398        2       0.00000000      -0.12259880      -0.02530275       0.20260975
Pt       5.61442778       1.62074537      24.58417377        2       0.00000000       0.03295509      -0.00093370       0.00966756
Pt       1.40360637       4.05186439      24.58417390        2       0.00000000      -0.00416522      -0.21277075       0.27536798
Pt       4.21082088       4.05186403      24.58417379        2       0.00000000      -0.01291144       0.02189585      -0.09528159
Pt       7.01803504       4.05186408      24.58417406        2       0.00000000      -0.00190071      -0.01707464       0.00782766
Pt       2.80721282       6.48298343      24.58417376        2       0.00000000       0.21833770       0.10717347       0.28112122
Pt       5.61442796       6.48298325      24.58417391        2       0.00000000      -0.07220505       0.14161131       0.24181765
Pt       8.42164222       6.48298341      24.58417381        2       0.00000000      -0.09600502       0.07639795       0.17575297
Pt      -0.09620776      -0.09990073      27.31060434        1       0.00000000      -0.03656602      -0.01906026       0.01126290
Pt       2.92959819      -0.06213816      27.02250838        1       0.00000000      -0.00504797       0.00345492       0.02033743
Pt       5.63174648      -0.00527807      26.90554317        1       0.00000000      -0.00853466       0.00188994      -0.00538183
Pt       1.44491877       2.55099854      27.18786595        1       0.00000000      -0.01623262       0.00355351      -0.00163556
Pt       4.22786428       2.44391024      26.89179084        1       0.00000000       0.00547223       0.00922272       0.00090300
Pt       6.92954077       2.50037645      27.02435488        1       0.00000000       0.00512889      -0.00552701      -0.01490611
Pt       2.81544352       4.85930870      26.89482201        1       0.00000000      -0.02701899       0.02535366       0.00174739
Pt       5.60772256       4.86273352      26.89685571        1       0.00000000      -0.01011387      -0.00481670       0.00092562
Pt       8.42798046       4.85698205      26.90512419        1       0.00000000       0.00847138      -0.00711405      -0.00081151
C        1.49265724       0.77922519      27.93386438        0       1.00000000       0.01252841       0.02088153       0.00381449
H       -0.15628749       1.52856713      26.32010525        0       0.00000000      -0.03417588      -0.02987995       0.01083825
