38
Lattice="8.421641763931781 0.0 0.0 4.2108208819658905 7.293355709136913 0.0 0.0 0.0 46.87624170604845" Properties=species:S:1:pos:R:3:tags:I:1:initial_magmoms:R:1:forces:R:3 charge=0 spin=0 energy=-192.90342498501064 free_energy=-192.90342498501064 stress="0.010173279792070389 -9.655081356640949e-08 3.742388177130351e-09 -9.655081356640949e-08 0.010173264890909195 -1.556391682200342e-09 3.742388177130351e-09 -1.556391682200342e-09 -0.00016924513329286128" pbc="T T T"
Pt      -0.00000012       0.00000002      19.95723426        4       0.00000000       0.00000197      -0.00000045       0.01525755
Pt       2.80721404      -0.00000018      19.95723442        4       0.00000000       0.00165756       0.00412384       0.01722253
Pt       5.61442782      -0.00000007      19.95723448        4       0.00000000      -0.00275476       0.00231048       0.01648045
Pt       1.40360721       2.43111841      19.95723428        4       0.00000000       0.00337773       0.00123592       0.01650112
Pt       4.21082083       2.43111835      19.95723436        4       0.00000000       0.00000264       0.00000113      -0.01117976
Pt       7.01803478       2.43111845      19.95723424        4       0.00000000      -0.00439575      -0.00061929       0.01722693
Pt       2.80721407       4.86223728      19.95723400        4       0.00000000       0.00273592      -0.00350368       0.01723668
Pt       5.61442803       4.86223733      19.95723419        4       0.00000000      -0.00062569      -0.00354536       0.01652370
Pt       8.42164139       4.86223726      19.95723434        4       0.00000000       0.00000149      -0.00000424       0.01381179
Pt       1.40360728       0.81037259      22.29206791        3       0.00000000      -0.00352023      -0.00031726      -0.05268337
Pt       4.21082130       0.81037249      22.29206784        3       0.00000000      -0.00098580       0.00575549      -0.04118401
Pt       7.01803471       0.81037256      22.29206781        3       0.00000000       0.00201429      -0.00290527      -0.05267964
Pt       2.80721448       3.24149124      22.29206773        3       0.00000000       0.00547821      -0.00205519      -0.04119388
Pt       5.61442763       3.24149123      22.29206786        3       0.00000000      -0.00449874      -0.00368915      -0.04117368
Pt       8.42164156       3.24149129      22.29206804        3       0.00000000      -0.00041929       0.00108802      -0.05159742
Pt       4.21082092       5.67260997      22.29206793        3       0.00000000       0.00150409       0.00322802      -0.05268781
Pt       7.01803487       5.67261037      22.29206776        3       0.00000000       0.00116250      -0.00015664      -0.05159169
Pt       9.82524821       5.67261065      22.29206806        3       0.00000000      -0.00073780      -0.00094339      -0.05161412
Pt      -0.00000053       1.62074569      24.58417386        2       0.00000000       0.00588756      -0.00126319       0.04079758
Pt       2.80721443       1.62074549      24.58417398        2       0.00000000       0.00243727       0.00535144       0.01950037
Pt       5.61442778       1.62074537      24.58417377        2       0.00000000      -0.00585505      -0.00060129       0.01946396
Pt       1.40360637       4.05186439      24.58417390        2       0.00000000       0.00288675      -0.00249955       0.03840710
Pt       4.21082088       4.05186403      24.58417379        2       0.00000000       0.00342080      -0.00475829       0.01938639
Pt       7.01803504       4.05186408      24.58417406        2       0.00000000      -0.00358112      -0.00128438       0.03838133
Pt       2.80721282       6.48298343      24.58417376        2       0.00000000      -0.00190117       0.00573071       0.04077965
Pt       5.61442796       6.48298325      24.58417391        2       0.00000000      -0.00398445      -0.00443640       0.04079009
Pt       8.42164222       6.48298341      24.58417381        2       0.00000000       0.00069510       0.00375715       0.03847407
Pt       0.00000123      -0.00000226      26.91834554        1       0.00000000       0.00001158      -0.00000846       0.00809387
Pt       2.80010365       0.00949091      26.91885529        1       0.00000000      -0.00026921      -0.00358354       0.00076912
Pt       5.62036422       0.01041520      26.91898199        1       0.00000000      -0.00200111      -0.00143066       0.00106518
Pt       1.40964028       2.42076830      26.91896708        1       0.00000000      -0.00017693       0.00248578       0.00104005
Pt       4.21082004       2.43112037      26.91804246        1       0.00000000      -0.00001316       0.00000781       0.00909431
Pt       7.01337751       2.42019857      26.91885513        1       0.00000000       0.00318192       0.00158683       0.00078916
Pt       2.81898187       4.86366632      26.91883169        1       0.00000000      -0.00290782       0.00199944       0.00086317
Pt       5.60245777       4.86217209      26.91895707        1       0.00000000       0.00217257      -0.00105514       0.00110513
Pt       8.42164138       4.86223755      26.90598130        1       0.00000000      -0.00000087      -0.00000004      -0.00328355
C        8.42164117       4.86223733      29.93871825        0       1.00000000      -0.00000173       0.00000081      -0.01291362
H        8.42164139       4.86223699      28.76194000        0       0.00000000       0.00000086      -0.00000196       0.01472099
