38
Lattice="8.421641763931781 0.0 0.0 4.2108208819658905 7.293355709136913 0.0 0.0 0.0 46.87624170604845" Properties=species:S:1:pos:R:3:tags:I:1:initial_magmoms:R:1:forces:R:3 charge=0 spin=0 energy=-197.9390847750497 free_energy=-197.9390847750497 stress="0.007025825325399637 -1.243532636863165e-07 1.3217873906512523e-08 -1.243532636863165e-07 0.007025166880339384 -1.5986607593276858e-09 1.3217873906512523e-08 -1.5986607593276858e-09 -0.0010193327907472849" pbc="T T T"
Pt      -0.00000012       0.00000002      19.95723426        4       0.00000000       0.00392414       0.00199436       0.01476022
Pt       2.80721404      -0.00000018      19.95723442        4       0.00000000       0.00117678       0.00764273       0.01768895
Pt       5.61442782      -0.00000007      19.95723448        4       0.00000000      -0.00024245      -0.00441264       0.01462615
Pt       1.40360721       2.43111841      19.95723428        4       0.00000000       0.00892128       0.00343570      -0.02548591
Pt       4.21082083       2.43111835      19.95723436        4       0.00000000      -0.00748156       0.00600287      -0.02557311
Pt       7.01803478       2.43111845      19.95723424        4       0.00000000      -0.00367879       0.00242223       0.01480689
Pt       2.80721407       4.86223728      19.95723400        4       0.00000000      -0.00143720      -0.00943822      -0.02556645
Pt       5.61442803       4.86223733      19.95723419        4       0.00000000      -0.00725206      -0.00274697       0.01779217
Pt       8.42164139       4.86223726      19.95723434        4       0.00000000       0.00607525      -0.00490133       0.01775468
Pt       1.40360728       0.81037259      22.29206791        3       0.00000000       0.00604689       0.07320914      -0.13173524
Pt       4.21082130       0.81037249      22.29206784        3       0.00000000      -0.00257814       0.08184518      -0.13914448
Pt       7.01803471       0.81037256      22.29206781        3       0.00000000       0.00000234       0.00000039      -0.10852182
Pt       2.80721448       3.24149124      22.29206773        3       0.00000000      -0.00000392       0.00000892      -0.26968887
Pt       5.61442763       3.24149123      22.29206786        3       0.00000000      -0.06632532      -0.03133382      -0.13138387
Pt       8.42164156       3.24149129      22.29206804        3       0.00000000       0.07216804      -0.03877944      -0.13893265
Pt       4.21082092       5.67260997      22.29206793        3       0.00000000      -0.06958622      -0.04305669      -0.13933976
Pt       7.01803487       5.67261037      22.29206776        3       0.00000000      -0.00000157      -0.00000555      -0.22160965
Pt       9.82524821       5.67261065      22.29206806        3       0.00000000       0.06029340      -0.04188317      -0.13187173
Pt      -0.00000053       1.62074569      24.58417386        2       0.00000000      -0.00473049       0.00743568      -0.07354715
Pt       2.80721443       1.62074549      24.58417398        2       0.00000000      -0.00237178      -0.12333489       0.27896461
Pt       5.61442778       1.62074537      24.58417377        2       0.00000000      -0.00404000      -0.00793822      -0.07366431
Pt       1.40360637       4.05186439      24.58417390        2       0.00000000      -0.10557006       0.06366815       0.27895048
Pt       4.21082088       4.05186403      24.58417379        2       0.00000000       0.10783038       0.05959429       0.27900440
Pt       7.01803504       4.05186408      24.58417406        2       0.00000000       0.00637076      -0.56877601       0.29057395
Pt       2.80721282       6.48298343      24.58417376        2       0.00000000       0.00869334       0.00057290      -0.07332486
Pt       5.61442796       6.48298325      24.58417391        2       0.00000000      -0.49564698       0.27903709       0.29084817
Pt       8.42164222       6.48298341      24.58417381        2       0.00000000       0.48940298       0.28973201       0.29069096
Pt      -0.00934645       0.00615288      26.89729359        1       0.00000000      -0.02512769       0.01997861      -0.00601746
Pt       2.80547399       0.14538385      27.19011137        1       0.00000000       0.00370559       0.03267908      -0.02257589
Pt       5.62441197       0.00501244      26.89728117        1       0.00000000       0.02985768       0.01180145      -0.00598035
Pt       1.39148215       2.42533546      26.89844474        1       0.00000000       0.02763867       0.01331571      -0.01467089
Pt       4.22187620       2.42352437      26.89842834        1       0.00000000      -0.02545727       0.01706561      -0.01464018
Pt       7.01737695       2.41995238      26.89732762        1       0.00000000      -0.00464258      -0.03172150      -0.00596130
Pt       2.80823546       4.87561206      26.89837955        1       0.00000000      -0.00219727      -0.03059454      -0.01465161
Pt       5.48933269       4.78802572      27.19007684        1       0.00000000      -0.02892802      -0.01247740      -0.02209510
Pt       8.54844008       4.79102199      27.19009392        1       0.00000000       0.02526587      -0.01895502      -0.02213510
C        7.01802256       5.67264413      27.90602569        0       1.00000000      -0.00007796      -0.00107518       0.03416539
H        7.01803451       5.67261256      25.35766589        0       0.00000000       0.00000391      -0.00001152      -0.00250933
