38
Lattice="8.421641763931781 0.0 0.0 4.2108208819658905 7.293355709136913 0.0 0.0 0.0 46.87624170604845" Properties=species:S:1:pos:R:3:tags:I:1:initial_magmoms:R:1:forces:R:3 charge=0 spin=0 energy=-197.93908668239834 free_energy=-197.93908668239834 stress="0.007025794126093388 -1.2355810952158208e-07 9.94180204827444e-09 -1.2355810952158208e-07 0.007025192026048899 -2.3271063298579975e-08 9.94180204827444e-09 -2.3271063298579975e-08 -0.001019347459077835" pbc="T T T"
Pt      -0.00000012       0.00000002      19.95723426        4       0.00000000      -0.00748147       0.00599952      -0.02557432
Pt       2.80721404      -0.00000018      19.95723442        4       0.00000000      -0.00367933       0.00242376       0.01479716
Pt       5.61442782      -0.00000007      19.95723448        4       0.00000000       0.00892171       0.00343787      -0.02549639
Pt       1.40360721       2.43111841      19.95723428        4       0.00000000      -0.00725086      -0.00274264       0.01779342
Pt       4.21082083       2.43111835      19.95723436        4       0.00000000       0.00607633      -0.00489491       0.01775566
Pt       7.01803478       2.43111845      19.95723424        4       0.00000000      -0.00143970      -0.00943322      -0.02556706
Pt       2.80721407       4.86223728      19.95723400        4       0.00000000       0.00117987       0.00763714       0.01769908
Pt       5.61442803       4.86223733      19.95723419        4       0.00000000      -0.00024432      -0.00441941       0.01463539
Pt       8.42164139       4.86223726      19.95723434        4       0.00000000       0.00392334       0.00199083       0.01476029
Pt       1.40360728       0.81037259      22.29206791        3       0.00000000      -0.06633112      -0.03133050      -0.13137917
Pt       4.21082130       0.81037249      22.29206784        3       0.00000000       0.07216324      -0.03877378      -0.13892962
Pt       7.01803471       0.81037256      22.29206781        3       0.00000000       0.00000440       0.00000973      -0.26968729
Pt       2.80721448       3.24149124      22.29206773        3       0.00000000      -0.00000589       0.00000314      -0.22161627
Pt       5.61442763       3.24149123      22.29206786        3       0.00000000       0.06028790      -0.04187122      -0.13187249
Pt       8.42164156       3.24149129      22.29206804        3       0.00000000      -0.06958051      -0.04305799      -0.13934243
Pt       4.21082092       5.67260997      22.29206793        3       0.00000000      -0.00257919       0.08183907      -0.13914397
Pt       7.01803487       5.67261037      22.29206776        3       0.00000000      -0.00000132      -0.00000920      -0.10852075
Pt       9.82524821       5.67261065      22.29206806        3       0.00000000       0.00605718       0.07319432      -0.13173549
Pt      -0.00000053       1.62074569      24.58417386        2       0.00000000       0.10783444       0.05958949       0.27900258
Pt       2.80721443       1.62074549      24.58417398        2       0.00000000       0.00636749      -0.56879073       0.29056713
Pt       5.61442778       1.62074537      24.58417377        2       0.00000000      -0.10557370       0.06367545       0.27895328
Pt       1.40360637       4.05186439      24.58417390        2       0.00000000      -0.49564892       0.27904028       0.29083893
Pt       4.21082088       4.05186403      24.58417379        2       0.00000000       0.48942235       0.28974912       0.29068032
Pt       7.01803504       4.05186408      24.58417406        2       0.00000000       0.00867889       0.00058110      -0.07332186
Pt       2.80721282       6.48298343      24.58417376        2       0.00000000      -0.00235532      -0.12334239       0.27895942
Pt       5.61442796       6.48298325      24.58417391        2       0.00000000      -0.00404533      -0.00794426      -0.07366335
Pt       8.42164222       6.48298341      24.58417381        2       0.00000000      -0.00474136       0.00743254      -0.07353918
Pt       0.01105366      -0.00759381      26.89842861        1       0.00000000      -0.02544713       0.01706990      -0.01463758
Pt       2.80655639      -0.01116759      26.89732844        1       0.00000000      -0.00464545      -0.03171464      -0.00596710
Pt       5.60230350      -0.00578260      26.89844708        1       0.00000000       0.02762760       0.01331928      -0.01466993
Pt       1.27851483       2.35690821      27.19007229        1       0.00000000      -0.02896813      -0.01249254      -0.02209824
Pt       4.33761691       2.35990469      27.19008888        1       0.00000000       0.02528745      -0.01896166      -0.02213261
Pt       7.01905648       2.44449185      26.89838006        1       0.00000000      -0.00219324      -0.03058605      -0.01464854
Pt       2.80547318       5.00762150      27.19010432        1       0.00000000       0.00371247       0.03261044      -0.02254216
Pt       5.62441354       4.86725084      26.89728072        1       0.00000000       0.02985141       0.01179543      -0.00598345
Pt       8.41229364       4.86839118      26.89729425        1       0.00000000      -0.02512139       0.01997415      -0.00602278
C        2.80720130       3.24152296      27.90602706        0       1.00000000      -0.00006621      -0.00099695       0.03415249
H        2.80721281       3.24149405      25.35766380        0       0.00000000       0.00000354      -0.00001029      -0.00250265
