38
Lattice="8.421641763931781 0.0 0.0 4.2108208819658905 7.293355709136913 0.0 0.0 0.0 46.87624170604845" Properties=species:S:1:pos:R:3:tags:I:1:initial_magmoms:R:1:forces:R:3 charge=0 spin=0 energy=-192.903142697413 free_energy=-192.903142697413 stress="0.010230021551251411 -1.1314114090055227e-07 1.3302702939199662e-08 -1.1314114090055227e-07 0.010230017825961113 -6.099555971417203e-09 1.3302702939199662e-08 -6.099555971417203e-09 -7.24779165466316e-05" pbc="T T T"
Pt      -0.00000012       0.00000002      19.95723426        4       0.00000000       0.00288265      -0.00337732       0.01719906
Pt       2.80721404      -0.00000018      19.95723442        4       0.00000000      -0.00060250      -0.00353217       0.01646660
Pt       5.61442782      -0.00000007      19.95723448        4       0.00000000      -0.00000013       0.00000320       0.01366886
Pt       1.40360721       2.43111841      19.95723428        4       0.00000000      -0.00000048       0.00000096       0.01533075
Pt       4.21082083       2.43111835      19.95723436        4       0.00000000       0.00148126       0.00418701       0.01719669
Pt       7.01803478       2.43111845      19.95723424        4       0.00000000      -0.00276068       0.00228349       0.01644260
Pt       2.80721407       4.86223728      19.95723400        4       0.00000000       0.00336217       0.00124949       0.01645087
Pt       5.61442803       4.86223733      19.95723419        4       0.00000000      -0.00000154      -0.00000368      -0.01058801
Pt       8.42164139       4.86223726      19.95723434        4       0.00000000      -0.00435848      -0.00081309       0.01718623
Pt       1.40360728       0.81037259      22.29206791        3       0.00000000       0.00147707       0.00369464      -0.05281331
Pt       4.21082130       0.81037249      22.29206784        3       0.00000000       0.00122147      -0.00019523      -0.05309303
Pt       7.01803471       0.81037256      22.29206781        3       0.00000000      -0.00081485      -0.00095337      -0.05311272
Pt       2.80721448       3.24149124      22.29206773        3       0.00000000      -0.00391274      -0.00057240      -0.05282383
Pt       5.61442763       3.24149123      22.29206786        3       0.00000000      -0.00102894       0.00493136      -0.04000773
Pt       8.42164156       3.24149129      22.29206804        3       0.00000000       0.00243247      -0.00311665      -0.05282467
Pt       4.21082092       5.67260997      22.29206793        3       0.00000000       0.00479658      -0.00160381      -0.04001244
Pt       7.01803487       5.67261037      22.29206776        3       0.00000000      -0.00376949      -0.00333036      -0.03999186
Pt       9.82524821       5.67261065      22.29206806        3       0.00000000      -0.00040267       0.00114606      -0.05310991
Pt      -0.00000053       1.62074569      24.58417386        2       0.00000000       0.00226877       0.00910564       0.05936642
Pt       2.80721443       1.62074549      24.58417398        2       0.00000000      -0.00901482      -0.00253622       0.05936926
Pt       5.61442778       1.62074537      24.58417377        2       0.00000000       0.00026857       0.01298620       0.03716665
Pt       1.40360637       4.05186439      24.58417390        2       0.00000000       0.00674211      -0.00657005       0.05938681
Pt       4.21082088       4.05186403      24.58417379        2       0.00000000       0.00746575       0.00755682       0.04062635
Pt       7.01803504       4.05186408      24.58417406        2       0.00000000      -0.01028154       0.00264935       0.04059166
Pt       2.80721282       6.48298343      24.58417376        2       0.00000000       0.01111179      -0.00671210       0.03713325
Pt       5.61442796       6.48298325      24.58417391        2       0.00000000       0.00280608      -0.01020992       0.04053412
Pt       8.42164222       6.48298341      24.58417381        2       0.00000000      -0.01135914      -0.00627091       0.03709666
Pt       0.01106170       0.00252082      26.92150357        1       0.00000000       0.00642453      -0.00133160      -0.01042168
Pt       2.79553371      -0.00132759      26.92152298        1       0.00000000      -0.00575058       0.00393978      -0.00975886
Pt       5.61442660       0.00000245      26.90124208        1       0.00000000      -0.00000002      -0.00000020       0.03184807
Pt       1.40361156       2.43112038      26.92543812        1       0.00000000      -0.00000793      -0.00000781      -0.02469728
Pt       4.20311776       2.43943997      26.92150148        1       0.00000000      -0.00204621       0.00622664      -0.01041897
Pt       7.02273689       2.44189829      26.92152923        1       0.00000000       0.00627152       0.00300944      -0.00975027
Pt       2.81419138       4.85278685      26.92151625        1       0.00000000      -0.00052943      -0.00693899      -0.00977283
Pt       5.61442158       4.86223624      26.92612135        1       0.00000000       0.00001042       0.00001022      -0.02824326
Pt       8.41828109       4.85139963      26.92150527        1       0.00000000      -0.00438147      -0.00490054      -0.01042018
C        5.61442493       0.00000543      29.93894900        0       1.00000000      -0.00000892       0.00001504      -0.00343782
H        5.61443113      -0.00000580      28.76323906        0       0.00000000       0.00000937      -0.00001910      -0.00776245
