38
Lattice="8.421641763931781 0.0 0.0 4.2108208819658905 7.293355709136913 0.0 0.0 0.0 46.87624170604845" Properties=species:S:1:pos:R:3:tags:I:1:initial_magmoms:R:1:forces:R:3 charge=0 spin=0 energy=-197.98584533413174 free_energy=-197.98584533413174 stress="0.0075075868517160416 -0.00017161159485112876 -6.723892875015736e-05 -0.00017161159485112876 0.007612584158778191 -5.326845348463394e-05 -6.723892875015736e-05 -5.326845348463394e-05 -0.000680496683344245" pbc="T T T"
Pt      -0.00000012       0.00000002      19.95723426        4       0.00000000      -0.00231342       0.00426278       0.00854152
Pt       2.80721404      -0.00000018      19.95723442        4       0.00000000      -0.00920849      -0.00592364      -0.01014959
Pt       5.61442782      -0.00000007      19.95723448        4       0.00000000       0.00443220       0.01559725      -0.01429903
Pt       1.40360721       2.43111841      19.95723428        4       0.00000000       0.00268644      -0.00511249       0.02798775
Pt       4.21082083       2.43111835      19.95723436        4       0.00000000       0.01420506      -0.01154093      -0.01345314
Pt       7.01803478       2.43111845      19.95723424        4       0.00000000      -0.02127229      -0.00556223       0.00348195
Pt       2.80721407       4.86223728      19.95723400        4       0.00000000      -0.00544093      -0.00331920       0.01825044
Pt       5.61442803       4.86223733      19.95723419        4       0.00000000       0.00341144       0.00021638       0.00818096
Pt       8.42164139       4.86223726      19.95723434        4       0.00000000      -0.00026131       0.00365793       0.02682395
Pt       1.40360728       0.81037259      22.29206791        3       0.00000000       0.02509351       0.00134800      -0.07141110
Pt       4.21082130       0.81037249      22.29206784        3       0.00000000      -0.00727363      -0.00089940      -0.26158810
Pt       7.01803471       0.81037256      22.29206781        3       0.00000000      -0.04264697       0.00261576      -0.11853788
Pt       2.80721448       3.24149124      22.29206773        3       0.00000000       0.06237280      -0.04610070      -0.13131651
Pt       5.61442763       3.24149123      22.29206786        3       0.00000000      -0.02807381      -0.03548960      -0.12910141
Pt       8.42164156       3.24149129      22.29206804        3       0.00000000      -0.03724390      -0.01950935      -0.01792117
Pt       4.21082092       5.67260997      22.29206793        3       0.00000000      -0.01048087      -0.00653576      -0.07846476
Pt       7.01803487       5.67261037      22.29206776        3       0.00000000       0.01497403       0.02052815      -0.06749436
Pt       9.82524821       5.67261065      22.29206806        3       0.00000000      -0.00713723       0.07508340      -0.12947670
Pt      -0.00000053       1.62074569      24.58417386        2       0.00000000       0.04940447       0.12706783       0.23325373
Pt       2.80721443       1.62074549      24.58417398        2       0.00000000      -0.19497046       0.12243972       0.28610760
Pt       5.61442778       1.62074537      24.58417377        2       0.00000000       0.12595412       0.06036012       0.19784197
Pt       1.40360637       4.05186439      24.58417390        2       0.00000000      -0.14029326      -0.07492372      -0.17435017
Pt       4.21082088       4.05186403      24.58417379        2       0.00000000      -0.00476374       0.00700272       0.00140018
Pt       7.01803504       4.05186408      24.58417406        2       0.00000000       0.15341976      -0.02200004       0.23822899
Pt       2.80721282       6.48298343      24.58417376        2       0.00000000      -0.00526916      -0.02020530       0.00291419
Pt       5.61442796       6.48298325      24.58417391        2       0.00000000       0.03107479       0.01990047      -0.08713654
Pt       8.42164222       6.48298341      24.58417381        2       0.00000000      -0.00120934      -0.24213372       0.28601786
Pt       0.01649814      -0.01351852      26.89595807        1       0.00000000       0.00212330       0.02252328      -0.00610570
Pt       2.82461106       0.01024058      26.89456599        1       0.00000000      -0.01526754      -0.01542963       0.00469606
Pt       5.61525544      -0.01036100      26.90495343        1       0.00000000       0.00471039       0.03142136      -0.00751472
Pt       1.49656714       2.34053295      27.23593317        1       0.00000000       0.00736356      -0.01403319      -0.01547273
Pt       4.20546999       2.43651112      26.90571559        1       0.00000000       0.01374352      -0.00362859      -0.00148293
Pt       6.90580465       2.36446755      27.03483567        1       0.00000000       0.00415595       0.00147384      -0.01587258
Pt       2.91459047       4.92106167      27.01446485        1       0.00000000       0.00595244      -0.00995806       0.00146514
Pt       5.62021584       4.88115146      26.89561776        1       0.00000000       0.01696176      -0.00491083       0.00219611
Pt       8.39561313       4.99417530      27.26586862        1       0.00000000      -0.02106614      -0.01281799       0.00092934
C        8.34724794       3.19539558      27.94556274        0       1.00000000      -0.00023336       0.02648214      -0.00048999
H        9.88477788       4.10919982      26.33009261        0       0.00000000       0.01238652       0.01805336       0.00332107
