38
Lattice="8.421641763931781 0.0 0.0 4.2108208819658905 7.293355709136913 0.0 0.0 0.0 46.87624170604845" Properties=species:S:1:pos:R:3:tags:I:1:initial_magmoms:R:1:forces:R:3 charge=0 spin=0 energy=-197.9390847750497 free_energy=-197.9390847750497 stress="0.007025787606835365 -1.4517108581912908e-07 -6.3557057394803e-09 -1.4517108581912908e-07 0.007025154773145914 -1.1183526993363557e-08 -6.3557057394803e-09 -1.1183526993363557e-08 -0.0010193610796704888" pbc="T T T"
Pt      -0.00000012       0.00000002      19.95723426        4       0.00000000       0.00392414       0.00199441       0.01476012
Pt       2.80721404      -0.00000018      19.95723442        4       0.00000000       0.00117652       0.00764308       0.01768901
Pt       5.61442782      -0.00000007      19.95723448        4       0.00000000      -0.00024252      -0.00441250       0.01462638
Pt       1.40360721       2.43111841      19.95723428        4       0.00000000       0.00892102       0.00343533      -0.02548630
Pt       4.21082083       2.43111835      19.95723436        4       0.00000000      -0.00748159       0.00600260      -0.02557321
Pt       7.01803478       2.43111845      19.95723424        4       0.00000000      -0.00367863       0.00242221       0.01480672
Pt       2.80721407       4.86223728      19.95723400        4       0.00000000      -0.00143717      -0.00943781      -0.02556657
Pt       5.61442803       4.86223733      19.95723419        4       0.00000000      -0.00725214      -0.00274699       0.01779211
Pt       8.42164139       4.86223726      19.95723434        4       0.00000000       0.00607545      -0.00490145       0.01775483
Pt       1.40360728       0.81037259      22.29206791        3       0.00000000       0.00604719       0.07320911      -0.13173506
Pt       4.21082130       0.81037249      22.29206784        3       0.00000000      -0.00257873       0.08184438      -0.13914298
Pt       7.01803471       0.81037256      22.29206781        3       0.00000000       0.00000273       0.00000034      -0.10852288
Pt       2.80721448       3.24149124      22.29206773        3       0.00000000      -0.00000474       0.00000863      -0.26968905
Pt       5.61442763       3.24149123      22.29206786        3       0.00000000      -0.06632585      -0.03133347      -0.13138342
Pt       8.42164156       3.24149129      22.29206804        3       0.00000000       0.07216796      -0.03877919      -0.13893113
Pt       4.21082092       5.67260997      22.29206793        3       0.00000000      -0.06958655      -0.04305666      -0.13933942
Pt       7.01803487       5.67261037      22.29206776        3       0.00000000      -0.00000141      -0.00000530      -0.22161202
Pt       9.82524821       5.67261065      22.29206806        3       0.00000000       0.06029337      -0.04188359      -0.13187130
Pt      -0.00000053       1.62074569      24.58417386        2       0.00000000      -0.00473033       0.00743617      -0.07354951
Pt       2.80721443       1.62074549      24.58417398        2       0.00000000      -0.00236953      -0.12333446       0.27895853
Pt       5.61442778       1.62074537      24.58417377        2       0.00000000      -0.00404267      -0.00793708      -0.07366308
Pt       1.40360637       4.05186439      24.58417390        2       0.00000000      -0.10556956       0.06366812       0.27894083
Pt       4.21082088       4.05186403      24.58417379        2       0.00000000       0.10783224       0.05959254       0.27900264
Pt       7.01803504       4.05186408      24.58417406        2       0.00000000       0.00637000      -0.56878620       0.29056606
Pt       2.80721282       6.48298343      24.58417376        2       0.00000000       0.00869322       0.00057229      -0.07332708
Pt       5.61442796       6.48298325      24.58417391        2       0.00000000      -0.49565551       0.27904159       0.29084179
Pt       8.42164222       6.48298341      24.58417381        2       0.00000000       0.48941010       0.28973714       0.29068530
Pt      -0.00934813       0.00615373      26.89729375        1       0.00000000      -0.02511887       0.01997458      -0.00601723
Pt       2.80547390       0.14538391      27.19010663        1       0.00000000       0.00371273       0.03264850      -0.02255846
Pt       5.62441363       0.00501341      26.89728123        1       0.00000000       0.02984767       0.01179565      -0.00597982
Pt       1.39148372       2.42533639      26.89844382        1       0.00000000       0.02762865       0.01331127      -0.01466357
Pt       4.22187427       2.42352515      26.89842918        1       0.00000000      -0.02544476       0.01706517      -0.01464224
Pt       7.01737628       2.41995044      26.89732786        1       0.00000000      -0.00464310      -0.03171200      -0.00596065
Pt       2.80823541       4.87560968      26.89837894        1       0.00000000      -0.00218919      -0.03058368      -0.01464406
Pt       5.48933571       4.78802719      27.19007307        1       0.00000000      -0.02898143      -0.01250720      -0.02210880
Pt       8.54844036       4.79102171      27.19008812        1       0.00000000       0.02523514      -0.01893220      -0.02211321
C        7.01802028       5.67264272      27.90602436        0       1.00000000      -0.00000900      -0.00104282       0.03416017
H        7.01803418       5.67261245      25.35766456        0       0.00000000       0.00000526      -0.00001033      -0.00250368
