38
Lattice="8.421641763931781 0.0 0.0 4.2108208819658905 7.293355709136913 0.0 0.0 0.0 46.87624170604845" Properties=species:S:1:pos:R:3:tags:I:1:initial_magmoms:R:1:forces:R:3 charge=0 spin=0 energy=-197.93952155788662 free_energy=-197.93952155788662 stress="0.0070369360037148 -1.2804474636141094e-06 -1.001900045594084e-06 -1.2804474636141094e-06 0.007045464124530554 -3.342210675327806e-06 -1.001900045594084e-06 -3.342210675327806e-06 -0.0010360447922721505" pbc="T T T"
Pt      -0.00000012       0.00000002      19.95723426        4       0.00000000      -0.00033103      -0.00455419       0.01463836
Pt       2.80721404      -0.00000018      19.95723442        4       0.00000000       0.00410781       0.00202410       0.01473825
Pt       5.61442782      -0.00000007      19.95723448        4       0.00000000       0.00101362       0.00822274       0.01814929
Pt       1.40360721       2.43111841      19.95723428        4       0.00000000      -0.00376820       0.00257639       0.01478007
Pt       4.21082083       2.43111835      19.95723436        4       0.00000000       0.00845405       0.00311524      -0.02559308
Pt       7.01803478       2.43111845      19.95723424        4       0.00000000      -0.00698398       0.00575239      -0.02565311
Pt       2.80721407       4.86223728      19.95723400        4       0.00000000       0.00664561      -0.00505317       0.01822749
Pt       5.61442803       4.86223733      19.95723419        4       0.00000000      -0.00148249      -0.00890312      -0.02558282
Pt       8.42164139       4.86223726      19.95723434        4       0.00000000      -0.00765769      -0.00317223       0.01826450
Pt       1.40360728       0.81037259      22.29206791        3       0.00000000      -0.00000220       0.00000299      -0.10972898
Pt       4.21082130       0.81037249      22.29206784        3       0.00000000       0.00668947       0.07337516      -0.12935060
Pt       7.01803471       0.81037256      22.29206781        3       0.00000000      -0.00267515       0.08140707      -0.13698623
Pt       2.80721448       3.24149124      22.29206773        3       0.00000000       0.07188926      -0.03847894      -0.13669458
Pt       5.61442763       3.24149123      22.29206786        3       0.00000000      -0.00002503      -0.00007858      -0.27012929
Pt       8.42164156       3.24149129      22.29206804        3       0.00000000      -0.06678719      -0.03085446      -0.12894654
Pt       4.21082092       5.67260997      22.29206793        3       0.00000000       0.06006517      -0.04245808      -0.12943013
Pt       7.01803487       5.67261037      22.29206776        3       0.00000000      -0.06914510      -0.04291344      -0.13708894
Pt       9.82524821       5.67261065      22.29206806        3       0.00000000       0.00001357       0.00003423      -0.22580853
Pt      -0.00000053       1.62074569      24.58417386        2       0.00000000      -0.00501440      -0.00634147      -0.07648008
Pt       2.80721443       1.62074549      24.58417398        2       0.00000000      -0.00288507       0.00766661      -0.07622198
Pt       5.61442778       1.62074537      24.58417377        2       0.00000000      -0.00521030      -0.12812188       0.26578787
Pt       1.40360637       4.05186439      24.58417390        2       0.00000000       0.00689763      -0.57241744       0.29367661
Pt       4.21082088       4.05186403      24.58417379        2       0.00000000      -0.10869177       0.06838562       0.26655185
Pt       7.01803504       4.05186408      24.58417406        2       0.00000000       0.11371055       0.05968287       0.26679569
Pt       2.80721282       6.48298343      24.58417376        2       0.00000000       0.49188071       0.29170033       0.29392269
Pt       5.61442796       6.48298325      24.58417391        2       0.00000000       0.00795980      -0.00107429      -0.07610118
Pt       8.42164222       6.48298341      24.58417381        2       0.00000000      -0.49880546       0.28021476       0.29420337
Pt       0.01744383       0.00931307      26.90050032        1       0.00000000      -0.00894738      -0.01496123      -0.01232657
Pt       2.79032769       0.01045161      26.90062418        1       0.00000000       0.01732609      -0.00063226      -0.01267789
Pt       5.61144162       0.14271029      27.18456036        1       0.00000000       0.00045937       0.01905563      -0.00993292
Pt       1.40296447       2.41124528      26.90067361        1       0.00000000      -0.00851055       0.01505376      -0.01288530
Pt       4.20139450       2.43076062      26.89458587        1       0.00000000       0.01539752      -0.01264733       0.00145074
Pt       7.02285721       2.42294632      26.89444635        1       0.00000000       0.00505389       0.02269169       0.00176259
Pt       2.93181298       4.79361294      27.18464996        1       0.00000000       0.02956483      -0.01649055      -0.01471875
Pt       5.61884755       4.87037759      26.89428174        1       0.00000000      -0.01932633      -0.00679803       0.00196982
Pt       8.30011462       4.78862104      27.18467132        1       0.00000000      -0.03514341      -0.01926184      -0.01668838
C        9.82506452       5.67206818      27.91130515        0       1.00000000       0.00416742       0.01392834       0.01814554
H        9.82521482       5.67251516      25.36083793        0       0.00000000       0.00009619       0.00032247      -0.01403880
