38
Lattice="8.421641763931781 0.0 0.0 4.2108208819658905 7.293355709136913 0.0 0.0 0.0 46.87624170604845" Properties=species:S:1:pos:R:3:tags:I:1:initial_magmoms:R:1:forces:R:3 charge=0 spin=0 energy=-192.90342498501064 free_energy=-192.90342498501064 stress="0.010173275135457516 -1.0141120299067552e-07 1.909560953805567e-09 -1.0141120299067552e-07 0.010173262096941471 -9.841794046394625e-10 1.909560953805567e-09 -9.841794046394625e-10 -0.00016924343071877956" pbc="T T T"
Pt      -0.00000012       0.00000002      19.95723426        4       0.00000000       0.00273660      -0.00350115       0.01723558
Pt       2.80721404      -0.00000018      19.95723442        4       0.00000000      -0.00062556      -0.00353922       0.01651480
Pt       5.61442782      -0.00000007      19.95723448        4       0.00000000      -0.00000022       0.00000391       0.01380299
Pt       1.40360721       2.43111841      19.95723428        4       0.00000000      -0.00000116       0.00000157       0.01525903
Pt       4.21082083       2.43111835      19.95723436        4       0.00000000       0.00166188       0.00412302       0.01723263
Pt       7.01803478       2.43111845      19.95723424        4       0.00000000      -0.00275589       0.00230834       0.01648967
Pt       2.80721407       4.86223728      19.95723400        4       0.00000000       0.00337995       0.00123156       0.01650116
Pt       5.61442803       4.86223733      19.95723419        4       0.00000000      -0.00000159      -0.00000421      -0.01118040
Pt       8.42164139       4.86223726      19.95723434        4       0.00000000      -0.00439314      -0.00062513       0.01722650
Pt       1.40360728       0.81037259      22.29206791        3       0.00000000       0.00150335       0.00322923      -0.05268734
Pt       4.21082130       0.81037249      22.29206784        3       0.00000000       0.00116362      -0.00014339      -0.05159330
Pt       7.01803471       0.81037256      22.29206781        3       0.00000000      -0.00074248      -0.00092900      -0.05161290
Pt       2.80721448       3.24149124      22.29206773        3       0.00000000      -0.00352382      -0.00031890      -0.05268481
Pt       5.61442763       3.24149123      22.29206786        3       0.00000000      -0.00098176       0.00574905      -0.04118719
Pt       8.42164156       3.24149129      22.29206804        3       0.00000000       0.00201690      -0.00290796      -0.05268278
Pt       4.21082092       5.67260997      22.29206793        3       0.00000000       0.00548314      -0.00205477      -0.04119193
Pt       7.01803487       5.67261037      22.29206776        3       0.00000000      -0.00450406      -0.00369593      -0.04116853
Pt       9.82524821       5.67261065      22.29206806        3       0.00000000      -0.00041638       0.00107589      -0.05159567
Pt      -0.00000053       1.62074569      24.58417386        2       0.00000000      -0.00191179       0.00573343       0.04077917
Pt       2.80721443       1.62074549      24.58417398        2       0.00000000      -0.00398534      -0.00443202       0.04078799
Pt       5.61442778       1.62074537      24.58417377        2       0.00000000       0.00070562       0.00376790       0.03847198
Pt       1.40360637       4.05186439      24.58417390        2       0.00000000       0.00589037      -0.00126409       0.04079234
Pt       4.21082088       4.05186403      24.58417379        2       0.00000000       0.00244342       0.00535307       0.01950137
Pt       7.01803504       4.05186408      24.58417406        2       0.00000000      -0.00586117      -0.00060318       0.01946450
Pt       2.80721282       6.48298343      24.58417376        2       0.00000000       0.00289428      -0.00250220       0.03841204
Pt       5.61442796       6.48298325      24.58417391        2       0.00000000       0.00341540      -0.00476471       0.01938827
Pt       8.42164222       6.48298341      24.58417381        2       0.00000000      -0.00358616      -0.00129262       0.03838403
Pt       0.01176845       0.00142887      26.91883204        1       0.00000000      -0.00290907       0.00200016       0.00085437
Pt       2.79524377      -0.00006506      26.91895719        1       0.00000000       0.00217364      -0.00105563       0.00110621
Pt       5.61442755       0.00000040      26.90598153        1       0.00000000      -0.00000096      -0.00000098      -0.00328090
Pt       1.40360822       2.43111627      26.91834541        1       0.00000000       0.00001030      -0.00000924       0.00810278
Pt       4.20371044       2.44060975      26.91885539        1       0.00000000      -0.00026886      -0.00358373       0.00076944
Pt       7.02397119       2.44153389      26.91898196        1       0.00000000      -0.00200221      -0.00143154       0.00106227
Pt       2.81324725       4.85188675      26.91896692        1       0.00000000      -0.00017710       0.00248797       0.00103967
Pt       5.61442678       4.86223901      26.91804241        1       0.00000000      -0.00001140       0.00000801       0.00909137
Pt       8.41698426       4.85131717      26.91885522        1       0.00000000       0.00317984       0.00158833       0.00078901
C        5.61442769       0.00000010      29.93871802        0       1.00000000      -0.00000062       0.00000082      -0.01291328
H        5.61442796      -0.00000010      28.76194016        0       0.00000000       0.00000252      -0.00000266       0.01471998
