38
Lattice="8.421641763931781 0.0 0.0 4.2108208819658905 7.293355709136913 0.0 0.0 0.0 46.87624170604845" Properties=species:S:1:pos:R:3:tags:I:1:initial_magmoms:R:1:forces:R:3 charge=0 spin=0 energy=-192.90314460476162 free_energy=-192.90314460476162 stress="0.010230033658444881 -1.1070208216779065e-07 1.0197017452640011e-08 -1.1070208216779065e-07 0.010230019688606262 -5.942407899084401e-09 1.0197017452640011e-08 -5.942407899084401e-09 -7.247921894304454e-05" pbc="T T T"
Pt      -0.00000012       0.00000002      19.95723426        4       0.00000000       0.00000249      -0.00000113      -0.01058824
Pt       2.80721404      -0.00000018      19.95723442        4       0.00000000      -0.00436186      -0.00080574       0.01717756
Pt       5.61442782      -0.00000007      19.95723448        4       0.00000000       0.00336054       0.00125637       0.01644139
Pt       1.40360721       2.43111841      19.95723428        4       0.00000000      -0.00060164      -0.00353399       0.01647671
Pt       4.21082083       2.43111835      19.95723436        4       0.00000000       0.00000209       0.00000164       0.01367848
Pt       7.01803478       2.43111845      19.95723424        4       0.00000000       0.00287940      -0.00337529       0.01719944
Pt       2.80721407       4.86223728      19.95723400        4       0.00000000       0.00148060       0.00418166       0.01719667
Pt       5.61442803       4.86223733      19.95723419        4       0.00000000      -0.00276146       0.00227884       0.01644226
Pt       8.42164139       4.86223726      19.95723434        4       0.00000000       0.00000179      -0.00000483       0.01532943
Pt       1.40360728       0.81037259      22.29206791        3       0.00000000      -0.00376994      -0.00332111      -0.03999384
Pt       4.21082130       0.81037249      22.29206784        3       0.00000000      -0.00041062       0.00116434      -0.05310901
Pt       7.01803471       0.81037256      22.29206781        3       0.00000000       0.00479987      -0.00160214      -0.04001209
Pt       2.80721448       3.24149124      22.29206773        3       0.00000000       0.00121614      -0.00020040      -0.05309495
Pt       5.61442763       3.24149123      22.29206786        3       0.00000000      -0.00081369      -0.00095606      -0.05311621
Pt       8.42164156       3.24149129      22.29206804        3       0.00000000       0.00148365       0.00369246      -0.05281630
Pt       4.21082092       5.67260997      22.29206793        3       0.00000000      -0.00103321       0.00493392      -0.04000494
Pt       7.01803487       5.67261037      22.29206776        3       0.00000000       0.00242586      -0.00312327      -0.05281955
Pt       9.82524821       5.67261065      22.29206806        3       0.00000000      -0.00389895      -0.00058478      -0.05282302
Pt      -0.00000053       1.62074569      24.58417386        2       0.00000000       0.00281097      -0.01020755       0.04053621
Pt       2.80721443       1.62074549      24.58417398        2       0.00000000      -0.01135596      -0.00626185       0.03709531
Pt       5.61442778       1.62074537      24.58417377        2       0.00000000       0.01110353      -0.00670110       0.03713802
Pt       1.40360637       4.05186439      24.58417390        2       0.00000000      -0.00900276      -0.00254295       0.05936626
Pt       4.21082088       4.05186403      24.58417379        2       0.00000000       0.00026509       0.01298330       0.03716620
Pt       7.01803504       4.05186408      24.58417406        2       0.00000000       0.00226368       0.00910546       0.05936647
Pt       2.80721282       6.48298343      24.58417376        2       0.00000000       0.00747589       0.00754682       0.04062805
Pt       5.61442796       6.48298325      24.58417391        2       0.00000000      -0.01028206       0.00264521       0.04058788
Pt       8.42164222       6.48298341      24.58417381        2       0.00000000       0.00672873      -0.00657155       0.05939405
Pt      -0.00000655      -0.00000112      26.92612116        1       0.00000000       0.00000870       0.00001069      -0.02824276
Pt       2.80385348      -0.01083774      26.92150500        1       0.00000000      -0.00437807      -0.00489881      -0.01041931
Pt       5.62140501      -0.00944998      26.92151750        1       0.00000000      -0.00052948      -0.00693846      -0.00977538
Pt       1.39192662       2.42979077      26.92152235        1       0.00000000      -0.00574707       0.00393910      -0.00975998
Pt       4.21082009       2.43112067      26.90124192        1       0.00000000      -0.00000143      -0.00000009       0.03184394
Pt       7.02909628       2.43363945      26.92150405        1       0.00000000       0.00642417      -0.00133263      -0.01042781
Pt       2.79951068       4.87055854      26.92150033        1       0.00000000      -0.00204617       0.00622564      -0.01042166
Pt       5.61913037       4.87301667      26.92152838        1       0.00000000       0.00626803       0.00300915      -0.00974393
Pt       8.42164597       4.86223923      26.92543863        1       0.00000000      -0.00000766      -0.00000992      -0.02469673
C        4.21082044       2.43112090      29.93894913        0       1.00000000      -0.00000031       0.00000739      -0.00343672
H        4.21082138       2.43111580      28.76323800        0       0.00000000       0.00000080      -0.00000831      -0.00776160
