38
Lattice="8.421641763931781 0.0 0.0 4.2108208819658905 7.293355709136913 0.0 0.0 0.0 46.87624170604845" Properties=species:S:1:pos:R:3:tags:I:1:initial_magmoms:R:1:forces:R:3 charge=0 spin=0 energy=-197.5079667635751 free_energy=-197.5079667635751 stress="0.009007444605231285 -1.4250464630549686e-07 3.2595291798998005e-08 -1.4250464630549686e-07 0.009008246473968029 3.5074256743428123e-07 3.2595291798998005e-08 3.5074256743428123e-07 -0.0009221543441526592" pbc="T T T"
Pt      -0.00000012       0.00000002      19.95723426        4       0.00000000      -0.00509352       0.00339299       0.02224214
Pt       2.80721404      -0.00000018      19.95723442        4       0.00000000       0.00544455       0.00269745       0.02207863
Pt       5.61442782      -0.00000007      19.95723448        4       0.00000000       0.00285692       0.02436199      -0.03719937
Pt       1.40360721       2.43111841      19.95723428        4       0.00000000      -0.00103471       0.00887747       0.01952219
Pt       4.21082083       2.43111835      19.95723436        4       0.00000000       0.01969426      -0.01467546      -0.03729695
Pt       7.01803478       2.43111845      19.95723424        4       0.00000000      -0.02255368      -0.00971749      -0.03708624
Pt       2.80721407       4.86223728      19.95723400        4       0.00000000      -0.00717706      -0.00529570       0.01925554
Pt       5.61442803       4.86223733      19.95723419        4       0.00000000      -0.00035341      -0.00609382       0.02200749
Pt       8.42164139       4.86223726      19.95723434        4       0.00000000       0.00821055      -0.00358652       0.01931738
Pt       1.40360728       0.81037259      22.29206791        3       0.00000000      -0.00545830       0.02593859      -0.01600245
Pt       4.21082130       0.81037249      22.29206784        3       0.00000000       0.04314294       0.02421602      -0.19458628
Pt       7.01803471       0.81037256      22.29206781        3       0.00000000      -0.04262529       0.02517483      -0.19445398
Pt       2.80721448       3.24149124      22.29206773        3       0.00000000       0.08903300      -0.05167096      -0.15173478
Pt       5.61442763       3.24149123      22.29206786        3       0.00000000      -0.00051394      -0.04935558      -0.19475201
Pt       8.42164156       3.24149129      22.29206804        3       0.00000000      -0.08925381      -0.05116519      -0.15166767
Pt       4.21082092       5.67260997      22.29206793        3       0.00000000      -0.01978251      -0.01769810      -0.01651321
Pt       7.01803487       5.67261037      22.29206776        3       0.00000000       0.02523469      -0.00821909      -0.01658857
Pt       9.82524821       5.67261065      22.29206806        3       0.00000000       0.00021915       0.10278060      -0.15199727
Pt      -0.00000053       1.62074569      24.58417386        2       0.00000000       0.20949356       0.14627141       0.31619963
Pt       2.80721443       1.62074549      24.58417398        2       0.00000000      -0.20778064       0.15031737       0.31754795
Pt       5.61442778       1.62074537      24.58417377        2       0.00000000       0.00001231      -0.00006030      -0.24135402
Pt       1.40360637       4.05186439      24.58417390        2       0.00000000      -0.00002672      -0.00037328      -0.66404474
Pt       4.21082088       4.05186403      24.58417379        2       0.00000000      -0.23121412       0.10834067       0.31642461
Pt       7.01803504       4.05186408      24.58417406        2       0.00000000       0.23388049       0.10497781       0.31793591
Pt       2.80721282       6.48298343      24.58417376        2       0.00000000      -0.02615042      -0.25521567       0.31798354
Pt       5.61442796       6.48298325      24.58417391        2       0.00000000       0.00000987      -0.00003653      -0.02005656
Pt       8.42164222       6.48298341      24.58417381        2       0.00000000       0.02179592      -0.25453678       0.31630918
Pt       0.00269938      -0.00290784      26.90031325        1       0.00000000      -0.03762443       0.02816370       0.00971164
Pt       2.80345466      -0.00104765      26.90031882        1       0.00000000       0.04310858       0.01854412       0.00971609
Pt       5.61502003       0.02390427      26.89809797        1       0.00000000       0.00033838       0.00468768       0.00830913
Pt       1.40167418       2.32608955      27.29314346        1       0.00000000      -0.00613448      -0.01513931      -0.00163464
Pt       4.23118438       2.41863763      26.89800637        1       0.00000000       0.00408881      -0.00291629       0.00843653
Pt       6.99706566       2.41969146      26.89799848        1       0.00000000      -0.00452830      -0.00221898       0.00844845
Pt       2.89894913       4.91284097      27.29317858        1       0.00000000       0.01749474       0.00311186      -0.00199520
Pt       5.61550522       4.86603399      26.90034406        1       0.00000000      -0.00541754      -0.04688225       0.00952843
Pt       8.33185035       4.91618514      27.29315102        1       0.00000000      -0.01125598       0.01367577      -0.00193307
C        9.82525480       4.05173145      28.17378255        0       1.00000000      -0.00010635      -0.00146281       0.01519504
H        9.82527624       4.05263067      26.17345710        0       0.00000000       0.00002676       0.00078999       0.03472732
