38
Lattice="8.421641763931781 0.0 0.0 4.2108208819658905 7.293355709136913 0.0 0.0 0.0 46.87624170604845" Properties=species:S:1:pos:R:3:tags:I:1:initial_magmoms:R:1:forces:R:3 charge=0 spin=0 energy=-197.93952155788662 free_energy=-197.93952155788662 stress="0.007036963012069464 -1.4078427739150357e-06 -1.1063639249186963e-06 -1.4078427739150357e-06 0.007045513950288296 -3.354185082571348e-06 -1.1063639249186963e-06 -3.354185082571348e-06 -0.0010359628358855844" pbc="T T T"
Pt      -0.00000012       0.00000002      19.95723426        4       0.00000000      -0.00376529       0.00257426       0.01477912
Pt       2.80721404      -0.00000018      19.95723442        4       0.00000000       0.00845037       0.00311606      -0.02560375
Pt       5.61442782      -0.00000007      19.95723448        4       0.00000000      -0.00698408       0.00575552      -0.02566081
Pt       1.40360721       2.43111841      19.95723428        4       0.00000000       0.00664325      -0.00504877       0.01822694
Pt       4.21082083       2.43111835      19.95723436        4       0.00000000      -0.00147855      -0.00889852      -0.02558142
Pt       7.01803478       2.43111845      19.95723424        4       0.00000000      -0.00766021      -0.00316622       0.01826473
Pt       2.80721407       4.86223728      19.95723400        4       0.00000000      -0.00033138      -0.00455672       0.01463963
Pt       5.61442803       4.86223733      19.95723419        4       0.00000000       0.00410800       0.00201805       0.01474725
Pt       8.42164139       4.86223726      19.95723434        4       0.00000000       0.00101498       0.00821442       0.01815758
Pt       1.40360728       0.81037259      22.29206791        3       0.00000000       0.07189361      -0.03847783      -0.13669704
Pt       4.21082130       0.81037249      22.29206784        3       0.00000000      -0.00003222      -0.00007214      -0.27012572
Pt       7.01803471       0.81037256      22.29206781        3       0.00000000      -0.06678986      -0.03085219      -0.12894306
Pt       2.80721448       3.24149124      22.29206773        3       0.00000000       0.06006047      -0.04245830      -0.12943278
Pt       5.61442763       3.24149123      22.29206786        3       0.00000000      -0.06914066      -0.04290710      -0.13709557
Pt       8.42164156       3.24149129      22.29206804        3       0.00000000       0.00001135       0.00004738      -0.22580931
Pt       4.21082092       5.67260997      22.29206793        3       0.00000000      -0.00000116       0.00000194      -0.10972875
Pt       7.01803487       5.67261037      22.29206776        3       0.00000000       0.00668759       0.07336204      -0.12935291
Pt       9.82524821       5.67261065      22.29206806        3       0.00000000      -0.00267038       0.08139123      -0.13698696
Pt      -0.00000053       1.62074569      24.58417386        2       0.00000000       0.00689196      -0.57239699       0.29370415
Pt       2.80721443       1.62074549      24.58417398        2       0.00000000      -0.10869334       0.06838397       0.26654923
Pt       5.61442778       1.62074537      24.58417377        2       0.00000000       0.11372058       0.05968796       0.26682743
Pt       1.40360637       4.05186439      24.58417390        2       0.00000000       0.49185297       0.29169276       0.29394600
Pt       4.21082088       4.05186403      24.58417379        2       0.00000000       0.00796566      -0.00107081      -0.07609537
Pt       7.01803504       4.05186408      24.58417406        2       0.00000000      -0.49878326       0.28020975       0.29421979
Pt       2.80721282       6.48298343      24.58417376        2       0.00000000      -0.00500737      -0.00634353      -0.07647040
Pt       5.61442796       6.48298325      24.58417391        2       0.00000000      -0.00288489       0.00766106      -0.07622025
Pt       8.42164222       6.48298341      24.58417381        2       0.00000000      -0.00521407      -0.12813130       0.26580220
Pt      -0.00064193      -0.01987586      26.90067639        1       0.00000000      -0.00851148       0.01507351      -0.01289299
Pt       2.79778507      -0.00035989      26.89458413        1       0.00000000       0.01541280      -0.01264497       0.00144891
Pt       5.61925477      -0.00817178      26.89445198        1       0.00000000       0.00503827       0.02269283       0.00174005
Pt       1.52821997       2.36248784      27.18466228        1       0.00000000       0.02931306      -0.01633502      -0.01465085
Pt       4.21523914       2.43926270      26.89428609        1       0.00000000      -0.01926753      -0.00681285       0.00195290
Pt       6.89651607       2.35750267      27.18468915        1       0.00000000      -0.03543024      -0.01941623      -0.01682616
Pt       2.82465891       4.87155275      26.90050175        1       0.00000000      -0.00897670      -0.01497751      -0.01232470
Pt       5.59753964       4.87268840      26.90062602        1       0.00000000       0.01734099      -0.00064113      -0.01268418
Pt       8.41864873       5.00495152      27.18457119        1       0.00000000       0.00051810       0.01904336      -0.00995205
C        8.42144270       3.24094886      27.91130127        0       1.00000000       0.00459897       0.01395779       0.01818053
H        8.42160757       3.24139560      25.36084186        0       0.00000000       0.00009969       0.00032432      -0.01405161
