38
Lattice="8.421641763931781 0.0 0.0 4.2108208819658905 7.293355709136913 0.0 0.0 0.0 46.87624170604845" Properties=species:S:1:pos:R:3:tags:I:1:initial_magmoms:R:1:forces:R:3 charge=0 spin=0 energy=-192.90316177089932 free_energy=-192.90316177089932 stress="0.01013739500194788 -9.351015961556186e-08 4.129142361364302e-09 -9.351015961556186e-08 0.010137402452528477 -2.7454714057739693e-09 4.129142361364302e-09 -2.7454714057739693e-09 -0.00024293804017361253" pbc="T T T"
Pt      -0.00000012       0.00000002      19.95723426        4       0.00000000      -0.00268716       0.00218391       0.01646635
Pt       2.80721404      -0.00000018      19.95723442        4       0.00000000      -0.00000212       0.00000355       0.01529357
Pt       5.61442782      -0.00000007      19.95723448        4       0.00000000       0.00161329       0.00398606       0.01716679
Pt       1.40360721       2.43111841      19.95723428        4       0.00000000      -0.00425149      -0.00059061       0.01717340
Pt       4.21082083       2.43111835      19.95723436        4       0.00000000       0.00324148       0.00124055       0.01647875
Pt       7.01803478       2.43111845      19.95723424        4       0.00000000      -0.00000081       0.00000009      -0.01068074
Pt       2.80721407       4.86223728      19.95723400        4       0.00000000       0.00000122      -0.00000290       0.01379928
Pt       5.61442803       4.86223733      19.95723419        4       0.00000000       0.00263528      -0.00339406       0.01718138
Pt       8.42164139       4.86223726      19.95723434        4       0.00000000      -0.00054866      -0.00342825       0.01650102
Pt       1.40360728       0.81037259      22.29206791        3       0.00000000       0.00187462      -0.00285801      -0.05212888
Pt       4.21082130       0.81037249      22.29206784        3       0.00000000      -0.00340785      -0.00022006      -0.05213341
Pt       7.01803471       0.81037256      22.29206781        3       0.00000000      -0.00101783       0.00571989      -0.04146463
Pt       2.80721448       3.24149124      22.29206773        3       0.00000000      -0.00047329       0.00110908      -0.05100258
Pt       5.61442763       3.24149123      22.29206786        3       0.00000000       0.00547835      -0.00200972      -0.04147258
Pt       8.42164156       3.24149129      22.29206804        3       0.00000000      -0.00445293      -0.00370381      -0.04145159
Pt       4.21082092       5.67260997      22.29206793        3       0.00000000      -0.00074128      -0.00097690      -0.05102616
Pt       7.01803487       5.67261037      22.29206776        3       0.00000000       0.00152871       0.00307707      -0.05213905
Pt       9.82524821       5.67261065      22.29206806        3       0.00000000       0.00121025      -0.00013394      -0.05100689
Pt      -0.00000053       1.62074569      24.58417386        2       0.00000000      -0.00460577      -0.00139491       0.00821841
Pt       2.80721443       1.62074549      24.58417398        2       0.00000000       0.00620800      -0.00272875       0.03086015
Pt       5.61442778       1.62074537      24.58417377        2       0.00000000       0.00113519       0.00466795       0.00825602
Pt       1.40360637       4.05186439      24.58417390        2       0.00000000      -0.00140522       0.00041310       0.02884551
Pt       4.21082088       4.05186403      24.58417379        2       0.00000000       0.00031068      -0.00148117       0.02887645
Pt       7.01803504       4.05186408      24.58417406        2       0.00000000       0.00347870      -0.00328692       0.00813134
Pt       2.80721282       6.48298343      24.58417376        2       0.00000000       0.00111869       0.00103363       0.02894543
Pt       5.61442796       6.48298325      24.58417391        2       0.00000000      -0.00081067       0.00676758       0.03083712
Pt       8.42164222       6.48298341      24.58417381        2       0.00000000      -0.00542679      -0.00398438       0.03085209
Pt       0.00540267       0.00961505      26.91644763        1       0.00000000       0.00137061       0.00244427       0.01192565
Pt       2.80721630      -0.00000253      26.91690254        1       0.00000000       0.00000597      -0.00000931       0.01367036
Pt       5.60784037       0.00838078      26.91597018        1       0.00000000      -0.00340223       0.00156252       0.01315486
Pt       1.39965359       2.42120536      26.91597040        1       0.00000000       0.00027794      -0.00368273       0.01316680
Pt       4.21642044       2.42163170      26.91643190        1       0.00000000       0.00151356      -0.00237858       0.01190325
Pt       7.01803182       2.43112064      26.91456698        1       0.00000000      -0.00000550       0.00001018       0.02314016
Pt       2.80721217       4.86224012      26.90652867        1       0.00000000      -0.00000192      -0.00000817       0.01440303
Pt       5.62496686       4.86377161      26.91593559        1       0.00000000       0.00313337       0.00213060       0.01327723
Pt       8.41063690       4.86211204      26.91641483        1       0.00000000      -0.00289699      -0.00007534       0.01199581
C        2.80721128       4.86223871      29.94595017        0       1.00000000      -0.00001022       0.00000856       0.02501511
H        2.80721851       4.86223371      28.77175901        0       0.00000000       0.00001299      -0.00001032      -0.04102885
