38
Lattice="8.421641763931781 0.0 0.0 4.2108208819658905 7.293355709136913 0.0 0.0 0.0 46.87624170604845" Properties=species:S:1:pos:R:3:tags:I:1:initial_magmoms:R:1:forces:R:3 charge=0 spin=0 energy=-192.90314460476162 free_energy=-192.90314460476162 stress="0.01023003738373518 -1.1478390149477491e-07 6.962976861757397e-09 -1.1478390149477491e-07 0.010230029933154583 -6.582317801928639e-09 6.962976861757397e-09 -6.582317801928639e-09 -7.242782885441557e-05" pbc="T T T"
Pt      -0.00000012       0.00000002      19.95723426        4       0.00000000       0.00000271      -0.00000111      -0.01058831
Pt       2.80721404      -0.00000018      19.95723442        4       0.00000000      -0.00436179      -0.00080574       0.01717762
Pt       5.61442782      -0.00000007      19.95723448        4       0.00000000       0.00336056       0.00125643       0.01644151
Pt       1.40360721       2.43111841      19.95723428        4       0.00000000      -0.00060153      -0.00353396       0.01647669
Pt       4.21082083       2.43111835      19.95723436        4       0.00000000       0.00000216       0.00000173       0.01367855
Pt       7.01803478       2.43111845      19.95723424        4       0.00000000       0.00287972      -0.00337528       0.01719944
Pt       2.80721407       4.86223728      19.95723400        4       0.00000000       0.00148084       0.00418154       0.01719673
Pt       5.61442803       4.86223733      19.95723419        4       0.00000000      -0.00276139       0.00227867       0.01644234
Pt       8.42164139       4.86223726      19.95723434        4       0.00000000       0.00000163      -0.00000481       0.01532947
Pt       1.40360728       0.81037259      22.29206791        3       0.00000000      -0.00377049      -0.00332117      -0.03999392
Pt       4.21082130       0.81037249      22.29206784        3       0.00000000      -0.00041133       0.00116396      -0.05310840
Pt       7.01803471       0.81037256      22.29206781        3       0.00000000       0.00479980      -0.00160263      -0.04001262
Pt       2.80721448       3.24149124      22.29206773        3       0.00000000       0.00121557      -0.00020049      -0.05309431
Pt       5.61442763       3.24149123      22.29206786        3       0.00000000      -0.00081365      -0.00095613      -0.05311590
Pt       8.42164156       3.24149129      22.29206804        3       0.00000000       0.00148325       0.00369239      -0.05281617
Pt       4.21082092       5.67260997      22.29206793        3       0.00000000      -0.00103341       0.00493396      -0.04000556
Pt       7.01803487       5.67261037      22.29206776        3       0.00000000       0.00242562      -0.00312330      -0.05281989
Pt       9.82524821       5.67261065      22.29206806        3       0.00000000      -0.00389910      -0.00058462      -0.05282306
Pt      -0.00000053       1.62074569      24.58417386        2       0.00000000       0.00281190      -0.01020866       0.04054098
Pt       2.80721443       1.62074549      24.58417398        2       0.00000000      -0.01135341      -0.00626095       0.03709773
Pt       5.61442778       1.62074537      24.58417377        2       0.00000000       0.01110129      -0.00669955       0.03714058
Pt       1.40360637       4.05186439      24.58417390        2       0.00000000      -0.00900470      -0.00254210       0.05936868
Pt       4.21082088       4.05186403      24.58417379        2       0.00000000       0.00026509       0.01298118       0.03716771
Pt       7.01803504       4.05186408      24.58417406        2       0.00000000       0.00226551       0.00910665       0.05937028
Pt       2.80721282       6.48298343      24.58417376        2       0.00000000       0.00747756       0.00754709       0.04063244
Pt       5.61442796       6.48298325      24.58417391        2       0.00000000      -0.01028302       0.00264615       0.04059252
Pt       8.42164222       6.48298341      24.58417381        2       0.00000000       0.00672896      -0.00657298       0.05939765
Pt      -0.00000660      -0.00000102      26.92612222        1       0.00000000       0.00000920       0.00001014      -0.02825344
Pt       2.80385387      -0.01083709      26.92150515        1       0.00000000      -0.00438176      -0.00490424      -0.01042043
Pt       5.62140480      -0.00944938      26.92151791        1       0.00000000      -0.00052766      -0.00694579      -0.00977595
Pt       1.39192757       2.42979062      26.92152275        1       0.00000000      -0.00575595       0.00393895      -0.00976077
Pt       4.21081999       2.43112071      26.90124248        1       0.00000000      -0.00000176      -0.00000089       0.03182917
Pt       7.02909560       2.43363946      26.92150443        1       0.00000000       0.00643034      -0.00133193      -0.01042824
Pt       2.79951097       4.87055793      26.92150091        1       0.00000000      -0.00204864       0.00623310      -0.01042236
Pt       5.61912983       4.87301621      26.92152881        1       0.00000000       0.00627452       0.00301392      -0.00974336
Pt       8.42164608       4.86223917      26.92543964        1       0.00000000      -0.00000809      -0.00000848      -0.02470634
C        4.21082036       2.43112090      29.93894894        0       1.00000000      -0.00000129       0.00000695      -0.00350211
H        4.21082147       2.43111575      28.76323436        0       0.00000000       0.00000293      -0.00000780      -0.00768912
