38
Lattice="8.421641763931781 0.0 0.0 4.2108208819658905 7.293355709136913 0.0 0.0 0.0 46.87624170604845" Properties=species:S:1:pos:R:3:tags:I:1:initial_magmoms:R:1:forces:R:3 charge=0 spin=0 energy=-197.98726630886318 free_energy=-197.98726630886318 stress="0.00733662024140358 8.831654122332111e-05 8.825393888400868e-05 8.831654122332111e-05 0.007581853773444891 -2.1187670427025296e-05 8.825393888400868e-05 -2.1187670427025296e-05 -0.0007544164545834064" pbc="T T T"
Pt      -0.00000012       0.00000002      19.95723426        4       0.00000000       0.00338129       0.01991301      -0.01326729
Pt       2.80721404      -0.00000018      19.95723442        4       0.00000000       0.01047428      -0.00490289      -0.01052211
Pt       5.61442782      -0.00000007      19.95723448        4       0.00000000      -0.00069030       0.00252689       0.00836368
Pt       1.40360721       2.43111841      19.95723428        4       0.00000000      -0.01347541      -0.00152612      -0.01363571
Pt       4.21082083       2.43111835      19.95723436        4       0.00000000      -0.00283276      -0.00229758       0.02718563
Pt       7.01803478       2.43111845      19.95723424        4       0.00000000       0.01656644      -0.01619600       0.00187466
Pt       2.80721407       4.86223728      19.95723400        4       0.00000000       0.00540639      -0.00310930       0.01781840
Pt       5.61442803       4.86223733      19.95723419        4       0.00000000       0.00318864       0.00426898       0.02830024
Pt       8.42164139       4.86223726      19.95723434        4       0.00000000      -0.00167789      -0.00421351       0.00897495
Pt       1.40360728       0.81037259      22.29206791        3       0.00000000       0.00530626      -0.00763301      -0.25838122
Pt       4.21082130       0.81037249      22.29206784        3       0.00000000      -0.02205289       0.00223726      -0.06926135
Pt       7.01803471       0.81037256      22.29206781        3       0.00000000       0.04671218      -0.00814184      -0.13288760
Pt       2.80721448       3.24149124      22.29206773        3       0.00000000      -0.05533779      -0.04142811      -0.12178539
Pt       5.61442763       3.24149123      22.29206786        3       0.00000000       0.03854335      -0.02350193      -0.02336015
Pt       8.42164156       3.24149129      22.29206804        3       0.00000000       0.01723568      -0.03791401      -0.11611812
Pt       4.21082092       5.67260997      22.29206793        3       0.00000000       0.01136999       0.08070085      -0.13712268
Pt       7.01803487       5.67261037      22.29206776        3       0.00000000      -0.01288009       0.01926519      -0.07459787
Pt       9.82524821       5.67261065      22.29206806        3       0.00000000       0.01226187      -0.00541649      -0.07462388
Pt      -0.00000053       1.62074569      24.58417386        2       0.00000000      -0.10558254       0.06894656       0.16906025
Pt       2.80721443       1.62074549      24.58417398        2       0.00000000       0.19711421       0.11767303       0.29591992
Pt       5.61442778       1.62074537      24.58417377        2       0.00000000      -0.07494023       0.13620022       0.22190972
Pt       1.40360637       4.05186439      24.58417390        2       0.00000000       0.02588926       0.01474811       0.01101481
Pt       4.21082088       4.05186403      24.58417379        2       0.00000000       0.12759894      -0.07845280      -0.18155035
Pt       7.01803504       4.05186408      24.58417406        2       0.00000000      -0.12943752      -0.01761618       0.19003406
Pt       2.80721282       6.48298343      24.58417376        2       0.00000000      -0.01492927      -0.01710315       0.01032346
Pt       5.61442796       6.48298325      24.58417391        2       0.00000000      -0.02094018      -0.20704807       0.27489343
Pt       8.42164222       6.48298341      24.58417381        2       0.00000000      -0.02847398       0.02221570      -0.07480568
Pt      -0.01604960      -0.00531395      26.90894671        1       0.00000000       0.02060010       0.01940295      -0.00161878
Pt       2.78439022       0.01000213      26.89473317        1       0.00000000       0.02421471       0.01832908      -0.00409431
Pt       5.59340461       0.00141705      26.89874043        1       0.00000000      -0.03559678       0.00412235      -0.00746153
Pt       1.39308309       2.44284000      26.90466944        1       0.00000000       0.03817781      -0.02927411      -0.00047237
Pt       4.09462599       2.34175209      27.27830521        1       0.00000000      -0.02951974      -0.03157843       0.00521553
Pt       7.11997850       2.37345426      27.01604245        1       0.00000000      -0.01627261      -0.00906552       0.03090649
Pt       2.70133749       4.93490901      27.02995565        1       0.00000000      -0.02705325       0.00006792      -0.01076299
Pt       5.64208450       4.99246507      27.19492390        1       0.00000000      -0.02347529      -0.03133219       0.01736700
Pt       8.41949749       4.87713755      26.89595572        1       0.00000000       0.00743541       0.03815759      -0.00747210
C        5.67875825       3.21088655      27.92476509        0       1.00000000       0.02954999       0.02690254       0.01965406
H        4.06764129       4.02244795      26.32571927        0       0.00000000      -0.02585848      -0.01792701      -0.00501468
