38
Lattice="8.421641763931781 0.0 0.0 4.2108208819658905 7.293355709136913 0.0 0.0 0.0 46.87624170604845" Properties=species:S:1:pos:R:3:tags:I:1:initial_magmoms:R:1:forces:R:3 charge=0 spin=0 energy=-197.93990684231045 free_energy=-197.93990684231045 stress="0.007024488411843777 4.897538374848409e-08 1.8025367864993314e-07 4.897538374848409e-08 0.0070209503173828125 1.0070718872157158e-06 1.8025367864993314e-07 1.0070718872157158e-06 -0.0010912646539509296" pbc="T T T"
Pt      -0.00000012       0.00000002      19.95723426        4       0.00000000      -0.00145778      -0.00884064      -0.02590464
Pt       2.80721404      -0.00000018      19.95723442        4       0.00000000      -0.00777387      -0.00315416       0.01829431
Pt       5.61442782      -0.00000007      19.95723448        4       0.00000000       0.00667965      -0.00515657       0.01825497
Pt       1.40360721       2.43111841      19.95723428        4       0.00000000       0.00400773       0.00169843       0.01464867
Pt       4.21082083       2.43111835      19.95723436        4       0.00000000       0.00109683       0.00828060       0.01820245
Pt       7.01803478       2.43111845      19.95723424        4       0.00000000      -0.00052967      -0.00436758       0.01452008
Pt       2.80721407       4.86223728      19.95723400        4       0.00000000       0.00841995       0.00310725      -0.02580915
Pt       5.61442803       4.86223733      19.95723419        4       0.00000000      -0.00695953       0.00571111      -0.02590107
Pt       8.42164139       4.86223726      19.95723434        4       0.00000000      -0.00347882       0.00262378       0.01469591
Pt       1.40360728       0.81037259      22.29206791        3       0.00000000      -0.06923550      -0.04293552      -0.13595943
Pt       4.21082130       0.81037249      22.29206784        3       0.00000000      -0.00000621      -0.00003395      -0.22470479
Pt       7.01803471       0.81037256      22.29206781        3       0.00000000       0.05983834      -0.04182516      -0.12953046
Pt       2.80721448       3.24149124      22.29206773        3       0.00000000       0.00619653       0.07274293      -0.12942772
Pt       5.61442763       3.24149123      22.29206786        3       0.00000000      -0.00263833       0.08140713      -0.13577236
Pt       8.42164156       3.24149129      22.29206804        3       0.00000000      -0.00000369      -0.00003638      -0.11084421
Pt       4.21082092       5.67260997      22.29206793        3       0.00000000      -0.00000177       0.00000043      -0.26908249
Pt       7.01803487       5.67261037      22.29206776        3       0.00000000      -0.06604905      -0.03104253      -0.12910613
Pt       9.82524821       5.67261065      22.29206806        3       0.00000000       0.07185015      -0.03860435      -0.13561228
Pt      -0.00000053       1.62074569      24.58417386        2       0.00000000       0.01003256      -0.00454262      -0.08808815
Pt       2.80721443       1.62074549      24.58417398        2       0.00000000      -0.50103074       0.28132319       0.27952221
Pt       5.61442778       1.62074537      24.58417377        2       0.00000000       0.49406421       0.29336065       0.27941447
Pt       1.40360637       4.05186439      24.58417390        2       0.00000000      -0.00086908       0.01134073      -0.08832395
Pt       4.21082088       4.05186403      24.58417379        2       0.00000000      -0.00147506      -0.12721558       0.26230660
Pt       7.01803504       4.05186408      24.58417406        2       0.00000000      -0.00921452      -0.00633336      -0.08840495
Pt       2.80721282       6.48298343      24.58417376        2       0.00000000      -0.10935222       0.06513438       0.26216841
Pt       5.61442796       6.48298325      24.58417391        2       0.00000000       0.11081632       0.06250796       0.26220202
Pt       8.42164222       6.48298341      24.58417381        2       0.00000000       0.00712612      -0.57451659       0.27909684
Pt      -0.00019395       0.00771443      26.89477954        1       0.00000000       0.00422272      -0.00487713       0.00394940
Pt       2.68327522      -0.07145752      27.18029668        1       0.00000000       0.01350690       0.01102666       0.00813395
Pt       5.73853634      -0.07122782      27.18029144        1       0.00000000      -0.01609818       0.00524608       0.00792924
Pt       1.39009501       2.44256253      26.89436196        1       0.00000000       0.00140054      -0.00283936       0.00613684
Pt       4.21072801       2.57448178      27.18022006        1       0.00000000       0.00305840      -0.01282777       0.00663344
Pt       7.03456121       2.43742776      26.89436253        1       0.00000000      -0.00313406       0.00016633       0.00613422
Pt       2.80086543       4.85851328      26.89475374        1       0.00000000       0.00183434       0.00612699       0.00408373
Pt       5.62103383       4.85886596      26.89476199        1       0.00000000      -0.00609637      -0.00119916       0.00406562
Pt       8.41870711       4.84515507      26.89440408        1       0.00000000       0.00182873       0.00258018       0.00618489
C        4.21088038       0.81086411      27.91223234        0       1.00000000      -0.00059078      -0.00410626      -0.02857108
H        4.21081013       0.81030574      25.35836013        0       0.00000000       0.00001535       0.00006958      -0.00553545
