38
Lattice="8.421641763931781 0.0 0.0 4.2108208819658905 7.293355709136913 0.0 0.0 0.0 46.87624170604845" Properties=species:S:1:pos:R:3:tags:I:1:initial_magmoms:R:1:forces:R:3 charge=0 spin=0 energy=-197.98725295742275 free_energy=-197.98725295742275 stress="0.0075970967300236225 6.22619700152427e-05 -2.601158121251501e-05 6.22619700152427e-05 0.0073189884424209595 8.762875222600996e-05 -2.601158121251501e-05 8.762875222600996e-05 -0.0007551130838692188" pbc="T T T"
Pt      -0.00000012       0.00000002      19.95723426        4       0.00000000      -0.01892334      -0.00704450      -0.01317602
Pt       2.80721404      -0.00000018      19.95723442        4       0.00000000      -0.00001013       0.00619075       0.01793430
Pt       5.61442782      -0.00000007      19.95723448        4       0.00000000       0.00802725      -0.01096833      -0.01372698
Pt       1.40360721       2.43111841      19.95723428        4       0.00000000      -0.00528834       0.00064113       0.02832944
Pt       4.21082083       2.43111835      19.95723436        4       0.00000000       0.00340694      -0.00130291       0.02704700
Pt       7.01803478       2.43111845      19.95723424        4       0.00000000      -0.00096278       0.01157266      -0.01065082
Pt       2.80721407       4.86223728      19.95723400        4       0.00000000       0.00572159       0.02246853       0.00189974
Pt       5.61442803       4.86223733      19.95723419        4       0.00000000      -0.00184309      -0.00187385       0.00838713
Pt       8.42164139       4.86223726      19.95723434        4       0.00000000       0.00448413       0.00062088       0.00904103
Pt       1.40360728       0.81037259      22.29206791        3       0.00000000      -0.07549213      -0.03033793      -0.13687208
Pt       4.21082130       0.81037249      22.29206784        3       0.00000000       0.06343981      -0.02705399      -0.12153824
Pt       7.01803471       0.81037256      22.29206781        3       0.00000000       0.00386089       0.00844841      -0.25837472
Pt       2.80721448       3.24149124      22.29206773        3       0.00000000       0.00114299       0.04519531      -0.02363960
Pt       5.61442763       3.24149123      22.29206786        3       0.00000000       0.00914066      -0.02035282      -0.06972245
Pt       8.42164156       3.24149129      22.29206804        3       0.00000000      -0.01022276      -0.02086256      -0.07484692
Pt       4.21082092       5.67260997      22.29206793        3       0.00000000      -0.01634334       0.04439089      -0.13276795
Pt       7.01803487       5.67261037      22.29206776        3       0.00000000      -0.00142361       0.01325027      -0.07440944
Pt       9.82524821       5.67261065      22.29206806        3       0.00000000       0.02413541       0.03380305      -0.11582043
Pt      -0.00000053       1.62074569      24.58417386        2       0.00000000       0.18891439       0.08521303       0.27464893
Pt       2.80721443       1.62074549      24.58417398        2       0.00000000       0.00407503       0.14988336      -0.18378530
Pt       5.61442778       1.62074537      24.58417377        2       0.00000000      -0.19984169       0.11200417       0.29623559
Pt       1.40360637       4.05186439      24.58417390        2       0.00000000       0.08001547      -0.10276785       0.18921140
Pt       4.21082088       4.05186403      24.58417379        2       0.00000000      -0.08035292      -0.13266267       0.22224176
Pt       7.01803504       4.05186408      24.58417406        2       0.00000000      -0.00509810      -0.03563871      -0.07443854
Pt       2.80721282       6.48298343      24.58417376        2       0.00000000      -0.00689061      -0.12548855       0.16990721
Pt       5.61442796       6.48298325      24.58417391        2       0.00000000       0.02221940      -0.00454602       0.01009973
Pt       8.42164222       6.48298341      24.58417381        2       0.00000000      -0.02557745       0.01515434       0.01081501
Pt       0.01302482      -0.01093589      26.90916137        1       0.00000000      -0.02929177       0.00692052      -0.00193767
Pt       2.79711029      -0.12820929      27.03002897        1       0.00000000       0.01400113      -0.02472782      -0.00953753
Pt       5.60916735      -0.01466436      26.90491009        1       0.00000000       0.00811417       0.04675547      -0.00105846
Pt       1.27719019       2.39038334      27.19375513        1       0.00000000       0.03993001      -0.00514731       0.01894021
Pt       4.34612264       2.37531781      27.27745809        1       0.00000000       0.03983420      -0.00684890       0.00680004
Pt       7.02088320       2.40646953      26.89502843        1       0.00000000      -0.02887835       0.01172282      -0.00460552
Pt       2.80590793       4.97981463      27.01619000        1       0.00000000       0.01812661      -0.01122769       0.03152101
Pt       5.62365765       4.84349012      26.89877666        1       0.00000000       0.01408052      -0.03361319      -0.00765208
Pt       8.41014047       4.85291548      26.89597870        1       0.00000000      -0.03867840      -0.01177510      -0.00752098
C        2.80141233       3.31272791      27.92477415        0       1.00000000      -0.03620852       0.01168721       0.01722489
H        2.90470000       1.51024854      26.32540946        0       0.00000000       0.02865686      -0.01168230      -0.00420248
