38
Lattice="8.421641763931781 0.0 0.0 4.2108208819658905 7.293355709136913 0.0 0.0 0.0 46.87624170604845" Properties=species:S:1:pos:R:3:tags:I:1:initial_magmoms:R:1:forces:R:3 charge=0 spin=0 energy=-192.90315795620205 free_energy=-192.90315795620205 stress="0.010137408040463924 -9.185151839119499e-08 4.724925783960998e-09 -9.185151839119499e-08 0.010137411765754223 -1.49505852142795e-10 4.724925783960998e-09 -1.49505852142795e-10 -0.0002429163287160918" pbc="T T T"
Pt      -0.00000012       0.00000002      19.95723426        4       0.00000000       0.00324143       0.00123789       0.01647790
Pt       2.80721404      -0.00000018      19.95723442        4       0.00000000      -0.00000141       0.00000170      -0.01069020
Pt       5.61442782      -0.00000007      19.95723448        4       0.00000000      -0.00425103      -0.00058797       0.01716354
Pt       1.40360721       2.43111841      19.95723428        4       0.00000000       0.00263628      -0.00338956       0.01718216
Pt       4.21082083       2.43111835      19.95723436        4       0.00000000      -0.00054807      -0.00342192       0.01650180
Pt       7.01803478       2.43111845      19.95723424        4       0.00000000      -0.00000137       0.00000155       0.01379880
Pt       2.80721407       4.86223728      19.95723400        4       0.00000000       0.00000105      -0.00000266       0.01530365
Pt       5.61442803       4.86223733      19.95723419        4       0.00000000       0.00161130       0.00397904       0.01717553
Pt       8.42164139       4.86223726      19.95723434        4       0.00000000      -0.00268778       0.00218037       0.01646666
Pt       1.40360728       0.81037259      22.29206791        3       0.00000000       0.00547233      -0.00200667      -0.04146896
Pt       4.21082130       0.81037249      22.29206784        3       0.00000000      -0.00445787      -0.00369732      -0.04144792
Pt       7.01803471       0.81037256      22.29206781        3       0.00000000      -0.00046471       0.00111092      -0.05100124
Pt       2.80721448       3.24149124      22.29206773        3       0.00000000       0.00152499       0.00308512      -0.05214327
Pt       5.61442763       3.24149123      22.29206786        3       0.00000000       0.00120605      -0.00012222      -0.05101001
Pt       8.42164156       3.24149129      22.29206804        3       0.00000000      -0.00073531      -0.00097818      -0.05102901
Pt       4.21082092       5.67260997      22.29206793        3       0.00000000      -0.00340821      -0.00022498      -0.05213403
Pt       7.01803487       5.67261037      22.29206776        3       0.00000000      -0.00102182       0.00571033      -0.04146235
Pt       9.82524821       5.67261065      22.29206806        3       0.00000000       0.00188440      -0.00287237      -0.05212886
Pt      -0.00000053       1.62074569      24.58417386        2       0.00000000       0.00031431      -0.00148584       0.02887620
Pt       2.80721443       1.62074549      24.58417398        2       0.00000000       0.00347788      -0.00328610       0.00813261
Pt       5.61442778       1.62074537      24.58417377        2       0.00000000      -0.00141130       0.00042043       0.02885413
Pt       1.40360637       4.05186439      24.58417390        2       0.00000000      -0.00080291       0.00676758       0.03083825
Pt       4.21082088       4.05186403      24.58417379        2       0.00000000      -0.00541828      -0.00397673       0.03085385
Pt       7.01803504       4.05186408      24.58417406        2       0.00000000       0.00110460       0.00104365       0.02894998
Pt       2.80721282       6.48298343      24.58417376        2       0.00000000       0.00622401      -0.00273768       0.03086188
Pt       5.61442796       6.48298325      24.58417391        2       0.00000000       0.00112985       0.00466006       0.00825477
Pt       8.42164222       6.48298341      24.58417381        2       0.00000000      -0.00461648      -0.00140085       0.00822609
Pt       0.00559986      -0.00948753      26.91643214        1       0.00000000       0.00151378      -0.00237289       0.01190202
Pt       2.80721122       0.00000199      26.91456671        1       0.00000000      -0.00000570       0.00001088       0.02314027
Pt       5.61047374      -0.00991368      26.91597177        1       0.00000000       0.00027711      -0.00367845       0.01316419
Pt       1.41414678       2.43265278      26.91593551        1       0.00000000       0.00312751       0.00213148       0.01327551
Pt       4.19981553       2.43099314      26.91641545        1       0.00000000      -0.00289290      -0.00007365       0.01198828
Pt       7.01803326       2.43112122      26.90652793        1       0.00000000       0.00000031      -0.00000706       0.01440375
Pt       2.80721634       4.86223483      26.91690291        1       0.00000000       0.00000471      -0.00001368       0.01366900
Pt       5.60784021       4.87061836      26.91596968        1       0.00000000      -0.00339885       0.00155781       0.01315018
Pt       8.42704478       4.87185296      26.91644795        1       0.00000000       0.00136920       0.00243912       0.01191808
C        7.01803147       2.43111734      29.94594890        0       1.00000000      -0.00001156      -0.00000155       0.02501528
H        7.01803914       2.43111887      28.77175822        0       0.00000000       0.00001453       0.00000049      -0.04102872
