38
Lattice="8.421641763931781 0.0 0.0 4.2108208819658905 7.293355709136913 0.0 0.0 0.0 46.87624170604845" Properties=species:S:1:pos:R:3:tags:I:1:initial_magmoms:R:1:forces:R:3 charge=0 spin=0 energy=-192.90314460476162 free_energy=-192.90314460476162 stress="0.010230028070509434 -1.1011889711198819e-07 1.0767283953327933e-08 -1.1011889711198819e-07 0.010230031795799732 -6.432368859776716e-09 1.0767283953327933e-08 -6.432368859776716e-09 -7.245382585097104e-05" pbc="T T T"
Pt      -0.00000012       0.00000002      19.95723426        4       0.00000000       0.00148142       0.00418400       0.01719580
Pt       2.80721404      -0.00000018      19.95723442        4       0.00000000      -0.00276126       0.00228510       0.01643325
Pt       5.61442782      -0.00000007      19.95723448        4       0.00000000       0.00000002       0.00000340       0.01532093
Pt       1.40360721       2.43111841      19.95723428        4       0.00000000      -0.00000037       0.00000092      -0.01058708
Pt       4.21082083       2.43111835      19.95723436        4       0.00000000      -0.00435772      -0.00080678       0.01718731
Pt       7.01803478       2.43111845      19.95723424        4       0.00000000       0.00335948       0.00125383       0.01645055
Pt       2.80721407       4.86223728      19.95723400        4       0.00000000      -0.00059959      -0.00353827       0.01647629
Pt       5.61442803       4.86223733      19.95723419        4       0.00000000      -0.00000197      -0.00000360       0.01367793
Pt       8.42164139       4.86223726      19.95723434        4       0.00000000       0.00288235      -0.00338091       0.01719887
Pt       1.40360728       0.81037259      22.29206791        3       0.00000000      -0.00103434       0.00493499      -0.04000454
Pt       4.21082130       0.81037249      22.29206784        3       0.00000000       0.00242684      -0.00311020      -0.05282061
Pt       7.01803471       0.81037256      22.29206781        3       0.00000000      -0.00390449      -0.00057013      -0.05282270
Pt       2.80721448       3.24149124      22.29206773        3       0.00000000      -0.00377420      -0.00332279      -0.03999662
Pt       5.61442763       3.24149123      22.29206786        3       0.00000000      -0.00040688       0.00115746      -0.05311202
Pt       8.42164156       3.24149129      22.29206804        3       0.00000000       0.00480235      -0.00160546      -0.04001608
Pt       4.21082092       5.67260997      22.29206793        3       0.00000000       0.00122068      -0.00019987      -0.05309252
Pt       7.01803487       5.67261037      22.29206776        3       0.00000000      -0.00081899      -0.00096266      -0.05311064
Pt       9.82524821       5.67261065      22.29206806        3       0.00000000       0.00148704       0.00368000      -0.05281382
Pt      -0.00000053       1.62074569      24.58417386        2       0.00000000       0.00746932       0.00755141       0.04062584
Pt       2.80721443       1.62074549      24.58417398        2       0.00000000      -0.01028435       0.00264873       0.04059235
Pt       5.61442778       1.62074537      24.58417377        2       0.00000000       0.00673805      -0.00656354       0.05939207
Pt       1.40360637       4.05186439      24.58417390        2       0.00000000       0.00281434      -0.01020963       0.04053432
Pt       4.21082088       4.05186403      24.58417379        2       0.00000000      -0.01134731      -0.00625860       0.03710021
Pt       7.01803504       4.05186408      24.58417406        2       0.00000000       0.01109562      -0.00669991       0.03713874
Pt       2.80721282       6.48298343      24.58417376        2       0.00000000      -0.00899852      -0.00254597       0.05937114
Pt       5.61442796       6.48298325      24.58417391        2       0.00000000       0.00026344       0.01297485       0.03717046
Pt       8.42164222       6.48298341      24.58417381        2       0.00000000       0.00225832       0.00909931       0.05937425
Pt      -0.00770337       0.00832074      26.92150078        1       0.00000000      -0.00204651       0.00622830      -0.01042192
Pt       2.81191643       0.01077908      26.92152915        1       0.00000000       0.00627178       0.00301281      -0.00975044
Pt       5.61443225       0.00000179      26.92543981        1       0.00000000      -0.00000836      -0.00000850      -0.02470260
Pt       1.40360045       2.43111757      26.92612135        1       0.00000000       0.00001072       0.00000831      -0.02824469
Pt       4.20746088       2.42028103      26.92150537        1       0.00000000      -0.00438221      -0.00490232      -0.01041969
Pt       7.02501189       2.42166831      26.92151656        1       0.00000000      -0.00052876      -0.00694010      -0.00977084
Pt       2.79553381       4.86090961      26.92152284        1       0.00000000      -0.00575097       0.00393927      -0.00976041
Pt       5.61442694       4.86223927      26.90124231        1       0.00000000      -0.00000224      -0.00000149       0.03182298
Pt       8.43270263       4.86475843      26.92150436        1       0.00000000       0.00642594      -0.00133210      -0.01042805
C        5.61442658       4.86223960      29.93894797        0       1.00000000      -0.00000386       0.00000649      -0.00346606
H        5.61442930       4.86223534      28.76323549        0       0.00000000       0.00000512      -0.00000647      -0.00772195
