38
Lattice="8.421641763931781 0.0 0.0 4.2108208819658905 7.293355709136913 0.0 0.0 0.0 46.87624170604845" Properties=species:S:1:pos:R:3:tags:I:1:initial_magmoms:R:1:forces:R:3 charge=0 spin=0 energy=-197.5080888338876 free_energy=-197.5080888338876 stress="0.009057417511940002 -1.3287568378927972e-07 1.31611335163484e-08 -1.3287568378927972e-07 0.00905738864094019 4.806421216585477e-08 1.31611335163484e-08 4.806421216585477e-08 -0.0008545948658138514" pbc="T T T"
Pt      -0.00000012       0.00000002      19.95723426        4       0.00000000       0.00291568       0.02440795      -0.03720766
Pt       2.80721404      -0.00000018      19.95723442        4       0.00000000      -0.00503729       0.00329516       0.02214773
Pt       5.61442782      -0.00000007      19.95723448        4       0.00000000       0.00533296       0.00268929       0.02199411
Pt       1.40360721       2.43111841      19.95723428        4       0.00000000      -0.02258955      -0.00967158      -0.03704188
Pt       4.21082083       2.43111835      19.95723436        4       0.00000000      -0.00102943       0.00917438       0.01908839
Pt       7.01803478       2.43111845      19.95723424        4       0.00000000       0.01967412      -0.01473438      -0.03725658
Pt       2.80721407       4.86223728      19.95723400        4       0.00000000       0.00847307      -0.00373323       0.01889583
Pt       5.61442803       4.86223733      19.95723419        4       0.00000000      -0.00744103      -0.00544646       0.01883786
Pt       8.42164139       4.86223726      19.95723434        4       0.00000000      -0.00029670      -0.00598291       0.02191449
Pt       1.40360728       0.81037259      22.29206791        3       0.00000000      -0.04215400       0.02482246      -0.19698575
Pt       4.21082130       0.81037249      22.29206784        3       0.00000000      -0.00537130       0.02542011      -0.01668622
Pt       7.01803471       0.81037256      22.29206781        3       0.00000000       0.04261632       0.02395220      -0.19712238
Pt       2.80721448       3.24149124      22.29206773        3       0.00000000      -0.08907967      -0.05120713      -0.14867817
Pt       5.61442763       3.24149123      22.29206786        3       0.00000000       0.08897164      -0.05149198      -0.14873409
Pt       8.42164156       3.24149129      22.29206804        3       0.00000000      -0.00044946      -0.04877301      -0.19726515
Pt       4.21082092       5.67260997      22.29206793        3       0.00000000       0.00009407       0.10270065      -0.14903055
Pt       7.01803487       5.67261037      22.29206776        3       0.00000000      -0.01939000      -0.01738268      -0.01717205
Pt       9.82524821       5.67261065      22.29206806        3       0.00000000       0.02476654      -0.00804964      -0.01724907
Pt      -0.00000053       1.62074569      24.58417386        2       0.00000000      -0.00000259       0.00002256      -0.21587941
Pt       2.80721443       1.62074549      24.58417398        2       0.00000000       0.20970397       0.15360928       0.31615609
Pt       5.61442778       1.62074537      24.58417377        2       0.00000000      -0.20916121       0.15680543       0.31733683
Pt       1.40360637       4.05186439      24.58417390        2       0.00000000       0.24021214       0.10299460       0.31781167
Pt       4.21082088       4.05186403      24.58417379        2       0.00000000       0.00000682       0.00000063      -0.59258354
Pt       7.01803504       4.05186408      24.58417406        2       0.00000000      -0.23774350       0.10493005       0.31645116
Pt       2.80721282       6.48298343      24.58417376        2       0.00000000       0.02801468      -0.25854760       0.31633919
Pt       5.61442796       6.48298325      24.58417391        2       0.00000000      -0.03101652      -0.25980675       0.31786281
Pt       8.42164222       6.48298341      24.58417381        2       0.00000000       0.00000001      -0.00001383      -0.01356177
Pt       0.00180094       0.01980116      26.90115445        1       0.00000000      -0.00285726       0.03320430      -0.00317024
Pt       2.80527605       0.00076670      26.89637329        1       0.00000000      -0.01505820       0.01163995       0.01897433
Pt       5.61607111       0.00130815      26.89637727        1       0.00000000       0.01758906       0.00717312       0.01896888
Pt       1.38555444       2.42277921      26.90118347        1       0.00000000      -0.02739248      -0.01893956      -0.00335225
Pt       4.20916969       2.32779153      27.29849441        1       0.00000000      -0.00589634      -0.03230096      -0.01023148
Pt       7.03428447       2.41966506      26.90119075        1       0.00000000       0.03009888      -0.01429156      -0.00336527
Pt       2.71856074       4.91533039      27.29848808        1       0.00000000      -0.02503141       0.02125979      -0.01023750
Pt       5.70473753       4.91246891      27.29849325        1       0.00000000       0.03091964       0.01105510      -0.01023403
Pt       8.42195306       4.86016035      26.89637824        1       0.00000000      -0.00239578      -0.01880119       0.01886524
C        4.21082193       4.05186234      28.18220572        0       1.00000000       0.00001689       0.00002046       0.01090523
H        4.21080675       4.05185985      26.17950868        0       0.00000000      -0.00001281      -0.00000308      -0.02950501
