38
Lattice="8.421641763931781 0.0 0.0 4.2108208819658905 7.293355709136913 0.0 0.0 0.0 46.87624170604845" Properties=species:S:1:pos:R:3:tags:I:1:initial_magmoms:R:1:forces:R:3 charge=0 spin=0 energy=-197.93982673366787 free_energy=-197.93982673366787 stress="0.007027240935713053 -1.3884721283830004e-07 3.066173803745187e-08 -1.3884721283830004e-07 0.007027306593954563 -2.5647534585004905e-07 3.066173803745187e-08 -2.5647534585004905e-07 -0.0010596285574138165" pbc="T T T"
Pt      -0.00000012       0.00000002      19.95723426        4       0.00000000       0.00404849       0.00194444       0.01473334
Pt       2.80721404      -0.00000018      19.95723442        4       0.00000000       0.00097310       0.00825862       0.01817328
Pt       5.61442782      -0.00000007      19.95723448        4       0.00000000      -0.00034715      -0.00449664       0.01459979
Pt       1.40360721       2.43111841      19.95723428        4       0.00000000       0.00845091       0.00316121      -0.02566197
Pt       4.21082083       2.43111835      19.95723436        4       0.00000000      -0.00700743       0.00573415      -0.02574830
Pt       7.01803478       2.43111845      19.95723424        4       0.00000000      -0.00369935       0.00255516       0.01477494
Pt       2.80721407       4.86223728      19.95723400        4       0.00000000      -0.00144074      -0.00889587      -0.02573708
Pt       5.61442803       4.86223733      19.95723419        4       0.00000000      -0.00768342      -0.00323127       0.01827380
Pt       8.42164139       4.86223726      19.95723434        4       0.00000000       0.00670998      -0.00503226       0.01823646
Pt       1.40360728       0.81037259      22.29206791        3       0.00000000       0.00627576       0.07274217      -0.12918858
Pt       4.21082130       0.81037249      22.29206784        3       0.00000000      -0.00261610       0.08115050      -0.13668184
Pt       7.01803471       0.81037256      22.29206781        3       0.00000000       0.00000216       0.00000306      -0.11068141
Pt       2.80721448       3.24149124      22.29206773        3       0.00000000      -0.00000566       0.00000232      -0.26885006
Pt       5.61442763       3.24149123      22.29206786        3       0.00000000      -0.06603828      -0.03089790      -0.12884690
Pt       8.42164156       3.24149129      22.29206804        3       0.00000000       0.07158123      -0.03839882      -0.13648999
Pt       4.21082092       5.67260997      22.29206793        3       0.00000000      -0.06896101      -0.04273917      -0.13687678
Pt       7.01803487       5.67261037      22.29206776        3       0.00000000      -0.00000341      -0.00000553      -0.22391149
Pt       9.82524821       5.67261065      22.29206806        3       0.00000000       0.05977433      -0.04185210      -0.12930088
Pt      -0.00000053       1.62074569      24.58417386        2       0.00000000      -0.00026818       0.00884772      -0.08038773
Pt       2.80721443       1.62074549      24.58417398        2       0.00000000      -0.00380454      -0.12444493       0.26744348
Pt       5.61442778       1.62074537      24.58417377        2       0.00000000      -0.00751483      -0.00480879      -0.08045197
Pt       1.40360637       4.05186439      24.58417390        2       0.00000000      -0.10580202       0.06553897       0.26745179
Pt       4.21082088       4.05186403      24.58417379        2       0.00000000       0.10953411       0.05889725       0.26757908
Pt       7.01803504       4.05186408      24.58417406        2       0.00000000       0.00673668      -0.56732547       0.28544119
Pt       2.80721282       6.48298343      24.58417376        2       0.00000000       0.00768377      -0.00401920      -0.08011753
Pt       5.61442796       6.48298325      24.58417391        2       0.00000000      -0.49459147       0.27798429       0.28574282
Pt       8.42164222       6.48298341      24.58417381        2       0.00000000       0.48799315       0.28934154       0.28558427
Pt      -0.01512429       0.00838011      26.89671078        1       0.00000000       0.00622991       0.00749789      -0.00206826
Pt       2.80523852       0.14329192      27.18118878        1       0.00000000       0.00083521       0.00733915      -0.00144720
Pt       5.62923630       0.00887531      26.89672777        1       0.00000000       0.00340661      -0.00897065      -0.00210398
Pt       1.39480619       2.42896623      26.89685454        1       0.00000000       0.01400730      -0.00492821      -0.00362946
Pt       4.21710640       2.42459082      26.89688197        1       0.00000000      -0.00289030       0.01441619      -0.00371541
Pt       7.01833106       2.41384489      26.89673844        1       0.00000000      -0.00946467       0.00157971      -0.00198431
Pt       2.80970132       4.87093456      26.89684058        1       0.00000000      -0.01098702      -0.00970174      -0.00374734
Pt       5.49132319       4.78887519      27.18118007        1       0.00000000      -0.00684618      -0.00281893      -0.00144105
Pt       8.54673314       4.79231016      27.18119103        1       0.00000000       0.00575877      -0.00447088      -0.00141204
C        7.01803486       5.67260516      27.90897306        0       1.00000000      -0.00002708       0.00004938       0.00193295
H        7.01803517       5.67261343      25.36173282        0       0.00000000      -0.00000247      -0.00000540      -0.01948565
