38
Lattice="8.421641763931781 0.0 0.0 4.2108208819658905 7.293355709136913 0.0 0.0 0.0 46.87624170604845" Properties=species:S:1:pos:R:3:tags:I:1:initial_magmoms:R:1:forces:R:3 charge=0 spin=0 energy=-197.50844550808193 free_energy=-197.50844550808193 stress="0.009107133373618126 -3.5457117064652266e-07 9.171665737994772e-08 -3.5457117064652266e-07 0.009108193218708038 5.780579499514715e-07 9.171665737994772e-08 5.780579499514715e-07 -0.0007796600693836808" pbc="T T T"
Pt      -0.00000012       0.00000002      19.95723426        4       0.00000000      -0.00104435       0.00932378       0.01956210
Pt       2.80721404      -0.00000018      19.95723442        4       0.00000000       0.01979200      -0.01459146      -0.03710308
Pt       5.61442782      -0.00000007      19.95723448        4       0.00000000      -0.02247303      -0.00981620      -0.03682093
Pt       1.40360721       2.43111841      19.95723428        4       0.00000000      -0.00757144      -0.00553569       0.01934191
Pt       4.21082083       2.43111835      19.95723436        4       0.00000000      -0.00033404      -0.00617975       0.02228889
Pt       7.01803478       2.43111845      19.95723424        4       0.00000000       0.00861271      -0.00378705       0.01937170
Pt       2.80721407       4.86223728      19.95723400        4       0.00000000      -0.00520332       0.00340911       0.02253376
Pt       5.61442803       4.86223733      19.95723419        4       0.00000000       0.00553353       0.00275730       0.02237799
Pt       8.42164139       4.86223726      19.95723434        4       0.00000000       0.00272719       0.02447208      -0.03709133
Pt       1.40360728       0.81037259      22.29206791        3       0.00000000       0.08832388      -0.05134981      -0.15098180
Pt       4.21082130       0.81037249      22.29206784        3       0.00000000      -0.00044952      -0.04876614      -0.19442055
Pt       7.01803471       0.81037256      22.29206781        3       0.00000000      -0.08860544      -0.05071148      -0.15093964
Pt       2.80721448       3.24149124      22.29206773        3       0.00000000      -0.01907237      -0.01708298      -0.01881437
Pt       5.61442763       3.24149123      22.29206786        3       0.00000000       0.02431468      -0.00792367      -0.01890353
Pt       8.42164156       3.24149129      22.29206804        3       0.00000000       0.00029926       0.10215120      -0.15129755
Pt       4.21082092       5.67260997      22.29206793        3       0.00000000      -0.00527286       0.02495943      -0.01836353
Pt       7.01803487       5.67261037      22.29206776        3       0.00000000       0.04259312       0.02393977      -0.19425869
Pt       9.82524821       5.67261065      22.29206806        3       0.00000000      -0.04216332       0.02479586      -0.19412966
Pt      -0.00000053       1.62074569      24.58417386        2       0.00000000       0.00051423       0.00059530      -0.64363223
Pt       2.80721443       1.62074549      24.58417398        2       0.00000000      -0.22666222       0.10880606       0.33175722
Pt       5.61442778       1.62074537      24.58417377        2       0.00000000       0.23039597       0.10480801       0.33043298
Pt       1.40360637       4.05186439      24.58417390        2       0.00000000      -0.02472638      -0.25231934       0.33128628
Pt       4.21082088       4.05186403      24.58417379        2       0.00000000      -0.00005139       0.00006069       0.02967390
Pt       7.01803504       4.05186408      24.58417406        2       0.00000000       0.01937555      -0.25071594       0.33149070
Pt       2.80721282       6.48298343      24.58417376        2       0.00000000       0.20731010       0.14186521       0.33086383
Pt       5.61442796       6.48298325      24.58417391        2       0.00000000      -0.20564748       0.14755073       0.33017743
Pt       8.42164222       6.48298341      24.58417381        2       0.00000000      -0.00003414      -0.00008057      -0.22959115
Pt      -0.00417816      -0.10406943      27.29439786        1       0.00000000      -0.00011393       0.00453099       0.00021747
Pt       2.82994128      -0.01438094      26.90384638        1       0.00000000      -0.01155971       0.00753977      -0.00501224
Pt       5.59059787      -0.01230509      26.90377317        1       0.00000000       0.01223507       0.00600333      -0.00469689
Pt       1.49603130       2.47965771      27.29450197        1       0.00000000      -0.00095589      -0.00118416      -0.00152472
Pt       4.21291718       2.42445928      26.90764696        1       0.00000000      -0.00643876       0.01076980      -0.01779927
Pt       6.93002510       2.48698801      27.29444722        1       0.00000000       0.00286258      -0.00091191      -0.00057324
Pt       2.80056361       4.86413246      26.90767613        1       0.00000000       0.01161609      -0.00114462      -0.01784730
Pt       5.61930940       4.86728862      26.90764009        1       0.00000000      -0.00617876      -0.01006221      -0.01771053
Pt       8.42286946       4.88911597      26.90393011        1       0.00000000      -0.00071041      -0.01354605      -0.00520359
C        8.42182838       1.62104439      28.18089732        0       1.00000000      -0.00032084      -0.00127498      -0.01811624
H        8.42074622       1.61950133      26.17529490        0       0.00000000      -0.00091610      -0.00135458       0.02345620
