38
Lattice="8.421641763931781 0.0 0.0 4.2108208819658905 7.293355709136913 0.0 0.0 0.0 46.87624170604845" Properties=species:S:1:pos:R:3:tags:I:1:initial_magmoms:R:1:forces:R:3 charge=0 spin=0 energy=-197.98581100185635 free_energy=-197.98581100185635 stress="0.007734556216746569 3.4263055567862466e-05 -1.6995041733025573e-05 3.4263055567862466e-05 0.007405602838844061 8.329690899699926e-05 -1.6995041733025573e-05 8.329690899699926e-05 -0.0006757988594472408" pbc="T T T"
Pt      -0.00000012       0.00000002      19.95723426        4       0.00000000      -0.00160945      -0.00300146       0.00832553
Pt       2.80721404      -0.00000018      19.95723442        4       0.00000000       0.00495915      -0.00008624       0.00848123
Pt       5.61442782      -0.00000007      19.95723448        4       0.00000000       0.00578788       0.02105990       0.00338983
Pt       1.40360721       2.43111841      19.95723428        4       0.00000000      -0.00019940       0.00633414       0.01843458
Pt       4.21082083       2.43111835      19.95723436        4       0.00000000       0.01135674      -0.01161967      -0.01432452
Pt       7.01803478       2.43111845      19.95723424        4       0.00000000      -0.01716624      -0.00642208      -0.01326665
Pt       2.80721407       4.86223728      19.95723400        4       0.00000000       0.00330062      -0.00157829       0.02674242
Pt       5.61442803       4.86223733      19.95723419        4       0.00000000      -0.00049777       0.01102884      -0.01037361
Pt       8.42164139       4.86223726      19.95723434        4       0.00000000      -0.00573482       0.00024777       0.02792217
Pt       1.40360728       0.81037259      22.29206791        3       0.00000000      -0.00046834       0.01236721      -0.07832722
Pt       4.21082130       0.81037249      22.29206784        3       0.00000000       0.02362805       0.03612013      -0.11888057
Pt       7.01803471       0.81037256      22.29206781        3       0.00000000      -0.01682798       0.04228989      -0.12890509
Pt       2.80721448       3.24149124      22.29206773        3       0.00000000       0.06898760      -0.03162258      -0.12980691
Pt       5.61442763       3.24149123      22.29206786        3       0.00000000       0.00276216       0.00691682      -0.26220489
Pt       8.42164156       3.24149129      22.29206804        3       0.00000000      -0.07109820      -0.03119918      -0.13121346
Pt       4.21082092       5.67260997      22.29206793        3       0.00000000       0.01023469      -0.02336964      -0.06741625
Pt       7.01803487       5.67261037      22.29206776        3       0.00000000      -0.01140592      -0.02244293      -0.07168390
Pt       9.82524821       5.67261065      22.29206806        3       0.00000000       0.00173890       0.04157171      -0.01736786
Pt      -0.00000053       1.62074569      24.58417386        2       0.00000000       0.00822296       0.00168279       0.00126089
Pt       2.80721443       1.62074549      24.58417398        2       0.00000000      -0.01453496       0.01549548       0.00290470
Pt       5.61442778       1.62074537      24.58417377        2       0.00000000      -0.01073347      -0.14023314       0.19662862
Pt       1.40360637       4.05186439      24.58417390        2       0.00000000       0.00519101       0.15952535      -0.16885574
Pt       4.21082088       4.05186403      24.58417379        2       0.00000000      -0.20960985       0.12139444       0.28801325
Pt       7.01803504       4.05186408      24.58417406        2       0.00000000       0.20437722       0.10736796       0.28977361
Pt       2.80721282       6.48298343      24.58417376        2       0.00000000      -0.09562495      -0.12338259       0.23851490
Pt       5.61442796       6.48298325      24.58417391        2       0.00000000       0.00166224      -0.03681907      -0.08905990
Pt       8.42164222       6.48298341      24.58417381        2       0.00000000       0.08481120      -0.10782191       0.23351476
Pt       0.01372396      -0.01382169      26.89527794        1       0.00000000      -0.01334531      -0.01282662       0.00324340
Pt       2.78679631      -0.00726709      26.89568488        1       0.00000000       0.01873123      -0.01185772      -0.00533354
Pt       5.61266606       0.12753395      27.03381329        1       0.00000000       0.00091722       0.00725408      -0.01599542
Pt       1.40102212       2.31021840      27.01393718        1       0.00000000      -0.01189755      -0.00241564       0.00128121
Pt       4.20273186       2.43429455      26.90530700        1       0.00000000       0.02101392      -0.01455460      -0.00827133
Pt       7.02425528       2.43145787      26.90611093        1       0.00000000      -0.00575487      -0.00239161      -0.00252989
Pt       2.93563425       4.81835266      27.26795609        1       0.00000000      -0.00938904       0.02495962       0.00082078
Pt       5.61454453       4.84344924      26.89416897        1       0.00000000      -0.00447960       0.01503981       0.00396481
Pt       8.29600251       4.82745576      27.23893582        1       0.00000000      -0.02978609      -0.01590399      -0.02420142
C        9.82175903       5.75849972      27.94693931        0       1.00000000       0.04263161      -0.01118693       0.00424460
H        9.84402082       3.97353413      26.33069618        0       0.00000000       0.00984952      -0.01991997       0.00055684
