38
Lattice="8.421641763931781 0.0 0.0 4.2108208819658905 7.293355709136913 0.0 0.0 0.0 46.87624170604845" Properties=species:S:1:pos:R:3:tags:I:1:initial_magmoms:R:1:forces:R:3 charge=0 spin=0 energy=-197.9398286410165 free_energy=-197.9398286410165 stress="0.0070271785371005535 -1.6196371177557012e-07 6.708881894468277e-09 -1.6196371177557012e-07 0.007027317304164171 -2.817930919718492e-07 6.708881894468277e-09 -2.817930919718492e-07 -0.0010596358915790915" pbc="T T T"
Pt      -0.00000012       0.00000002      19.95723426        4       0.00000000       0.00404858       0.00194457       0.01473350
Pt       2.80721404      -0.00000018      19.95723442        4       0.00000000       0.00097322       0.00825861       0.01817325
Pt       5.61442782      -0.00000007      19.95723448        4       0.00000000      -0.00034721      -0.00449663       0.01460017
Pt       1.40360721       2.43111841      19.95723428        4       0.00000000       0.00845094       0.00316100      -0.02566242
Pt       4.21082083       2.43111835      19.95723436        4       0.00000000      -0.00700783       0.00573420      -0.02574857
Pt       7.01803478       2.43111845      19.95723424        4       0.00000000      -0.00369937       0.00255532       0.01477494
Pt       2.80721407       4.86223728      19.95723400        4       0.00000000      -0.00144096      -0.00889628      -0.02573672
Pt       5.61442803       4.86223733      19.95723419        4       0.00000000      -0.00768328      -0.00323116       0.01827374
Pt       8.42164139       4.86223726      19.95723434        4       0.00000000       0.00671001      -0.00503242       0.01823640
Pt       1.40360728       0.81037259      22.29206791        3       0.00000000       0.00627599       0.07274289      -0.12919064
Pt       4.21082130       0.81037249      22.29206784        3       0.00000000      -0.00261659       0.08114929      -0.13668129
Pt       7.01803471       0.81037256      22.29206781        3       0.00000000       0.00000235       0.00000286      -0.11068121
Pt       2.80721448       3.24149124      22.29206773        3       0.00000000      -0.00000660       0.00000170      -0.26885125
Pt       5.61442763       3.24149123      22.29206786        3       0.00000000      -0.06603819      -0.03089800      -0.12884638
Pt       8.42164156       3.24149129      22.29206804        3       0.00000000       0.07158151      -0.03839929      -0.13649054
Pt       4.21082092       5.67260997      22.29206793        3       0.00000000      -0.06896121      -0.04273900      -0.13687705
Pt       7.01803487       5.67261037      22.29206776        3       0.00000000      -0.00000332      -0.00000546      -0.22390918
Pt       9.82524821       5.67261065      22.29206806        3       0.00000000       0.05977409      -0.04185214      -0.12930065
Pt      -0.00000053       1.62074569      24.58417386        2       0.00000000      -0.00027060       0.00884793      -0.08038899
Pt       2.80721443       1.62074549      24.58417398        2       0.00000000      -0.00380135      -0.12444266       0.26743865
Pt       5.61442778       1.62074537      24.58417377        2       0.00000000      -0.00751452      -0.00480752      -0.08044838
Pt       1.40360637       4.05186439      24.58417390        2       0.00000000      -0.10580092       0.06554073       0.26745284
Pt       4.21082088       4.05186403      24.58417379        2       0.00000000       0.10953746       0.05889682       0.26758558
Pt       7.01803504       4.05186408      24.58417406        2       0.00000000       0.00673591      -0.56731534       0.28544265
Pt       2.80721282       6.48298343      24.58417376        2       0.00000000       0.00768272      -0.00401911      -0.08011349
Pt       5.61442796       6.48298325      24.58417391        2       0.00000000      -0.49458244       0.27797791       0.28574538
Pt       8.42164222       6.48298341      24.58417381        2       0.00000000       0.48798326       0.28933445       0.28559080
Pt      -0.01512384       0.00837955      26.89671089        1       0.00000000       0.00621943       0.00750108      -0.00206921
Pt       2.80523737       0.14329506      27.18118902        1       0.00000000       0.00084982       0.00729784      -0.00143218
Pt       5.62923559       0.00887572      26.89672832        1       0.00000000       0.00340853      -0.00897327      -0.00210456
Pt       1.39480632       2.42896493      26.89685276        1       0.00000000       0.01400283      -0.00491042      -0.00362590
Pt       4.21710693       2.42459037      26.89688270        1       0.00000000      -0.00288264       0.01443365      -0.00372134
Pt       7.01833126       2.41384727      26.89673810        1       0.00000000      -0.00946443       0.00156557      -0.00198516
Pt       2.80970309       4.87093425      26.89684063        1       0.00000000      -0.01099345      -0.00970081      -0.00375007
Pt       5.49132772       4.78887860      27.18118451        1       0.00000000      -0.00699958      -0.00290841      -0.00149800
Pt       8.54673183       4.79230953      27.18119244        1       0.00000000       0.00580309      -0.00447495      -0.00142705
C        7.01803172       5.67260219      27.90897024        0       1.00000000       0.00007490       0.00016006       0.00199397
H        7.01803504       5.67261291      25.36173669        0       0.00000000      -0.00000032      -0.00000378      -0.01950159
