38
Lattice="8.421641763931781 0.0 0.0 4.2108208819658905 7.293355709136913 0.0 0.0 0.0 46.87624170604845" Properties=species:S:1:pos:R:3:tags:I:1:initial_magmoms:R:1:forces:R:3 charge=0 spin=0 energy=-197.93983245571377 free_energy=-197.93983245571377 stress="0.0070271845906972885 -1.880122226793901e-07 -1.4466988496053546e-08 -1.880122226793901e-07 0.00702730193734169 -2.695240084449324e-07 -1.4466988496053546e-08 -2.695240084449324e-07 -0.0010596351930871606" pbc="T T T"
Pt      -0.00000012       0.00000002      19.95723426        4       0.00000000       0.00097721       0.00825459       0.01818218
Pt       2.80721404      -0.00000018      19.95723442        4       0.00000000      -0.00034893      -0.00449757       0.01459985
Pt       5.61442782      -0.00000007      19.95723448        4       0.00000000       0.00404613       0.00194865       0.01472498
Pt       1.40360721       2.43111841      19.95723428        4       0.00000000      -0.00701068       0.00573352      -0.02574770
Pt       4.21082083       2.43111835      19.95723436        4       0.00000000      -0.00369562       0.00255608       0.01477553
Pt       7.01803478       2.43111845      19.95723424        4       0.00000000       0.00845036       0.00316080      -0.02566303
Pt       2.80721407       4.86223728      19.95723400        4       0.00000000      -0.00767989      -0.00323084       0.01827444
Pt       5.61442803       4.86223733      19.95723419        4       0.00000000       0.00670687      -0.00503102       0.01823674
Pt       8.42164139       4.86223726      19.95723434        4       0.00000000      -0.00144064      -0.00889701      -0.02573801
Pt       1.40360728       0.81037259      22.29206791        3       0.00000000      -0.00261828       0.08114602      -0.13668147
Pt       4.21082130       0.81037249      22.29206784        3       0.00000000      -0.00000040       0.00000669      -0.11067910
Pt       7.01803471       0.81037256      22.29206781        3       0.00000000       0.00628066       0.07274333      -0.12919255
Pt       2.80721448       3.24149124      22.29206773        3       0.00000000      -0.06604863      -0.03089641      -0.12884697
Pt       5.61442763       3.24149123      22.29206786        3       0.00000000       0.07158125      -0.03840034      -0.13649088
Pt       8.42164156       3.24149129      22.29206804        3       0.00000000       0.00000387       0.00000087      -0.26885396
Pt       4.21082092       5.67260997      22.29206793        3       0.00000000      -0.00000269       0.00000319      -0.22391087
Pt       7.01803487       5.67261037      22.29206776        3       0.00000000       0.05976458      -0.04184685      -0.12929595
Pt       9.82524821       5.67261065      22.29206806        3       0.00000000      -0.06895170      -0.04275300      -0.13687678
Pt      -0.00000053       1.62074569      24.58417386        2       0.00000000      -0.00379066      -0.12444662       0.26744363
Pt       2.80721443       1.62074549      24.58417398        2       0.00000000      -0.00751758      -0.00481184      -0.08045138
Pt       5.61442778       1.62074537      24.58417377        2       0.00000000      -0.00027438       0.00885328      -0.08038498
Pt       1.40360637       4.05186439      24.58417390        2       0.00000000       0.10954262       0.05889345       0.26758856
Pt       4.21082088       4.05186403      24.58417379        2       0.00000000       0.00673878      -0.56731677       0.28544372
Pt       7.01803504       4.05186408      24.58417406        2       0.00000000      -0.10581235       0.06554602       0.26744661
Pt       2.80721282       6.48298343      24.58417376        2       0.00000000      -0.49457082       0.27797467       0.28574675
Pt       5.61442796       6.48298325      24.58417391        2       0.00000000       0.48798823       0.28933910       0.28558394
Pt       8.42164222       6.48298341      24.58417381        2       0.00000000       0.00766259      -0.00401865      -0.08011443
Pt      -0.00197851       0.14329224      27.18118870        1       0.00000000       0.00085746       0.00737376      -0.00145678
Pt       2.82201976       0.00887306      26.89672894        1       0.00000000       0.00341188      -0.00895862      -0.00210427
Pt       5.59929779       0.00837859      26.89671221        1       0.00000000       0.00623884       0.00750602      -0.00206999
Pt       1.40990186       2.42458972      26.89688197        1       0.00000000      -0.00291804       0.01442691      -0.00371867
Pt       4.21111775       2.41384972      26.89673977        1       0.00000000      -0.00946175       0.00155963      -0.00199087
Pt       7.00923479       2.42896521      26.89685154        1       0.00000000       0.01400835      -0.00492327      -0.00362126
Pt       2.68411592       4.78888145      27.18118673        1       0.00000000      -0.00706504      -0.00294044      -0.00151984
Pt       5.73952159       4.79231058      27.18119161        1       0.00000000       0.00571852      -0.00445137      -0.00139368
Pt       8.42412603       4.87093396      26.89684170        1       0.00000000      -0.01094033      -0.00970646      -0.00374908
C        4.21081502       5.67260482      27.90897264        0       1.00000000       0.00016977       0.00010440       0.00200203
H        4.21081967       5.67261354      25.36173495        0       0.00000000       0.00000087      -0.00000396      -0.01949646
