38
Lattice="8.421641763931781 0.0 0.0 4.2108208819658905 7.293355709136913 0.0 0.0 0.0 46.87624170604845" Properties=species:S:1:pos:R:3:tags:I:1:initial_magmoms:R:1:forces:R:3 charge=0 spin=0 energy=-197.93990874965908 free_energy=-197.93990874965908 stress="0.007024429272860289 2.3101771162714613e-08 1.5738595493530738e-07 2.3101771162714613e-08 0.007020881399512291 1.0149198033104767e-06 1.5738595493530738e-07 1.0149198033104767e-06 -0.0010912816505879164" pbc="T T T"
Pt      -0.00000012       0.00000002      19.95723426        4       0.00000000      -0.00347769       0.00262712       0.01469595
Pt       2.80721404      -0.00000018      19.95723442        4       0.00000000       0.00841699       0.00311350      -0.02581869
Pt       5.61442782      -0.00000007      19.95723448        4       0.00000000      -0.00695768       0.00571779      -0.02590977
Pt       1.40360721       2.43111841      19.95723428        4       0.00000000       0.00667932      -0.00515913       0.01826515
Pt       4.21082083       2.43111835      19.95723436        4       0.00000000      -0.00145740      -0.00883783      -0.02590328
Pt       7.01803478       2.43111845      19.95723424        4       0.00000000      -0.00777330      -0.00315592       0.01830349
Pt       2.80721407       4.86223728      19.95723400        4       0.00000000      -0.00052667      -0.00437185       0.01452046
Pt       5.61442803       4.86223733      19.95723419        4       0.00000000       0.00400662       0.00169380       0.01464746
Pt       8.42164139       4.86223726      19.95723434        4       0.00000000       0.00109674       0.00827420       0.01820129
Pt       1.40360728       0.81037259      22.29206791        3       0.00000000       0.07184150      -0.03859105      -0.13561268
Pt       4.21082130       0.81037249      22.29206784        3       0.00000000      -0.00000073       0.00000437      -0.26908091
Pt       7.01803471       0.81037256      22.29206781        3       0.00000000      -0.06604420      -0.03103383      -0.12911059
Pt       2.80721448       3.24149124      22.29206773        3       0.00000000       0.05983073      -0.04182773      -0.12953237
Pt       5.61442763       3.24149123      22.29206786        3       0.00000000      -0.06922854      -0.04294003      -0.13596268
Pt       8.42164156       3.24149129      22.29206804        3       0.00000000       0.00000042      -0.00004102      -0.22471637
Pt       4.21082092       5.67260997      22.29206793        3       0.00000000      -0.00000822      -0.00003521      -0.11084109
Pt       7.01803487       5.67261037      22.29206776        3       0.00000000       0.00620224       0.07273472      -0.12942544
Pt       9.82524821       5.67261065      22.29206806        3       0.00000000      -0.00263316       0.08139567      -0.13576883
Pt      -0.00000053       1.62074569      24.58417386        2       0.00000000       0.00713844      -0.57453227       0.27909580
Pt       2.80721443       1.62074549      24.58417398        2       0.00000000      -0.10937098       0.06514394       0.26216754
Pt       5.61442778       1.62074537      24.58417377        2       0.00000000       0.11081395       0.06252341       0.26220393
Pt       1.40360637       4.05186439      24.58417390        2       0.00000000       0.49408761       0.29336393       0.27941513
Pt       4.21082088       4.05186403      24.58417379        2       0.00000000       0.01002738      -0.00454015      -0.08808782
Pt       7.01803504       4.05186408      24.58417406        2       0.00000000      -0.50105536       0.28133416       0.27953118
Pt       2.80721282       6.48298343      24.58417376        2       0.00000000      -0.00920921      -0.00634386      -0.08841216
Pt       5.61442796       6.48298325      24.58417391        2       0.00000000      -0.00088217       0.01134492      -0.08832743
Pt       8.42164222       6.48298341      24.58417381        2       0.00000000      -0.00148422      -0.12722126       0.26230106
Pt      -0.00294448      -0.01708736      26.89440283        1       0.00000000       0.00185131       0.00264197       0.00618922
Pt       2.80086250      -0.00372714      26.89475164        1       0.00000000       0.00180521       0.00619116       0.00408788
Pt       5.62102883      -0.00336547      26.89475948        1       0.00000000      -0.00610897      -0.00121991       0.00407109
Pt       1.52771412       2.35989610      27.18029351        1       0.00000000      -0.01613633       0.00523392       0.00792385
Pt       4.21062023       2.43883741      26.89478193        1       0.00000000       0.00423777      -0.00488363       0.00394278
Pt       6.89408783       2.35966170      27.18030153        1       0.00000000       0.01348286       0.01102367       0.00810549
Pt       2.82374517       4.86855287      26.89436683        1       0.00000000      -0.00319417       0.00014149       0.00612776
Pt       5.60090308       4.87369119      26.89436592        1       0.00000000       0.00144878      -0.00287805       0.00613283
Pt       8.42153828       5.00560769      27.18021759        1       0.00000000       0.00310061      -0.01283114       0.00662339
C        8.42169236       3.24198927      27.91221908        0       1.00000000      -0.00053505      -0.00413036      -0.02853618
H        8.42163122       3.24142185      25.35835084        0       0.00000000       0.00001586       0.00007036      -0.00550645
