38
Lattice="8.421641763931781 0.0 0.0 4.2108208819658905 7.293355709136913 0.0 0.0 0.0 46.87624170604845" Properties=species:S:1:pos:R:3:tags:I:1:initial_magmoms:R:1:forces:R:3 charge=0 spin=0 energy=-197.93991256435635 free_energy=-197.93991256435635 stress="0.007024301216006279 1.5647893647496858e-08 1.4523011770961602e-07 1.5647893647496858e-08 0.007020789664238691 1.0005541071222979e-06 1.4523011770961602e-07 1.0005541071222979e-06 -0.0010913291480392218" pbc="T T T"
Pt      -0.00000012       0.00000002      19.95723426        4       0.00000000       0.00842090       0.00310984      -0.02580928
Pt       2.80721404      -0.00000018      19.95723442        4       0.00000000      -0.00695906       0.00571699      -0.02590977
Pt       5.61442782      -0.00000007      19.95723448        4       0.00000000      -0.00348026       0.00263161       0.01468745
Pt       1.40360721       2.43111841      19.95723428        4       0.00000000      -0.00146015      -0.00883818      -0.02590262
Pt       4.21082083       2.43111835      19.95723436        4       0.00000000      -0.00777025      -0.00315528       0.01830455
Pt       7.01803478       2.43111845      19.95723424        4       0.00000000       0.00667890      -0.00515877       0.01826411
Pt       2.80721407       4.86223728      19.95723400        4       0.00000000       0.00400970       0.00169387       0.01464856
Pt       5.61442803       4.86223733      19.95723419        4       0.00000000       0.00109338       0.00827558       0.01820190
Pt       8.42164139       4.86223726      19.95723434        4       0.00000000      -0.00052655      -0.00437278       0.01451949
Pt       1.40360728       0.81037259      22.29206791        3       0.00000000      -0.00000250       0.00000126      -0.26907983
Pt       4.21082130       0.81037249      22.29206784        3       0.00000000      -0.06604680      -0.03102878      -0.12910762
Pt       7.01803471       0.81037256      22.29206781        3       0.00000000       0.07184698      -0.03858992      -0.13561548
Pt       2.80721448       3.24149124      22.29206773        3       0.00000000      -0.06923846      -0.04293736      -0.13595989
Pt       5.61442763       3.24149123      22.29206786        3       0.00000000      -0.00000103      -0.00004106      -0.22471976
Pt       8.42164156       3.24149129      22.29206804        3       0.00000000       0.05984132      -0.04182791      -0.12953372
Pt       4.21082092       5.67260997      22.29206793        3       0.00000000       0.00620316       0.07274438      -0.12942819
Pt       7.01803487       5.67261037      22.29206776        3       0.00000000      -0.00264264       0.08140148      -0.13576691
Pt       9.82524821       5.67261065      22.29206806        3       0.00000000       0.00000024      -0.00004749      -0.11084165
Pt      -0.00000053       1.62074569      24.58417386        2       0.00000000      -0.10935379       0.06513504       0.26216471
Pt       2.80721443       1.62074549      24.58417398        2       0.00000000       0.11080226       0.06251651       0.26220006
Pt       5.61442778       1.62074537      24.58417377        2       0.00000000       0.00713561      -0.57454813       0.27908799
Pt       1.40360637       4.05186439      24.58417390        2       0.00000000       0.01003401      -0.00455275      -0.08809040
Pt       4.21082088       4.05186403      24.58417379        2       0.00000000      -0.50106740       0.28134346       0.27951878
Pt       7.01803504       4.05186408      24.58417406        2       0.00000000       0.49409041       0.29337674       0.27940711
Pt       2.80721282       6.48298343      24.58417376        2       0.00000000      -0.00086800       0.01133713      -0.08832636
Pt       5.61442796       6.48298325      24.58417391        2       0.00000000      -0.00147908      -0.12721358       0.26229060
Pt       8.42164222       6.48298341      24.58417381        2       0.00000000      -0.00922870      -0.00634399      -0.08841389
Pt      -0.00635278      -0.00373044      26.89475227        1       0.00000000       0.00181137       0.00618614       0.00408532
Pt       2.81381579      -0.00336823      26.89475963        1       0.00000000      -0.00611674      -0.00122925       0.00407077
Pt       5.61148239      -0.01709058      26.89440309        1       0.00000000       0.00185446       0.00263919       0.00619212
Pt       1.40340875       2.43883309      26.89478252        1       0.00000000       0.00421693      -0.00488003       0.00393504
Pt       4.08687380       2.35965798      27.18030238        1       0.00000000       0.01340157       0.01097362       0.00807462
Pt       7.14214062       2.35988954      27.18028756        1       0.00000000      -0.01608356       0.00523271       0.00791300
Pt       2.79368948       4.87368597      26.89436584        1       0.00000000       0.00144233      -0.00286971       0.00613249
Pt       5.61432229       5.00560291      27.18021237        1       0.00000000       0.00311895      -0.01279948       0.00661924
Pt       8.43817386       4.86855079      26.89436624        1       0.00000000      -0.00320281       0.00013126       0.00613340
C        5.61447670       3.24198252      27.91220660        0       1.00000000      -0.00049331      -0.00408451      -0.02845781
H        5.61441520       3.24142145      25.35834324        0       0.00000000       0.00001873       0.00007220      -0.00548817
