38
Lattice="8.421641763931781 0.0 0.0 4.2108208819658905 7.293355709136913 0.0 0.0 0.0 46.87624170604845" Properties=species:S:1:pos:R:3:tags:I:1:initial_magmoms:R:1:forces:R:3 charge=0 spin=0 energy=-197.9390847750497 free_energy=-197.9390847750497 stress="0.00702584208920598 -1.2310863439779496e-07 1.3529922959776286e-08 -1.2310863439779496e-07 0.00702521251514554 -1.6905431721170316e-08 1.3529922959776286e-08 -1.6905431721170316e-08 -0.0010193329071626067" pbc="T T T"
Pt      -0.00000012       0.00000002      19.95723426        4       0.00000000       0.00607586      -0.00489780       0.01775489
Pt       2.80721404      -0.00000018      19.95723442        4       0.00000000      -0.00144054      -0.00943197      -0.02557684
Pt       5.61442782      -0.00000007      19.95723448        4       0.00000000      -0.00725027      -0.00274015       0.01778271
Pt       1.40360721       2.43111841      19.95723428        4       0.00000000      -0.00024323      -0.00441502       0.01463603
Pt       4.21082083       2.43111835      19.95723436        4       0.00000000       0.00392428       0.00199697       0.01476086
Pt       7.01803478       2.43111845      19.95723424        4       0.00000000       0.00117723       0.00764125       0.01769815
Pt       2.80721407       4.86223728      19.95723400        4       0.00000000      -0.00367589       0.00241765       0.01480713
Pt       5.61442803       4.86223733      19.95723419        4       0.00000000       0.00892033       0.00343092      -0.02548727
Pt       8.42164139       4.86223726      19.95723434        4       0.00000000      -0.00748242       0.00599625      -0.02557499
Pt       1.40360728       0.81037259      22.29206791        3       0.00000000       0.06028253      -0.04186864      -0.13186884
Pt       4.21082130       0.81037249      22.29206784        3       0.00000000      -0.06958567      -0.04305165      -0.13933791
Pt       7.01803471       0.81037256      22.29206781        3       0.00000000       0.00000268       0.00000450      -0.22161175
Pt       2.80721448       3.24149124      22.29206773        3       0.00000000      -0.00000593      -0.00000124      -0.10852345
Pt       5.61442763       3.24149123      22.29206786        3       0.00000000       0.00605302       0.07320607      -0.13173972
Pt       8.42164156       3.24149129      22.29206804        3       0.00000000      -0.00257350       0.08183789      -0.13914734
Pt       4.21082092       5.67260997      22.29206793        3       0.00000000       0.07216240      -0.03877816      -0.13892905
Pt       7.01803487       5.67261037      22.29206776        3       0.00000000       0.00000041       0.00000021      -0.26968649
Pt       9.82524821       5.67261065      22.29206806        3       0.00000000      -0.06632226      -0.03134603      -0.13138156
Pt      -0.00000053       1.62074569      24.58417386        2       0.00000000       0.48941693       0.28973785       0.29068339
Pt       2.80721443       1.62074549      24.58417398        2       0.00000000       0.00867847       0.00058376      -0.07332443
Pt       5.61442778       1.62074537      24.58417377        2       0.00000000      -0.49564451       0.27904558       0.29084933
Pt       1.40360637       4.05186439      24.58417390        2       0.00000000      -0.00403463      -0.00794323      -0.07366538
Pt       4.21082088       4.05186403      24.58417379        2       0.00000000      -0.00473662       0.00744047      -0.07354269
Pt       7.01803504       4.05186408      24.58417406        2       0.00000000      -0.00236797      -0.12333634       0.27895942
Pt       2.80721282       6.48298343      24.58417376        2       0.00000000       0.00638611      -0.56879115       0.29057354
Pt       5.61442796       6.48298325      24.58417391        2       0.00000000      -0.10558353       0.06367181       0.27895069
Pt       8.42164222       6.48298341      24.58417381        2       0.00000000       0.10782606       0.05958608       0.27900562
Pt       0.12679674      -0.07121357      27.19009152        1       0.00000000       0.02528272      -0.01895902      -0.02213149
Pt       2.80823662       0.01337400      26.89837877        1       0.00000000      -0.00219722      -0.03058587      -0.01464402
Pt       5.48933460      -0.07420978      27.19007834        1       0.00000000      -0.02892921      -0.01247293      -0.02208906
Pt       1.41359193       2.43613177      26.89728008        1       0.00000000       0.02986205       0.01180372      -0.00597956
Pt       4.20147558       2.43727219      26.89729473        1       0.00000000      -0.02513274       0.01998072      -0.00602303
Pt       7.01629532       2.57650291      27.19010777        1       0.00000000       0.00370506       0.03261552      -0.02254697
Pt       2.80655637       4.85107278      26.89732861        1       0.00000000      -0.00464421      -0.03172858      -0.00596887
Pt       5.60230481       4.85645535      26.89844397        1       0.00000000       0.02762608       0.01331708      -0.01466370
Pt       8.43269531       4.85464490      26.89842721        1       0.00000000      -0.02544601       0.01706448      -0.01463789
C        7.01802380       0.81040588      27.90603195        0       1.00000000      -0.00008945      -0.00102040       0.03412955
H        7.01803387       0.81037538      25.35766742        0       0.00000000       0.00000366      -0.00001037      -0.00250892
