38
Lattice="8.421641763931781 0.0 0.0 4.2108208819658905 7.293355709136913 0.0 0.0 0.0 46.87624170604845" Properties=species:S:1:pos:R:3:tags:I:1:initial_magmoms:R:1:forces:R:3 charge=0 spin=0 energy=-197.9896848269296 free_energy=-197.9896848269296 stress="0.007408609613776207 0.00011476896179374307 0.00010799548181239516 0.00011476896179374307 0.007633601780980825 -1.3778158972854726e-05 0.00010799548181239516 -1.3778158972854726e-05 -0.0007390814134851098" pbc="T T T"
Pt      -0.00000012       0.00000002      19.95723426        4       0.00000000      -0.00306449      -0.00399594       0.00872973
Pt       2.80721404      -0.00000018      19.95723442        4       0.00000000       0.00421372      -0.00306346       0.01818867
Pt       5.61442782      -0.00000007      19.95723448        4       0.00000000       0.00231006       0.00394387       0.02828769
Pt       1.40360721       2.43111841      19.95723428        4       0.00000000      -0.00294035       0.00305048       0.00792880
Pt       4.21082083       2.43111835      19.95723436        4       0.00000000       0.00330947       0.02263894      -0.01401181
Pt       7.01803478       2.43111845      19.95723424        4       0.00000000       0.00924790      -0.00429682      -0.01045699
Pt       2.80721407       4.86223728      19.95723400        4       0.00000000       0.01461218      -0.01586339       0.00235080
Pt       5.61442803       4.86223733      19.95723419        4       0.00000000      -0.01333440      -0.00011885      -0.01385418
Pt       8.42164139       4.86223726      19.95723434        4       0.00000000      -0.00424510      -0.00225068       0.02647934
Pt       1.40360728       0.81037259      22.29206791        3       0.00000000       0.00865867      -0.00292243      -0.07591066
Pt       4.21082130       0.81037249      22.29206784        3       0.00000000       0.00825580       0.08758873      -0.14647225
Pt       7.01803471       0.81037256      22.29206781        3       0.00000000      -0.01714667       0.01979265      -0.07337942
Pt       2.80721448       3.24149124      22.29206773        3       0.00000000       0.04607451      -0.00902755      -0.13674538
Pt       5.61442763       3.24149123      22.29206786        3       0.00000000       0.00245095      -0.00718076      -0.26111066
Pt       8.42164156       3.24149129      22.29206804        3       0.00000000      -0.02521335       0.00241462      -0.06490342
Pt       4.21082092       5.67260997      22.29206793        3       0.00000000       0.01413035      -0.03757909      -0.11148740
Pt       7.01803487       5.67261037      22.29206776        3       0.00000000      -0.05736399      -0.03817169      -0.12040894
Pt       9.82524821       5.67261065      22.29206806        3       0.00000000       0.03416089      -0.02120298      -0.01791890
Pt      -0.00000053       1.62074569      24.58417386        2       0.00000000      -0.01292236       0.02184862      -0.09522013
Pt       2.80721443       1.62074549      24.58417398        2       0.00000000      -0.00190190      -0.01704057       0.00781250
Pt       5.61442778       1.62074537      24.58417377        2       0.00000000      -0.00415688      -0.21281892       0.27539217
Pt       1.40360637       4.05186439      24.58417390        2       0.00000000      -0.07214595       0.14158861       0.24178085
Pt       4.21082088       4.05186403      24.58417379        2       0.00000000      -0.09599143       0.07637994       0.17581981
Pt       7.01803504       4.05186408      24.58417406        2       0.00000000       0.21833070       0.10719117       0.28112218
Pt       2.80721282       6.48298343      24.58417376        2       0.00000000      -0.12260227      -0.02529990       0.20266619
Pt       5.61442796       6.48298325      24.58417391        2       0.00000000       0.03291073      -0.00093203       0.00967297
Pt       8.42164222       6.48298341      24.58417381        2       0.00000000       0.14041270      -0.08274187      -0.17126782
Pt       0.01698951       0.01277869      26.89180801        1       0.00000000       0.00559659       0.00923948       0.00085045
Pt       2.71869609       0.06922591      27.02430677        1       0.00000000       0.00493319      -0.00537691      -0.01481145
Pt       5.65572565       0.11985945      27.18798745        1       0.00000000      -0.01606066       0.00392667      -0.00175491
Pt       1.39689490       2.43160407      26.89686527        1       0.00000000      -0.01009576      -0.00489149       0.00088100
Pt       4.21716881       2.42581648      26.90513212        1       0.00000000       0.00841010      -0.00692814      -0.00083677
Pt       7.02623521       2.42819582      26.89481960        1       0.00000000      -0.02692774       0.02531539       0.00177400
Pt       2.92962070       4.80006882      27.02251799        1       0.00000000      -0.00511778       0.00350340       0.02040281
Pt       5.63179039       4.85697098      26.90554236        1       0.00000000      -0.00878764       0.00183550      -0.00541591
Pt       8.32548402       4.76237661      27.31043790        1       0.00000000      -0.03685029      -0.01945748       0.01115099
C        9.91429679       5.64141600      27.93388355        0       1.00000000       0.01295911       0.02066305       0.00400932
H        8.26560544       6.39110577      26.32018564        0       0.00000000      -0.03410883      -0.02976019       0.01066682
