38
Lattice="8.421641763931781 0.0 0.0 4.2108208819658905 7.293355709136913 0.0 0.0 0.0 46.87624170604845" Properties=species:S:1:pos:R:3:tags:I:1:initial_magmoms:R:1:forces:R:3 charge=0 spin=0 energy=-197.98585105617764 free_energy=-197.98585105617764 stress="0.007506944239139557 -0.0001715888356557116 -6.715817289659753e-05 -0.0001715888356557116 0.007612239569425583 -5.343024531612173e-05 -6.715817289659753e-05 -5.343024531612173e-05 -0.0006812100764364004" pbc="T T T"
Pt      -0.00000012       0.00000002      19.95723426        4       0.00000000      -0.02127405      -0.00556805       0.00347862
Pt       2.80721404      -0.00000018      19.95723442        4       0.00000000       0.00268501      -0.00511049       0.02798042
Pt       5.61442782      -0.00000007      19.95723448        4       0.00000000       0.01420431      -0.01153883      -0.01346006
Pt       1.40360721       2.43111841      19.95723428        4       0.00000000      -0.00026387       0.00366614       0.02682726
Pt       4.21082083       2.43111835      19.95723436        4       0.00000000      -0.00544176      -0.00331076       0.01824948
Pt       7.01803478       2.43111845      19.95723424        4       0.00000000       0.00341224       0.00021915       0.00818113
Pt       2.80721407       4.86223728      19.95723400        4       0.00000000       0.00443979       0.01558221      -0.01429534
Pt       5.61442803       4.86223733      19.95723419        4       0.00000000      -0.00231937       0.00426112       0.00854219
Pt       8.42164139       4.86223726      19.95723434        4       0.00000000      -0.00920590      -0.00593306      -0.01014236
Pt       1.40360728       0.81037259      22.29206791        3       0.00000000      -0.03725960      -0.01950994      -0.01794413
Pt       4.21082130       0.81037249      22.29206784        3       0.00000000       0.06238180      -0.04610486      -0.13132584
Pt       7.01803471       0.81037256      22.29206781        3       0.00000000      -0.02807515      -0.03548560      -0.12909634
Pt       2.80721448       3.24149124      22.29206773        3       0.00000000      -0.00715245       0.07508204      -0.12944943
Pt       5.61442763       3.24149123      22.29206786        3       0.00000000      -0.01047297      -0.00653880      -0.07846626
Pt       8.42164156       3.24149129      22.29206804        3       0.00000000       0.01497736       0.02053547      -0.06749550
Pt       4.21082092       5.67260997      22.29206793        3       0.00000000      -0.04264842       0.00262084      -0.11851971
Pt       7.01803487       5.67261037      22.29206776        3       0.00000000       0.02509408       0.00134037      -0.07140644
Pt       9.82524821       5.67261065      22.29206806        3       0.00000000      -0.00726589      -0.00091946      -0.26158866
Pt      -0.00000053       1.62074569      24.58417386        2       0.00000000       0.15342268      -0.02196395       0.23816007
Pt       2.80721443       1.62074549      24.58417398        2       0.00000000      -0.14028788      -0.07489635      -0.17455715
Pt       5.61442778       1.62074537      24.58417377        2       0.00000000      -0.00476727       0.00700791       0.00134743
Pt       1.40360637       4.05186439      24.58417390        2       0.00000000      -0.00121081      -0.24213114       0.28596389
Pt       4.21082088       4.05186403      24.58417379        2       0.00000000      -0.00529864      -0.02020623       0.00282182
Pt       7.01803504       4.05186408      24.58417406        2       0.00000000       0.03110584       0.01990221      -0.08720609
Pt       2.80721282       6.48298343      24.58417376        2       0.00000000       0.12594891       0.06034260       0.19769520
Pt       5.61442796       6.48298325      24.58417391        2       0.00000000       0.04939312       0.12703027       0.23308793
Pt       8.42164222       6.48298341      24.58417381        2       0.00000000      -0.19494390       0.12241020       0.28610876
Pt      -0.11220269      -0.06664559      27.03478110        1       0.00000000       0.00407059       0.00154357      -0.01570551
Pt       2.90011212      -0.09054328      27.23579188        1       0.00000000       0.00818434      -0.01451198      -0.01561276
Pt       5.60910766       0.00538635      26.90569736        1       0.00000000       0.01352400      -0.00361864      -0.00140462
Pt       1.37760345       2.56306548      27.26585941        1       0.00000000      -0.02118703      -0.01299861       0.00104970
Pt       4.31824330       2.48996284      27.01446635        1       0.00000000       0.00583569      -0.01004746       0.00155489
Pt       7.02381216       2.45003523      26.89560983        1       0.00000000       0.01713205      -0.00493576       0.00225502
Pt       2.80803681       4.85190111      26.90491965        1       0.00000000       0.00469027       0.03134412      -0.00739372
Pt       5.63090619       4.84870008      26.89592851        1       0.00000000       0.00224578       0.02262828      -0.00601361
Pt       8.43902699       4.87246017      26.89456621        1       0.00000000      -0.01527192      -0.01525900       0.00472588
C        1.32923863       0.76425478      27.94555481        0       1.00000000      -0.00070124       0.02698855      -0.00035751
H        2.86677351       1.67821876      26.33006691        0       0.00000000       0.01230033       0.01808407       0.00341181
