38
Lattice="8.421641763931781 0.0 0.0 4.2108208819658905 7.293355709136913 0.0 0.0 0.0 46.87624170604845" Properties=species:S:1:pos:R:3:tags:I:1:initial_magmoms:R:1:forces:R:3 charge=0 spin=0 energy=-197.5084836550546 free_energy=-197.5084836550546 stress="0.009098699316382408 -1.548133923279238e-07 -5.236763911398157e-09 -1.548133923279238e-07 0.009098673239350319 7.749481056862351e-08 -5.236763911398157e-09 7.749481056862351e-08 -0.0007911582943052053" pbc="T T T"
Pt      -0.00000012       0.00000002      19.95723426        4       0.00000000      -0.00025856      -0.00618056       0.02226572
Pt       2.80721404      -0.00000018      19.95723442        4       0.00000000       0.00856028      -0.00382046       0.01935697
Pt       5.61442782      -0.00000007      19.95723448        4       0.00000000      -0.00756863      -0.00546923       0.01930253
Pt       1.40360721       2.43111841      19.95723428        4       0.00000000       0.00548900       0.00282048       0.02235212
Pt       4.21082083       2.43111835      19.95723436        4       0.00000000       0.00277025       0.02442179      -0.03705257
Pt       7.01803478       2.43111845      19.95723424        4       0.00000000      -0.00522989       0.00336239       0.02250588
Pt       2.80721407       4.86223728      19.95723400        4       0.00000000       0.01975838      -0.01461893      -0.03709623
Pt       5.61442803       4.86223733      19.95723419        4       0.00000000      -0.02252583      -0.00980593      -0.03688056
Pt       8.42164139       4.86223726      19.95723434        4       0.00000000      -0.00099411       0.00929289       0.01955877
Pt       1.40360728       0.81037259      22.29206791        3       0.00000000       0.02444769      -0.00784659      -0.01864174
Pt       4.21082130       0.81037249      22.29206784        3       0.00000000       0.00024815       0.10218203      -0.15139858
Pt       7.01803471       0.81037256      22.29206781        3       0.00000000      -0.01906405      -0.01720556      -0.01857488
Pt       2.80721448       3.24149124      22.29206773        3       0.00000000       0.04277914       0.02411719      -0.19443159
Pt       5.61442763       3.24149123      22.29206786        3       0.00000000      -0.04238277       0.02488536      -0.19430369
Pt       8.42164156       3.24149129      22.29206804        3       0.00000000      -0.00537846       0.02505508      -0.01807426
Pt       4.21082092       5.67260997      22.29206793        3       0.00000000      -0.00040002      -0.04899751      -0.19458449
Pt       7.01803487       5.67261037      22.29206776        3       0.00000000      -0.08869778      -0.05081610      -0.15105429
Pt       9.82524821       5.67261065      22.29206806        3       0.00000000       0.08844574      -0.05136556      -0.15111537
Pt      -0.00000053       1.62074569      24.58417386        2       0.00000000       0.00000142       0.00004075       0.02687662
Pt       2.80721443       1.62074549      24.58417398        2       0.00000000       0.01912891      -0.25230932       0.32897282
Pt       5.61442778       1.62074537      24.58417377        2       0.00000000      -0.02442282      -0.25275600       0.33159786
Pt       1.40360637       4.05186439      24.58417390        2       0.00000000      -0.20641431       0.14750195       0.33099222
Pt       4.21082088       4.05186403      24.58417379        2       0.00000000      -0.00000339      -0.00003407      -0.23465909
Pt       7.01803504       4.05186408      24.58417406        2       0.00000000       0.20879696       0.14277929       0.32871911
Pt       2.80721282       6.48298343      24.58417376        2       0.00000000      -0.22791854       0.10952225       0.32902193
Pt       5.61442796       6.48298325      24.58417391        2       0.00000000       0.23082642       0.10525641       0.33137482
Pt       8.42164222       6.48298341      24.58417381        2       0.00000000       0.00002942       0.00003211      -0.64007396
Pt       0.00079963      -0.00594865      26.90733209        1       0.00000000       0.00213039       0.00742023      -0.01672268
Pt       2.71895981       0.05573461      27.29538125        1       0.00000000      -0.00349595      -0.00095219      -0.00395767
Pt       5.70685029       0.04859721      27.29539247        1       0.00000000       0.00097266       0.00352033      -0.00402722
Pt       1.40838254       2.43475276      26.90737832        1       0.00000000      -0.00751243      -0.00181829      -0.01677410
Pt       4.21066722       2.45822298      26.90279017        1       0.00000000       0.00451060      -0.01670934      -0.00139119
Pt       7.01248811       2.43344555      26.90736135        1       0.00000000       0.00538692      -0.00554184      -0.01674722
Pt       2.83074527       4.84878885      26.90275200        1       0.00000000      -0.01675150       0.00447021      -0.00137066
Pt       5.59101667       4.84858738      26.90273790        1       0.00000000       0.01221776       0.01223726      -0.00132978
Pt       8.41752339       4.75794389      27.29537849        1       0.00000000       0.00258448      -0.00272251      -0.00402526
C        8.42166915       6.48299170      28.18021558        0       1.00000000      -0.00000405       0.00011209      -0.00927419
H        8.42158829       6.48292053      26.17534023        0       0.00000000      -0.00006138      -0.00006024       0.02066425
