38
Lattice="8.421641763931781 0.0 0.0 4.2108208819658905 7.293355709136913 0.0 0.0 0.0 46.87624170604845" Properties=species:S:1:pos:R:3:tags:I:1:initial_magmoms:R:1:forces:R:3 charge=0 spin=0 energy=-197.98580718715908 free_energy=-197.98580718715908 stress="0.007734508719295263 3.433613892411813e-05 -1.695258470135741e-05 3.433613892411813e-05 0.007405313663184643 8.330433774972335e-05 -1.695258470135741e-05 8.330433774972335e-05 -0.0006758897798135877" pbc="T T T"
Pt      -0.00000012       0.00000002      19.95723426        4       0.00000000      -0.00019621       0.00633270       0.01843309
Pt       2.80721404      -0.00000018      19.95723442        4       0.00000000       0.01135093      -0.01161988      -0.01433429
Pt       5.61442782      -0.00000007      19.95723448        4       0.00000000      -0.01716521      -0.00642092      -0.01327522
Pt       1.40360721       2.43111841      19.95723428        4       0.00000000       0.00329890      -0.00157400       0.02674265
Pt       4.21082083       2.43111835      19.95723436        4       0.00000000      -0.00049360       0.01103286      -0.01037122
Pt       7.01803478       2.43111845      19.95723424        4       0.00000000      -0.00573731       0.00025308       0.02792257
Pt       2.80721407       4.86223728      19.95723400        4       0.00000000      -0.00160883      -0.00300498       0.00832587
Pt       5.61442803       4.86223733      19.95723419        4       0.00000000       0.00495757      -0.00009320       0.00848984
Pt       8.42164139       4.86223726      19.95723434        4       0.00000000       0.00578936       0.02105463       0.00339836
Pt       1.40360728       0.81037259      22.29206791        3       0.00000000       0.06898633      -0.03161796      -0.12979922
Pt       4.21082130       0.81037249      22.29206784        3       0.00000000       0.00275870       0.00692231      -0.26219526
Pt       7.01803471       0.81037256      22.29206781        3       0.00000000      -0.07110004      -0.03119364      -0.13121073
Pt       2.80721448       3.24149124      22.29206773        3       0.00000000       0.01023022      -0.02337064      -0.06741536
Pt       5.61442763       3.24149123      22.29206786        3       0.00000000      -0.01140060      -0.02243732      -0.07169005
Pt       8.42164156       3.24149129      22.29206804        3       0.00000000       0.00173567       0.04158893      -0.01737870
Pt       4.21082092       5.67260997      22.29206793        3       0.00000000      -0.00046727       0.01236534      -0.07832813
Pt       7.01803487       5.67261037      22.29206776        3       0.00000000       0.02362632       0.03609969      -0.11887306
Pt       9.82524821       5.67261065      22.29206806        3       0.00000000      -0.01682178       0.04227367      -0.12890407
Pt      -0.00000053       1.62074569      24.58417386        2       0.00000000       0.00519098       0.15952498      -0.16891038
Pt       2.80721443       1.62074549      24.58417398        2       0.00000000      -0.20961104       0.12141362       0.28797543
Pt       5.61442778       1.62074537      24.58417377        2       0.00000000       0.20437026       0.10737621       0.28973234
Pt       1.40360637       4.05186439      24.58417390        2       0.00000000      -0.09563213      -0.12336694       0.23850791
Pt       4.21082088       4.05186403      24.58417379        2       0.00000000       0.00165959      -0.03681743      -0.08905260
Pt       7.01803504       4.05186408      24.58417406        2       0.00000000       0.08482726      -0.10779408       0.23350088
Pt       2.80721282       6.48298343      24.58417376        2       0.00000000       0.00822979       0.00166112       0.00125133
Pt       5.61442796       6.48298325      24.58417391        2       0.00000000      -0.01453087       0.01548262       0.00288490
Pt       8.42164222       6.48298341      24.58417381        2       0.00000000      -0.01074030      -0.14022739       0.19664691
Pt      -0.00258914      -0.12093108      27.01394138        1       0.00000000      -0.01189392      -0.00233176       0.00130241
Pt       2.79910378       0.00320180      26.90529627        1       0.00000000       0.02110120      -0.01467166      -0.00824834
Pt       5.62066900       0.00036380      26.90610624        1       0.00000000      -0.00583002      -0.00249248      -0.00251806
Pt       1.53201578       2.38724043      27.26793967        1       0.00000000      -0.00929584       0.02495823       0.00081295
Pt       4.21093824       2.41231508      26.89417379        1       0.00000000      -0.00447757       0.01510408       0.00397726
Pt       6.89241163       2.39634233      27.23888896        1       0.00000000      -0.02968170      -0.01576579      -0.02412716
Pt       2.82093576       4.84840523      26.89528097        1       0.00000000      -0.01335613      -0.01282686       0.00323846
Pt       5.59401446       4.85496655      26.89568104        1       0.00000000       0.01874975      -0.01187897      -0.00532200
Pt       8.41988427       4.98981247      27.03382389        1       0.00000000       0.00088453       0.00710656      -0.01597557
C        8.41816136       3.32740287      27.94692310        0       1.00000000       0.04244078      -0.01115032       0.00419481
H        8.44044593       1.54237378      26.33068790        0       0.00000000       0.00985205      -0.01989455       0.00059137
