38
Lattice="8.421641763931781 0.0 0.0 4.2108208819658905 7.293355709136913 0.0 0.0 0.0 46.87624170604845" Properties=species:S:1:pos:R:3:tags:I:1:initial_magmoms:R:1:forces:R:3 charge=0 spin=0 energy=-197.98581290920498 free_energy=-197.98581290920498 stress="0.007734544575214386 3.4466414945200086e-05 -1.6865724319359288e-05 3.4466414945200086e-05 0.007404849864542484 8.338777115568519e-05 -1.6865724319359288e-05 8.338777115568519e-05 -0.0006760230171494186" pbc="T T T"
Pt      -0.00000012       0.00000002      19.95723426        4       0.00000000      -0.00573461       0.00025118       0.02792174
Pt       2.80721404      -0.00000018      19.95723442        4       0.00000000       0.00329801      -0.00157243       0.02673362
Pt       5.61442782      -0.00000007      19.95723448        4       0.00000000      -0.00049540       0.01103359      -0.01037955
Pt       1.40360721       2.43111841      19.95723428        4       0.00000000       0.00578695       0.02106402       0.00339853
Pt       4.21082083       2.43111835      19.95723436        4       0.00000000      -0.00160670      -0.00300078       0.00832481
Pt       7.01803478       2.43111845      19.95723424        4       0.00000000       0.00495601      -0.00009083       0.00848882
Pt       2.80721407       4.86223728      19.95723400        4       0.00000000      -0.01716149      -0.00642851      -0.01326544
Pt       5.61442803       4.86223733      19.95723419        4       0.00000000      -0.00019969       0.00633085       0.01843324
Pt       8.42164139       4.86223726      19.95723434        4       0.00000000       0.01135213      -0.01162766      -0.01432432
Pt       1.40360728       0.81037259      22.29206791        3       0.00000000       0.00172846       0.04160037      -0.01738902
Pt       4.21082130       0.81037249      22.29206784        3       0.00000000       0.01023550      -0.02336676      -0.06741513
Pt       7.01803471       0.81037256      22.29206781        3       0.00000000      -0.01140242      -0.02243459      -0.07168778
Pt       2.80721448       3.24149124      22.29206773        3       0.00000000      -0.01683496       0.04228533      -0.12890263
Pt       5.61442763       3.24149123      22.29206786        3       0.00000000      -0.00046142       0.01236376      -0.07833040
Pt       8.42164156       3.24149129      22.29206804        3       0.00000000       0.02363102       0.03609988      -0.11887316
Pt       4.21082092       5.67260997      22.29206793        3       0.00000000      -0.07110022      -0.03118791      -0.13120662
Pt       7.01803487       5.67261037      22.29206776        3       0.00000000       0.06897936      -0.03162063      -0.12978968
Pt       9.82524821       5.67261065      22.29206806        3       0.00000000       0.00276858       0.00690330      -0.26218903
Pt      -0.00000053       1.62074569      24.58417386        2       0.00000000       0.08484419      -0.10777389       0.23348871
Pt       2.80721443       1.62074549      24.58417398        2       0.00000000      -0.09564324      -0.12333424       0.23849484
Pt       5.61442778       1.62074537      24.58417377        2       0.00000000       0.00166063      -0.03681992      -0.08904622
Pt       1.40360637       4.05186439      24.58417390        2       0.00000000      -0.01071940      -0.14020196       0.19665720
Pt       4.21082088       4.05186403      24.58417379        2       0.00000000       0.00821696       0.00164704       0.00124381
Pt       7.01803504       4.05186408      24.58417406        2       0.00000000      -0.01453000       0.01547363       0.00287232
Pt       2.80721282       6.48298343      24.58417376        2       0.00000000       0.20436965       0.10737389       0.28965941
Pt       5.61442796       6.48298325      24.58417391        2       0.00000000       0.00518787       0.15951158      -0.16899306
Pt       8.42164222       6.48298341      24.58417381        2       0.00000000      -0.20960592       0.12142182       0.28794122
Pt      -0.12560121      -0.03477263      27.23884225        1       0.00000000      -0.02941803      -0.01551610      -0.02398511
Pt       2.93559858      -0.04386103      27.26789442        1       0.00000000      -0.00912232       0.02488985       0.00079376
Pt       5.61455190      -0.01882661      26.89417888        1       0.00000000      -0.00451486       0.01518891       0.00401305
Pt       1.40185418       2.55874993      27.03383415        1       0.00000000       0.00087233       0.00698631      -0.01598539
Pt       4.22454429       2.41726856      26.89528755        1       0.00000000      -0.01338299      -0.01281797       0.00322427
Pt       6.99763003       2.42383707      26.89568146        1       0.00000000       0.01877270      -0.01189973      -0.00531699
Pt       2.81348278       4.86263830      26.90609844        1       0.00000000      -0.00592700      -0.00266260      -0.00249569
Pt       5.61183397       4.74125209      27.01395041        1       0.00000000      -0.01186720      -0.00217756       0.00131933
Pt       8.41351017       4.86546612      26.90528522        1       0.00000000       0.02116214      -0.01476276      -0.00822347
C        1.40015040       0.89632827      27.94690505        0       1.00000000       0.04206482      -0.01126978       0.00412509
H        1.42241353      -0.88881346      26.33067594        0       0.00000000       0.00984053      -0.01985871       0.00066477
