38
Lattice="8.421641763931781 0.0 0.0 4.2108208819658905 7.293355709136913 0.0 0.0 0.0 46.87624170604845" Properties=species:S:1:pos:R:3:tags:I:1:initial_magmoms:R:1:forces:R:3 charge=0 spin=0 energy=-197.9390847750497 free_energy=-197.9390847750497 stress="0.007025822997093201 -1.476138322686893e-07 -2.7081035192111358e-09 -1.476138322686893e-07 0.007025199476629496 -1.66774185572649e-08 -2.7081035192111358e-09 -1.66774185572649e-08 -0.0010193451307713985" pbc="T T T"
Pt      -0.00000012       0.00000002      19.95723426        4       0.00000000       0.00892380       0.00343334      -0.02548753
Pt       2.80721404      -0.00000018      19.95723442        4       0.00000000      -0.00748544       0.00600338      -0.02558388
Pt       5.61442782      -0.00000007      19.95723448        4       0.00000000      -0.00367788       0.00242449       0.01479722
Pt       1.40360721       2.43111841      19.95723428        4       0.00000000      -0.00143906      -0.00943331      -0.02556664
Pt       4.21082083       2.43111835      19.95723436        4       0.00000000      -0.00724780      -0.00274188       0.01779287
Pt       7.01803478       2.43111845      19.95723424        4       0.00000000       0.00607222      -0.00489559       0.01775519
Pt       2.80721407       4.86223728      19.95723400        4       0.00000000       0.00392333       0.00199206       0.01476126
Pt       5.61442803       4.86223733      19.95723419        4       0.00000000       0.00117640       0.00763659       0.01769849
Pt       8.42164139       4.86223726      19.95723434        4       0.00000000      -0.00024105      -0.00442060       0.01463478
Pt       1.40360728       0.81037259      22.29206791        3       0.00000000      -0.00000020       0.00000975      -0.26968724
Pt       4.21082130       0.81037249      22.29206784        3       0.00000000      -0.06632935      -0.03132699      -0.13137820
Pt       7.01803471       0.81037256      22.29206781        3       0.00000000       0.07216686      -0.03877797      -0.13893081
Pt       2.80721448       3.24149124      22.29206773        3       0.00000000      -0.06959186      -0.04305748      -0.13934125
Pt       5.61442763       3.24149123      22.29206786        3       0.00000000       0.00000379       0.00000115      -0.22161642
Pt       8.42164156       3.24149129      22.29206804        3       0.00000000       0.06029018      -0.04187148      -0.13187441
Pt       4.21082092       5.67260997      22.29206793        3       0.00000000       0.00604829       0.07320735      -0.13173564
Pt       7.01803487       5.67261037      22.29206776        3       0.00000000      -0.00257989       0.08183023      -0.13914177
Pt       9.82524821       5.67261065      22.29206806        3       0.00000000       0.00000777      -0.00001388      -0.10852186
Pt      -0.00000053       1.62074569      24.58417386        2       0.00000000      -0.10557144       0.06367107       0.27894977
Pt       2.80721443       1.62074549      24.58417398        2       0.00000000       0.10782716       0.05959308       0.27900898
Pt       5.61442778       1.62074537      24.58417377        2       0.00000000       0.00637549      -0.56878114       0.29056984
Pt       1.40360637       4.05186439      24.58417390        2       0.00000000       0.00869014       0.00057537      -0.07332929
Pt       4.21082088       4.05186403      24.58417379        2       0.00000000      -0.49564949       0.27904403       0.29084241
Pt       7.01803504       4.05186408      24.58417406        2       0.00000000       0.48941383       0.28974363       0.29067978
Pt       2.80721282       6.48298343      24.58417376        2       0.00000000      -0.00472284       0.00743101      -0.07354677
Pt       5.61442796       6.48298325      24.58417391        2       0.00000000      -0.00236726      -0.12333765       0.27896363
Pt       8.42164222       6.48298341      24.58417381        2       0.00000000      -0.00404942      -0.00794461      -0.07366128
Pt      -0.01212446      -0.00578230      26.89844520        1       0.00000000       0.02764028       0.01331517      -0.01466709
Pt       2.81827033      -0.00759359      26.89842907        1       0.00000000      -0.02545407       0.01707342      -0.01464296
Pt       5.61377131      -0.01116523      26.89732851        1       0.00000000      -0.00464742      -0.03172330      -0.00596432
Pt       1.40462955       2.44449385      26.89837999        1       0.00000000      -0.00218443      -0.03059425      -0.01464939
Pt       4.08573067       2.35691009      27.19007611        1       0.00000000      -0.02899133      -0.01251167      -0.02211169
Pt       7.14483342       2.35990401      27.19008767        1       0.00000000       0.02522063      -0.01892298      -0.02210706
Pt       2.79786836       4.86839120      26.89729378        1       0.00000000      -0.02513165       0.01997851      -0.00601752
Pt       5.61268895       5.00762045      27.19010360        1       0.00000000       0.00371097       0.03263394      -0.02254400
Pt       8.43162729       4.86725139      26.89728069        1       0.00000000       0.02985971       0.01180068      -0.00597604
C        5.61441426       3.24152504      27.90603056        0       1.00000000       0.00000746      -0.00103174       0.03413672
H        5.61442685       3.24149393      25.35766654        0       0.00000000       0.00000362      -0.00001177      -0.00250777
