38
Lattice="8.421641763931781 0.0 0.0 4.2108208819658905 7.293355709136913 0.0 0.0 0.0 46.87624170604845" Properties=species:S:1:pos:R:3:tags:I:1:initial_magmoms:R:1:forces:R:3 charge=0 spin=0 energy=-197.9887559481454 free_energy=-197.9887559481454 stress="0.0074793025851249695 -0.00014745832595508546 -6.87441133777611e-05 -0.00014745832595508546 0.007527313195168972 -6.557603774126619e-05 -6.87441133777611e-05 -6.557603774126619e-05 -0.0007330117514356971" pbc="T T T"
Pt      -0.00000012       0.00000002      19.95723426        4       0.00000000       0.00092920      -0.00550372       0.02860083
Pt       2.80721404      -0.00000018      19.95723442        4       0.00000000       0.01533472      -0.01325967      -0.01287454
Pt       5.61442782      -0.00000007      19.95723448        4       0.00000000      -0.02376544      -0.00728840       0.00101669
Pt       1.40360721       2.43111841      19.95723428        4       0.00000000      -0.00630379      -0.00329798       0.01792103
Pt       4.21082083       2.43111835      19.95723436        4       0.00000000       0.00242164      -0.00111414       0.00854463
Pt       7.01803478       2.43111845      19.95723424        4       0.00000000      -0.00169665       0.00331973       0.02701570
Pt       2.80721407       4.86223728      19.95723400        4       0.00000000      -0.00365402       0.00366997       0.00924126
Pt       5.61442803       4.86223733      19.95723419        4       0.00000000      -0.00993831      -0.00711323      -0.01066609
Pt       8.42164139       4.86223726      19.95723434        4       0.00000000       0.00524863       0.01129778      -0.01328601
Pt       1.40360728       0.81037259      22.29206791        3       0.00000000       0.06329079      -0.05168777      -0.13968919
Pt       4.21082130       0.81037249      22.29206784        3       0.00000000      -0.03266878      -0.03713609      -0.13390969
Pt       7.01803471       0.81037256      22.29206781        3       0.00000000      -0.04348153      -0.02326814      -0.02618124
Pt       2.80721448       3.24149124      22.29206773        3       0.00000000      -0.01327602      -0.00936710      -0.07470249
Pt       5.61442763       3.24149123      22.29206786        3       0.00000000       0.01047049       0.01766493      -0.06764674
Pt       8.42164156       3.24149129      22.29206804        3       0.00000000      -0.00999061       0.06602750      -0.11995040
Pt       4.21082092       5.67260997      22.29206793        3       0.00000000       0.02098357       0.00101899      -0.07348284
Pt       7.01803487       5.67261037      22.29206776        3       0.00000000      -0.01003412      -0.00079694      -0.25830707
Pt       9.82524821       5.67261065      22.29206806        3       0.00000000      -0.04293276       0.00276484      -0.11424018
Pt      -0.00000053       1.62074569      24.58417386        2       0.00000000      -0.13224781      -0.07509530      -0.18942815
Pt       2.80721443       1.62074549      24.58417398        2       0.00000000      -0.00209887       0.02639199       0.01937081
Pt       5.61442778       1.62074537      24.58417377        2       0.00000000       0.16281782      -0.00344667       0.21403073
Pt       1.40360637       4.05186439      24.58417390        2       0.00000000       0.00652573      -0.02165992       0.01875128
Pt       4.21082088       4.05186403      24.58417379        2       0.00000000       0.04740564       0.02195246      -0.08471613
Pt       7.01803504       4.05186408      24.58417406        2       0.00000000       0.00843598      -0.22827679       0.29683581
Pt       2.80721282       6.48298343      24.58417376        2       0.00000000       0.05122682       0.12332452       0.19178654
Pt       5.61442796       6.48298325      24.58417391        2       0.00000000      -0.16355498       0.12361103       0.28922796
Pt       8.42164222       6.48298341      24.58417381        2       0.00000000       0.12437925       0.05997587       0.17255522
Pt       0.11023371      -0.07545128      27.19403632        1       0.00000000      -0.02047223      -0.00132560       0.00304779
Pt       2.82153043       0.01775302      26.90817370        1       0.00000000       0.00166909      -0.00686830      -0.00319855
Pt       5.52385187      -0.04913409      27.01722140        1       0.00000000       0.00695748      -0.02185427       0.02305428
Pt       1.53336979       2.49711001      27.03368741        1       0.00000000       0.01488991       0.00387794      -0.00212820
Pt       4.23784313       2.45966128      26.89660148        1       0.00000000       0.00171997       0.00085208       0.00126742
Pt       7.00844780       2.58438678      27.28464206        1       0.00000000       0.00338417       0.00169489       0.01016263
Pt       2.83853119       4.85667775      26.89475619        1       0.00000000       0.00340553       0.02080585      -0.00449561
Pt       5.64710990       4.87909177      26.90117664        1       0.00000000      -0.02207399       0.01836801      -0.01296572
Pt       8.43906418       4.86987695      26.90487194        1       0.00000000       0.00225046       0.01132538      -0.00047277
C        6.97037749       0.77596527      27.92991438        0       1.00000000       0.00915480      -0.02459167      -0.00047065
H        8.48726098       1.79026404      26.31815724        0       0.00000000      -0.02471199       0.02500802       0.01038166
