38
Lattice="8.421641763931781 0.0 0.0 4.2108208819658905 7.293355709136913 0.0 0.0 0.0 46.87624170604845" Properties=species:S:1:pos:R:3:tags:I:1:initial_magmoms:R:1:forces:R:3 charge=0 spin=0 energy=-198.04619575222256 free_energy=-198.04619575222256 stress="0.008094449527561665 9.772648627404124e-05 1.9923718355130404e-05 9.772648627404124e-05 0.007256196811795235 -7.27138394722715e-05 1.9923718355130404e-05 -7.27138394722715e-05 -0.0007640221156179905" pbc="T T T"
Pt      -0.00000012       0.00000002      19.95723426        4       0.00000000       0.00899875      -0.00230138      -0.01127393
Pt       2.80721404      -0.00000018      19.95723442        4       0.00000000      -0.00389941       0.00586351       0.01098735
Pt       5.61442782      -0.00000007      19.95723448        4       0.00000000      -0.00619908      -0.00844283      -0.01278279
Pt       1.40360721       2.43111841      19.95723428        4       0.00000000      -0.01474434      -0.00115033       0.00086380
Pt       4.21082083       2.43111835      19.95723436        4       0.00000000      -0.00632974      -0.00348915       0.02506147
Pt       7.01803478       2.43111845      19.95723424        4       0.00000000       0.02817999      -0.02336760      -0.01538844
Pt       2.80721407       4.86223728      19.95723400        4       0.00000000      -0.00262247       0.00625206       0.01967649
Pt       5.61442803       4.86223733      19.95723419        4       0.00000000      -0.00487219      -0.00008368       0.01439527
Pt       8.42164139       4.86223726      19.95723434        4       0.00000000       0.00392304       0.00130044       0.00946204
Pt       1.40360728       0.81037259      22.29206791        3       0.00000000      -0.04083642       0.00977215      -0.09145318
Pt       4.21082130       0.81037249      22.29206784        3       0.00000000       0.02464179       0.00993821      -0.07742995
Pt       7.01803471       0.81037256      22.29206781        3       0.00000000      -0.00969476       0.00931666      -0.27271253
Pt       2.80721448       3.24149124      22.29206773        3       0.00000000      -0.01861044      -0.01202390       0.01656415
Pt       5.61442763       3.24149123      22.29206786        3       0.00000000       0.09327049      -0.06198531      -0.20350012
Pt       8.42164156       3.24149129      22.29206804        3       0.00000000      -0.06127019      -0.04139677      -0.18536721
Pt       4.21082092       5.67260997      22.29206793        3       0.00000000      -0.00885605       0.03768343      -0.07936668
Pt       7.01803487       5.67261037      22.29206776        3       0.00000000      -0.00426543      -0.01591503      -0.08074839
Pt       9.82524821       5.67261065      22.29206806        3       0.00000000       0.00524484       0.01330109      -0.05293965
Pt      -0.00000053       1.62074569      24.58417386        2       0.00000000       0.13145757       0.03668595       0.12898366
Pt       2.80721443       1.62074549      24.58417398        2       0.00000000       0.01487033       0.11038002       0.15764347
Pt       5.61442778       1.62074537      24.58417377        2       0.00000000      -0.09494307       0.07538054       0.17516625
Pt       1.40360637       4.05186439      24.58417390        2       0.00000000       0.17519641       0.02379745       0.24447082
Pt       4.21082088       4.05186403      24.58417379        2       0.00000000      -0.23339279      -0.01495981       0.20681168
Pt       7.01803504       4.05186408      24.58417406        2       0.00000000       0.03732599       0.04410055       0.01952292
Pt       2.80721282       6.48298343      24.58417376        2       0.00000000      -0.03237313      -0.16851574       0.17353196
Pt       5.61442796       6.48298325      24.58417391        2       0.00000000       0.00855680       0.02165299      -0.04567902
Pt       8.42164222       6.48298341      24.58417381        2       0.00000000       0.06783336      -0.04156230      -0.09833293
Pt       0.02122787       0.02475524      26.91717919        1       0.00000000      -0.03234286      -0.02815836      -0.00305275
Pt       2.83209748      -0.04532874      26.88343149        1       0.00000000      -0.02043536      -0.00045108       0.00757426
Pt       5.63487004      -0.00913263      26.88004246        1       0.00000000       0.01843092       0.02179451       0.01017423
Pt       1.33543277       2.37972451      27.00741378        1       0.00000000      -0.00758411      -0.00903567      -0.00232272
Pt       4.32471904       2.34983310      27.07106460        1       0.00000000      -0.00854950      -0.00272842       0.02310863
Pt       7.03929884       2.43694478      26.90179215        1       0.00000000       0.01701289      -0.00374640      -0.01302371
Pt       2.80332130       5.10712399      27.59126650        1       0.00000000       0.03021020      -0.01449747      -0.02114922
Pt       5.67964134       4.86273586      26.96900116        1       0.00000000      -0.02048470       0.00819468       0.02438581
Pt       8.47451657       4.87442388      26.90703279        1       0.00000000      -0.02173438      -0.01625972       0.00162250
C        2.81646346       3.22116724      27.85419336        0       1.00000000       0.00884399       0.01717378      -0.00756096
H        3.99543328       4.74956770      26.23240882        0       0.00000000      -0.01995689       0.01748289       0.00407723
