38
Lattice="8.421641763931781 0.0 0.0 4.2108208819658905 7.293355709136913 0.0 0.0 0.0 46.87624170604845" Properties=species:S:1:pos:R:3:tags:I:1:initial_magmoms:R:1:forces:R:3 charge=0 spin=0 energy=-198.04615379055264 free_energy=-198.04615379055264 stress="0.007378303445875645 0.0003120768233202398 -7.116691267583519e-05 0.0003120768233202398 0.007968181744217873 1.8152393749915063e-05 -7.116691267583519e-05 1.8152393749915063e-05 -0.0007655059453099966" pbc="T T T"
Pt      -0.00000012       0.00000002      19.95723426        4       0.00000000      -0.00413382       0.00960009      -0.01289138
Pt       2.80721404      -0.00000018      19.95723442        4       0.00000000       0.00015662       0.00729805       0.02501579
Pt       5.61442782      -0.00000007      19.95723448        4       0.00000000       0.00671349      -0.00082202       0.01965429
Pt       1.40360721       2.43111841      19.95723428        4       0.00000000       0.00704952       0.00045357       0.01090423
Pt       4.21082083       2.43111835      19.95723436        4       0.00000000       0.00637194       0.01334654       0.00085704
Pt       7.01803478       2.43111845      19.95723424        4       0.00000000      -0.00085548      -0.00403940       0.00952758
Pt       2.80721407       4.86223728      19.95723400        4       0.00000000      -0.00648285      -0.00667276      -0.01132090
Pt       5.61442803       4.86223733      19.95723419        4       0.00000000      -0.03424532      -0.01267692      -0.01516296
Pt       8.42164139       4.86223726      19.95723434        4       0.00000000       0.00231826       0.00428450       0.01451828
Pt       1.40360728       0.81037259      22.29206791        3       0.00000000      -0.00385578      -0.02635106      -0.07774433
Pt       4.21082130       0.81037249      22.29206784        3       0.00000000      -0.00107375       0.02211468       0.01652319
Pt       7.01803471       0.81037256      22.29206781        3       0.00000000       0.00887196      -0.01129472      -0.05307417
Pt       2.80721448       3.24149124      22.29206773        3       0.00000000       0.02878463       0.03072426      -0.09155346
Pt       5.61442763       3.24149123      22.29206786        3       0.00000000      -0.00523549       0.07390985      -0.18505555
Pt       8.42164156       3.24149129      22.29206804        3       0.00000000      -0.01153069       0.01162798      -0.08055839
Pt       4.21082092       5.67260997      22.29206793        3       0.00000000       0.01280155       0.00387485      -0.27273408
Pt       7.01803487       5.67261037      22.29206776        3       0.00000000      -0.10008267      -0.04976249      -0.20317355
Pt       9.82524821       5.67261065      22.29206806        3       0.00000000       0.03718857      -0.01118009      -0.07925007
Pt      -0.00000053       1.62074569      24.58417386        2       0.00000000      -0.06990972      -0.03807390      -0.09946322
Pt       2.80721443       1.62074549      24.58417398        2       0.00000000       0.08876412      -0.06826567       0.15828153
Pt       5.61442778       1.62074537      24.58417377        2       0.00000000      -0.06749443      -0.16416198       0.24471092
Pt       1.40360637       4.05186439      24.58417390        2       0.00000000       0.01493185      -0.01842678      -0.04658712
Pt       4.21082088       4.05186403      24.58417379        2       0.00000000      -0.03382302      -0.13289760       0.12885177
Pt       7.01803504       4.05186408      24.58417406        2       0.00000000       0.01913228      -0.05479105       0.01818616
Pt       2.80721282       6.48298343      24.58417376        2       0.00000000      -0.13032851       0.11232186       0.17343195
Pt       5.61442796       6.48298325      24.58417391        2       0.00000000       0.11316307       0.04478975       0.17534244
Pt       8.42164222       6.48298341      24.58417381        2       0.00000000       0.10329908       0.20985070       0.20692131
Pt      -0.01815545      -0.01322613      26.87987044        1       0.00000000       0.01006864      -0.02712631       0.01077601
Pt       2.67988438      -0.05812595      27.07144251        1       0.00000000       0.00213019       0.00854819       0.02249877
Pt       5.82837377      -0.11913127      27.59082084        1       0.00000000      -0.02811809      -0.01836698      -0.02042274
Pt       1.35203669       2.43185840      26.88316940        1       0.00000000       0.01010313       0.01814662       0.00846359
Pt       4.20053072       2.51577577      27.00782433        1       0.00000000      -0.00446436       0.01043796      -0.00290669
Pt       7.00218493       2.37908825      26.90685915        1       0.00000000      -0.00352931       0.02663250       0.00214277
Pt       2.81817944       4.83134412      26.91701536        1       0.00000000      -0.00854746       0.04205340      -0.00262489
Pt       5.60885667       4.84081255      26.90163704        1       0.00000000      -0.01191541      -0.01292193      -0.01257709
Pt       8.38935394       4.80489316      26.96848628        1       0.00000000       0.01732546       0.01401233       0.02637471
C        4.18854385       0.81241712      27.85459293        0       1.00000000       0.01097954      -0.01593624      -0.00831601
H        4.92209911      -0.97393837      26.23339047        0       0.00000000       0.02547227       0.00974012       0.00243451
