38
Lattice="8.421641763931781 0.0 0.0 4.2108208819658905 7.293355709136913 0.0 0.0 0.0 46.87624170604845" Properties=species:S:1:pos:R:3:tags:I:1:initial_magmoms:R:1:forces:R:3 charge=0 spin=0 energy=-197.93983054836514 free_energy=-197.93983054836514 stress="0.0070272330194711685 -1.2300507989948528e-07 3.959116057217216e-08 -1.2300507989948528e-07 0.007027234882116318 -2.4044743440754246e-07 3.959116057217216e-08 -2.4044743440754246e-07 -0.0010596489300951362" pbc="T T T"
Pt      -0.00000012       0.00000002      19.95723426        4       0.00000000      -0.00143984      -0.00889342      -0.02573820
Pt       2.80721404      -0.00000018      19.95723442        4       0.00000000      -0.00768321      -0.00322478       0.01826428
Pt       5.61442782      -0.00000007      19.95723448        4       0.00000000       0.00670840      -0.00502416       0.01822730
Pt       1.40360721       2.43111841      19.95723428        4       0.00000000       0.00404586       0.00194611       0.01473518
Pt       4.21082083       2.43111835      19.95723436        4       0.00000000       0.00097740       0.00825765       0.01818345
Pt       7.01803478       2.43111845      19.95723424        4       0.00000000      -0.00034846      -0.00449905       0.01460859
Pt       2.80721407       4.86223728      19.95723400        4       0.00000000       0.00845341       0.00315673      -0.02566219
Pt       5.61442803       4.86223733      19.95723419        4       0.00000000      -0.00701177       0.00572894      -0.02574938
Pt       8.42164139       4.86223726      19.95723434        4       0.00000000      -0.00369671       0.00254972       0.01477445
Pt       1.40360728       0.81037259      22.29206791        3       0.00000000      -0.06896268      -0.04273842      -0.13687506
Pt       4.21082130       0.81037249      22.29206784        3       0.00000000      -0.00000239       0.00000760      -0.22391090
Pt       7.01803471       0.81037256      22.29206781        3       0.00000000       0.05976910      -0.04183741      -0.12930146
Pt       2.80721448       3.24149124      22.29206773        3       0.00000000       0.00627189       0.07274089      -0.12919107
Pt       5.61442763       3.24149123      22.29206786        3       0.00000000      -0.00261214       0.08114319      -0.13668473
Pt       8.42164156       3.24149129      22.29206804        3       0.00000000       0.00000489       0.00000044      -0.11068404
Pt       4.21082092       5.67260997      22.29206793        3       0.00000000      -0.00000098       0.00000308      -0.26884916
Pt       7.01803487       5.67261037      22.29206776        3       0.00000000      -0.06604353      -0.03090402      -0.12884182
Pt       9.82524821       5.67261065      22.29206806        3       0.00000000       0.07158477      -0.03841176      -0.13648741
Pt      -0.00000053       1.62074569      24.58417386        2       0.00000000       0.00767656      -0.00401237      -0.08012075
Pt       2.80721443       1.62074549      24.58417398        2       0.00000000      -0.49458659       0.27798679       0.28574657
Pt       5.61442778       1.62074537      24.58417377        2       0.00000000       0.48799425       0.28934968       0.28558576
Pt       1.40360637       4.05186439      24.58417390        2       0.00000000      -0.00026815       0.00884491      -0.08039033
Pt       4.21082088       4.05186403      24.58417379        2       0.00000000      -0.00379613      -0.12444641       0.26744810
Pt       7.01803504       4.05186408      24.58417406        2       0.00000000      -0.00752096      -0.00481136      -0.08045142
Pt       2.80721282       6.48298343      24.58417376        2       0.00000000      -0.10579710       0.06553457       0.26745117
Pt       5.61442796       6.48298325      24.58417391        2       0.00000000       0.10953110       0.05889041       0.26757351
Pt       8.42164222       6.48298341      24.58417381        2       0.00000000       0.00673199      -0.56732619       0.28544742
Pt       0.00248718       0.00869725      26.89684004        1       0.00000000      -0.01098549      -0.00970418      -0.00374240
Pt       2.68410854      -0.07336312      27.18118297        1       0.00000000      -0.00685244      -0.00281584      -0.00143659
Pt       5.73951709      -0.06992628      27.18119330        1       0.00000000       0.00580726      -0.00450032      -0.00142913
Pt       1.38848390       2.43949743      26.89671102        1       0.00000000       0.00621839       0.00750443      -0.00206971
Pt       4.20884253       2.57440668      27.18119191        1       0.00000000       0.00085172       0.00748127      -0.00149448
Pt       7.03284288       2.43999203      26.89672733        1       0.00000000       0.00340409      -0.00895965      -0.00210187
Pt       2.79841258       4.86008401      26.89685246        1       0.00000000       0.01400940      -0.00492686      -0.00362741
Pt       5.62071404       4.85571134      26.89688169        1       0.00000000      -0.00290607       0.01438988      -0.00371882
Pt       8.42193743       4.84496619      26.89673753        1       0.00000000      -0.00946123       0.00156226      -0.00198498
C        4.21082280       0.81037076      27.90896913        0       1.00000000      -0.00006361      -0.00003735       0.00200042
H        4.21082034       0.81037633      25.36173830        0       0.00000000      -0.00000098      -0.00000480      -0.01950292
