38
Lattice="8.421641763931781 0.0 0.0 4.2108208819658905 7.293355709136913 0.0 0.0 0.0 46.87624170604845" Properties=species:S:1:pos:R:3:tags:I:1:initial_magmoms:R:1:forces:R:3 charge=0 spin=0 energy=-197.50797630031826 free_energy=-197.50797630031826 stress="0.009008207358419895 -1.2548602512651996e-07 2.2180509873237497e-08 -1.2548602512651996e-07 0.009009004570543766 3.422242684791854e-07 2.2180509873237497e-08 3.422242684791854e-07 -0.0009209915879182518" pbc="T T T"
Pt      -0.00000012       0.00000002      19.95723426        4       0.00000000      -0.00034935      -0.00608751       0.02200622
Pt       2.80721404      -0.00000018      19.95723442        4       0.00000000       0.00820976      -0.00358019       0.01930686
Pt       5.61442782      -0.00000007      19.95723448        4       0.00000000      -0.00718107      -0.00529021       0.01924465
Pt       1.40360721       2.43111841      19.95723428        4       0.00000000       0.00544223       0.00269442       0.02208864
Pt       4.21082083       2.43111835      19.95723436        4       0.00000000       0.00285984       0.02436279      -0.03719014
Pt       7.01803478       2.43111845      19.95723424        4       0.00000000      -0.00509403       0.00339227       0.02224173
Pt       2.80721407       4.86223728      19.95723400        4       0.00000000       0.01969628      -0.01468268      -0.03729799
Pt       5.61442803       4.86223733      19.95723419        4       0.00000000      -0.02255640      -0.00972266      -0.03708366
Pt       8.42164139       4.86223726      19.95723434        4       0.00000000      -0.00103197       0.00887499       0.01951956
Pt       1.40360728       0.81037259      22.29206791        3       0.00000000       0.02523106      -0.00820998      -0.01658100
Pt       4.21082130       0.81037249      22.29206784        3       0.00000000       0.00021129       0.10280086      -0.15199633
Pt       7.01803471       0.81037256      22.29206781        3       0.00000000      -0.01977786      -0.01769471      -0.01650458
Pt       2.80721448       3.24149124      22.29206773        3       0.00000000       0.04313060       0.02420828      -0.19461088
Pt       5.61442763       3.24149123      22.29206786        3       0.00000000      -0.04261861       0.02516686      -0.19447879
Pt       8.42164156       3.24149129      22.29206804        3       0.00000000      -0.00545131       0.02593300      -0.01599880
Pt       4.21082092       5.67260997      22.29206793        3       0.00000000      -0.00051787      -0.04934643      -0.19477220
Pt       7.01803487       5.67261037      22.29206776        3       0.00000000      -0.08926200      -0.05117240      -0.15166688
Pt       9.82524821       5.67261065      22.29206806        3       0.00000000       0.08904774      -0.05168653      -0.15173364
Pt      -0.00000053       1.62074569      24.58417386        2       0.00000000       0.00001952      -0.00003101      -0.01986153
Pt       2.80721443       1.62074549      24.58417398        2       0.00000000       0.02180211      -0.25452539       0.31637761
Pt       5.61442778       1.62074537      24.58417377        2       0.00000000      -0.02616131      -0.25521734       0.31805161
Pt       1.40360637       4.05186439      24.58417390        2       0.00000000      -0.20776761       0.15032008       0.31761220
Pt       4.21082088       4.05186403      24.58417379        2       0.00000000       0.00000786      -0.00005907      -0.24099027
Pt       7.01803504       4.05186408      24.58417406        2       0.00000000       0.20948318       0.14627090       0.31626740
Pt       2.80721282       6.48298343      24.58417376        2       0.00000000      -0.23120899       0.10832593       0.31650716
Pt       5.61442796       6.48298325      24.58417391        2       0.00000000       0.23388350       0.10497469       0.31798699
Pt       8.42164222       6.48298341      24.58417381        2       0.00000000      -0.00001618      -0.00036613      -0.66348678
Pt       0.00108666       0.00376541      26.90036842        1       0.00000000      -0.00544295      -0.04672534       0.00940080
Pt       2.71741131       0.05396550      27.29322926        1       0.00000000      -0.01110463       0.01358240      -0.00197362
Pt       5.70619827       0.05061831      27.29327324        1       0.00000000       0.01727814       0.00298624      -0.00203642
Pt       1.39987766       2.43009181      26.90034415        1       0.00000000       0.04298094       0.01844562       0.00957440
Pt       4.21142170       2.45495574      26.89811726        1       0.00000000       0.00032690       0.00511140       0.00818298
Pt       7.02070524       2.42822565      26.90033706        1       0.00000000      -0.03746717       0.02810668       0.00957917
Pt       2.82752070       4.84978428      26.89803031        1       0.00000000       0.00446218      -0.00309981       0.00829434
Pt       5.59351473       4.85084945      26.89801931        1       0.00000000      -0.00487847      -0.00244592       0.00831571
Pt       8.41971193       4.75718889      27.29321800        1       0.00000000      -0.00613607      -0.01496832      -0.00167849
C        8.42165223       6.48285062      28.17381661        0       1.00000000      -0.00004371      -0.00142738       0.01497528
H        8.42163520       6.48373945      26.17347928        0       0.00000000      -0.00000534       0.00078179       0.03440902
