38
Lattice="8.421641763931781 0.0 0.0 4.2108208819658905 7.293355709136913 0.0 0.0 0.0 46.87624170604845" Properties=species:S:1:pos:R:3:tags:I:1:initial_magmoms:R:1:forces:R:3 charge=0 spin=0 energy=-197.50808692653897 free_energy=-197.50808692653897 stress="0.009057430550456047 -1.3651033725636808e-07 2.5559483418646778e-09 -1.3651033725636808e-07 0.009057394228875637 4.256616747966291e-08 2.5559483418646778e-09 4.256616747966291e-08 -0.0008545779855921865" pbc="T T T"
Pt      -0.00000012       0.00000002      19.95723426        4       0.00000000       0.00533476       0.00268499       0.02200238
Pt       2.80721404      -0.00000018      19.95723442        4       0.00000000       0.00291178       0.02441197      -0.03721722
Pt       5.61442782      -0.00000007      19.95723448        4       0.00000000      -0.00503509       0.00329585       0.02214782
Pt       1.40360721       2.43111841      19.95723428        4       0.00000000       0.01967504      -0.01473467      -0.03725598
Pt       4.21082083       2.43111835      19.95723436        4       0.00000000      -0.02258670      -0.00967068      -0.03704282
Pt       7.01803478       2.43111845      19.95723424        4       0.00000000      -0.00103311       0.00917338       0.01908765
Pt       2.80721407       4.86223728      19.95723400        4       0.00000000      -0.00029695      -0.00598149       0.02191504
Pt       5.61442803       4.86223733      19.95723419        4       0.00000000       0.00846975      -0.00373319       0.01889530
Pt       8.42164139       4.86223726      19.95723434        4       0.00000000      -0.00743742      -0.00544781       0.01883742
Pt       1.40360728       0.81037259      22.29206791        3       0.00000000       0.04260813       0.02395545      -0.19712056
Pt       4.21082130       0.81037249      22.29206784        3       0.00000000      -0.04215457       0.02482434      -0.19699065
Pt       7.01803471       0.81037256      22.29206781        3       0.00000000      -0.00536797       0.02541624      -0.01668628
Pt       2.80721448       3.24149124      22.29206773        3       0.00000000      -0.00046095      -0.04877312      -0.19727010
Pt       5.61442763       3.24149123      22.29206786        3       0.00000000      -0.08906946      -0.05120901      -0.14868052
Pt       8.42164156       3.24149129      22.29206804        3       0.00000000       0.08897290      -0.05149145      -0.14873455
Pt       4.21082092       5.67260997      22.29206793        3       0.00000000       0.02475792      -0.00803608      -0.01724916
Pt       7.01803487       5.67261037      22.29206776        3       0.00000000       0.00009285       0.10269255      -0.14902854
Pt       9.82524821       5.67261065      22.29206806        3       0.00000000      -0.01938034      -0.01738741      -0.01717339
Pt      -0.00000053       1.62074569      24.58417386        2       0.00000000      -0.20916060       0.15680483       0.31733945
Pt       2.80721443       1.62074549      24.58417398        2       0.00000000      -0.00001438       0.00002552      -0.21586718
Pt       5.61442778       1.62074537      24.58417377        2       0.00000000       0.20971426       0.15361406       0.31615868
Pt       1.40360637       4.05186439      24.58417390        2       0.00000000      -0.23773585       0.10492160       0.31645137
Pt       4.21082088       4.05186403      24.58417379        2       0.00000000       0.24020794       0.10300276       0.31781769
Pt       7.01803504       4.05186408      24.58417406        2       0.00000000       0.00000541      -0.00000211      -0.59255630
Pt       2.80721282       6.48298343      24.58417376        2       0.00000000       0.00001836      -0.00001581      -0.01356661
Pt       5.61442796       6.48298325      24.58417391        2       0.00000000       0.02800232      -0.25854424       0.31634057
Pt       8.42164222       6.48298341      24.58417381        2       0.00000000      -0.03102428      -0.25981224       0.31787053
Pt       0.00164353       0.00130812      26.89637631        1       0.00000000       0.01759214       0.00717294       0.01896927
Pt       2.80901552       0.01979964      26.90115613        1       0.00000000      -0.00285842       0.03321047      -0.00317643
Pt       5.61248954       0.00076702      26.89637326        1       0.00000000      -0.01505828       0.01164091       0.01897399
Pt       1.41985583       2.41966609      26.90119144        1       0.00000000       0.03010455      -0.01429606      -0.00337333
Pt       4.19276963       2.42277963      26.90118413        1       0.00000000      -0.02739336      -0.01894076      -0.00335219
Pt       7.01638437       2.32778985      27.29850176        1       0.00000000      -0.00589355      -0.03232316      -0.01025294
Pt       2.80752559       4.86016024      26.89637790        1       0.00000000      -0.00239571      -0.01880287       0.01886261
Pt       5.52577328       4.91533114      27.29849491        1       0.00000000      -0.02502892       0.02125848      -0.01023839
Pt       8.51195477       4.91247039      27.29850051        1       0.00000000       0.03091165       0.01105434      -0.01023992
C        7.01803583       4.05186139      28.18220308        0       1.00000000       0.00002162       0.00004270       0.01092041
H        7.01801781       4.05186046      26.17950883        0       0.00000000      -0.00001570      -0.00000121      -0.02951726
