38
Lattice="8.421641763931781 0.0 0.0 4.2108208819658905 7.293355709136913 0.0 0.0 0.0 46.87624170604845" Properties=species:S:1:pos:R:3:tags:I:1:initial_magmoms:R:1:forces:R:3 charge=0 spin=0 energy=-197.989848858912 free_energy=-197.989848858912 stress="0.007481967099010944 -0.0001550441957078874 -6.821316492278129e-05 -0.0001550441957078874 0.0075686308555305 -8.912327029975131e-05 -6.821316492278129e-05 -8.912327029975131e-05 -0.0007387715741060674" pbc="T T T"
Pt      -0.00000012       0.00000002      19.95723426        4       0.00000000       0.00414624       0.00098534       0.00782004
Pt       2.80721404      -0.00000018      19.95723442        4       0.00000000       0.00019307       0.00485152       0.02635900
Pt       5.61442782      -0.00000007      19.95723448        4       0.00000000      -0.00474840      -0.00205284       0.01815432
Pt       1.40360721       2.43111841      19.95723428        4       0.00000000      -0.00833445      -0.00592279      -0.01054749
Pt       4.21082083       2.43111835      19.95723436        4       0.00000000       0.00656463       0.01157038      -0.01390798
Pt       7.01803478       2.43111845      19.95723424        4       0.00000000      -0.00197652       0.00469901       0.00889838
Pt       2.80721407       4.86223728      19.95723400        4       0.00000000       0.01808707      -0.01431329      -0.01408836
Pt       5.61442803       4.86223733      19.95723419        4       0.00000000      -0.02102891      -0.00468882       0.00240434
Pt       8.42164139       4.86223726      19.95723434        4       0.00000000       0.00224035      -0.00399392       0.02842238
Pt       1.40360728       0.81037259      22.29206791        3       0.00000000       0.01454571       0.02074390      -0.06519273
Pt       4.21082130       0.81037249      22.29206784        3       0.00000000      -0.00435055       0.06855355      -0.12004477
Pt       7.01803471       0.81037256      22.29206781        3       0.00000000      -0.00676287      -0.00601033      -0.07579925
Pt       2.80721448       3.24149124      22.29206773        3       0.00000000      -0.00740731       0.00144636      -0.26117206
Pt       5.61442763       3.24149123      22.29206786        3       0.00000000      -0.03947507       0.00657323      -0.11094438
Pt       8.42164156       3.24149129      22.29206804        3       0.00000000       0.02567996       0.00506126      -0.07329430
Pt       4.21082092       5.67260997      22.29206793        3       0.00000000      -0.03096097      -0.03538379      -0.13721395
Pt       7.01803487       5.67261037      22.29206776        3       0.00000000      -0.03538118      -0.01886602      -0.01797223
Pt       9.82524821       5.67261065      22.29206806        3       0.00000000       0.07197379      -0.05118207      -0.14700198
Pt      -0.00000053       1.62074569      24.58417386        2       0.00000000       0.02572473      -0.00004294      -0.09667092
Pt       2.80721443       1.62074549      24.58417398        2       0.00000000      -0.01628532      -0.24277060       0.28105715
Pt       5.61442778       1.62074537      24.58417377        2       0.00000000      -0.01804754      -0.02858174       0.00906605
Pt       1.40360637       4.05186439      24.58417390        2       0.00000000      -0.18161139       0.10993665       0.27502003
Pt       4.21082088       4.05186403      24.58417379        2       0.00000000       0.11447145       0.04511490       0.17490190
Pt       7.01803504       4.05186408      24.58417406        2       0.00000000       0.03929059       0.11893926       0.20235832
Pt       2.80721282       6.48298343      24.58417376        2       0.00000000      -0.01430806       0.01009452       0.00790781
Pt       5.61442796       6.48298325      24.58417391        2       0.00000000       0.15913396      -0.00795209       0.24304360
Pt       8.42164222       6.48298341      24.58417381        2       0.00000000      -0.14229797      -0.08023384      -0.16965644
Pt       0.00342691       0.00559588      26.89668270        1       0.00000000       0.00305156       0.00974782       0.00183860
Pt       2.76831614       0.13453880      27.31238098        1       0.00000000       0.00665682       0.02520327       0.01358875
Pt       5.71868405       0.04179688      27.02466362        1       0.00000000      -0.01195864      -0.00411396      -0.01586639
Pt       1.39656134       2.42510644      26.89475804        1       0.00000000       0.03621340       0.01229143       0.00156350
Pt       4.19759570       2.41957476      26.90553459        1       0.00000000       0.00479526       0.00205298      -0.00493018
Pt       7.02031177       2.40904552      26.89152835        1       0.00000000       0.00568468      -0.00600694       0.00190226
Pt       2.79994042       4.85902692      26.90508772        1       0.00000000      -0.01343460      -0.00264156      -0.00061054
Pt       5.49961318       4.78738455      27.02263494        1       0.00000000       0.00493631       0.00285980       0.01838941
Pt       8.50487299       4.76585244      27.18710001        1       0.00000000       0.00637400       0.01926852      -0.00016913
C        6.94669760       5.61074489      27.93361047        0       1.00000000       0.01844325      -0.01113201      -0.00051476
H        8.41889657       6.66653704      26.31951138        0       0.00000000      -0.00983713       0.04589596       0.01290189
