38
Lattice="8.421641763931781 0.0 0.0 4.2108208819658905 7.293355709136913 0.0 0.0 0.0 46.87624170604845" Properties=species:S:1:pos:R:3:tags:I:1:initial_magmoms:R:1:forces:R:3 charge=0 spin=0 energy=-192.903142697413 free_energy=-192.903142697413 stress="0.010230032727122307 -1.1254725507114927e-07 6.163122456825931e-09 -1.1254725507114927e-07 0.010230022482573986 -5.5082756134083866e-09 6.163122456825931e-09 -5.5082756134083866e-09 -7.246025779750198e-05" pbc="T T T"
Pt      -0.00000012       0.00000002      19.95723426        4       0.00000000      -0.00275735       0.00228131       0.01644196
Pt       2.80721404      -0.00000018      19.95723442        4       0.00000000      -0.00000166       0.00000273       0.01532080
Pt       5.61442782      -0.00000007      19.95723448        4       0.00000000       0.00147912       0.00418864       0.01718712
Pt       1.40360721       2.43111841      19.95723428        4       0.00000000      -0.00436072      -0.00080733       0.01718751
Pt       4.21082083       2.43111835      19.95723436        4       0.00000000       0.00336301       0.00125481       0.01645091
Pt       7.01803478       2.43111845      19.95723424        4       0.00000000      -0.00000103       0.00000107      -0.01058788
Pt       2.80721407       4.86223728      19.95723400        4       0.00000000       0.00000135      -0.00000370       0.01367846
Pt       5.61442803       4.86223733      19.95723419        4       0.00000000       0.00287904      -0.00337988       0.01719910
Pt       8.42164139       4.86223726      19.95723434        4       0.00000000      -0.00059941      -0.00353963       0.01647536
Pt       1.40360728       0.81037259      22.29206791        3       0.00000000       0.00242530      -0.00311386      -0.05282074
Pt       4.21082130       0.81037249      22.29206784        3       0.00000000      -0.00390731      -0.00056676      -0.05282236
Pt       7.01803471       0.81037256      22.29206781        3       0.00000000      -0.00103005       0.00493529      -0.04000529
Pt       2.80721448       3.24149124      22.29206773        3       0.00000000      -0.00041644       0.00115879      -0.05311079
Pt       5.61442763       3.24149123      22.29206786        3       0.00000000       0.00480129      -0.00160610      -0.04001569
Pt       8.42164156       3.24149129      22.29206804        3       0.00000000      -0.00376344      -0.00332339      -0.03999738
Pt       4.21082092       5.67260997      22.29206793        3       0.00000000      -0.00081810      -0.00095403      -0.05311305
Pt       7.01803487       5.67261037      22.29206776        3       0.00000000       0.00147725       0.00368553      -0.05281117
Pt       9.82524821       5.67261065      22.29206806        3       0.00000000       0.00122944      -0.00021309      -0.05309300
Pt      -0.00000053       1.62074569      24.58417386        2       0.00000000      -0.01027595       0.00264816       0.04059161
Pt       2.80721443       1.62074549      24.58417398        2       0.00000000       0.00673026      -0.00656586       0.05939245
Pt       5.61442778       1.62074537      24.58417377        2       0.00000000       0.00746915       0.00755885       0.04062871
Pt       1.40360637       4.05186439      24.58417390        2       0.00000000      -0.01134135      -0.00626648       0.03709541
Pt       4.21082088       4.05186403      24.58417379        2       0.00000000       0.01109755      -0.00669983       0.03713857
Pt       7.01803504       4.05186408      24.58417406        2       0.00000000       0.00280549      -0.01020586       0.04053632
Pt       2.80721282       6.48298343      24.58417376        2       0.00000000       0.00027686       0.01296978       0.03716844
Pt       5.61442796       6.48298325      24.58417391        2       0.00000000       0.00226516       0.00910252       0.05936656
Pt       8.42164222       6.48298341      24.58417381        2       0.00000000      -0.00901908      -0.00254443       0.05937371
Pt       0.00470191       0.01077938      26.92152858        1       0.00000000       0.00627126       0.00301107      -0.00974334
Pt       2.80721837       0.00000167      26.92543923        1       0.00000000      -0.00000821      -0.00000748      -0.02470521
Pt       5.60672476       0.00832115      26.92150154        1       0.00000000      -0.00204694       0.00622847      -0.01041785
Pt       1.40024676       2.42028098      26.92150479        1       0.00000000      -0.00437829      -0.00490283      -0.01042149
Pt       4.21779842       2.42166830      26.92151695        1       0.00000000      -0.00052820      -0.00694101      -0.00976980
Pt       7.01802857       2.43111763      26.92612181        1       0.00000000       0.00000668       0.00000806      -0.02825164
Pt       2.80721270       4.86223946      26.90124253        1       0.00000000       0.00000142      -0.00000060       0.03182260
Pt       5.62548931       4.86475810      26.92150351        1       0.00000000       0.00642568      -0.00133084      -0.01042113
Pt       8.40996149       4.86090965      26.92152298        1       0.00000000      -0.00575180       0.00394110      -0.00975905
C        2.80721671       4.86224082      29.93894837        0       1.00000000       0.00000693       0.00000938      -0.00346547
H        2.80721188       4.86223379      28.76323597        0       0.00000000      -0.00000692      -0.00001223      -0.00772330
