38
Lattice="8.421641763931781 0.0 0.0 4.2108208819658905 7.293355709136913 0.0 0.0 0.0 46.87624170604845" Properties=species:S:1:pos:R:3:tags:I:1:initial_magmoms:R:1:forces:R:3 charge=0 spin=0 energy=-197.93991065700772 free_energy=-197.93991065700772 stress="0.007024597842246294 2.807596999332418e-08 1.632859749634008e-07 2.807596999332418e-08 0.007021068595349789 1.0041500217994326e-06 1.632859749634008e-07 1.0041500217994326e-06 -0.0010911943390965462" pbc="T T T"
Pt      -0.00000012       0.00000002      19.95723426        4       0.00000000      -0.00695512       0.00571352      -0.02590086
Pt       2.80721404      -0.00000018      19.95723442        4       0.00000000      -0.00348233       0.00263115       0.01468745
Pt       5.61442782      -0.00000007      19.95723448        4       0.00000000       0.00841854       0.00311398      -0.02581916
Pt       1.40360721       2.43111841      19.95723428        4       0.00000000      -0.00777300      -0.00315594       0.01830504
Pt       4.21082083       2.43111835      19.95723436        4       0.00000000       0.00668220      -0.00515769       0.01826505
Pt       7.01803478       2.43111845      19.95723424        4       0.00000000      -0.00146103      -0.00883758      -0.02590430
Pt       2.80721407       4.86223728      19.95723400        4       0.00000000       0.00109636       0.00827535       0.01820309
Pt       5.61442803       4.86223733      19.95723419        4       0.00000000      -0.00053014      -0.00437209       0.01451993
Pt       8.42164139       4.86223726      19.95723434        4       0.00000000       0.00400977       0.00169257       0.01464756
Pt       1.40360728       0.81037259      22.29206791        3       0.00000000      -0.06604871      -0.03103283      -0.12910604
Pt       4.21082130       0.81037249      22.29206784        3       0.00000000       0.07184252      -0.03858593      -0.13561262
Pt       7.01803471       0.81037256      22.29206781        3       0.00000000       0.00000243       0.00000181      -0.26908317
Pt       2.80721448       3.24149124      22.29206773        3       0.00000000      -0.00001111      -0.00003921      -0.22470975
Pt       5.61442763       3.24149123      22.29206786        3       0.00000000       0.05983984      -0.04182837      -0.12953128
Pt       8.42164156       3.24149129      22.29206804        3       0.00000000      -0.06922648      -0.04293762      -0.13596044
Pt       4.21082092       5.67260997      22.29206793        3       0.00000000      -0.00264223       0.08141002      -0.13576709
Pt       7.01803487       5.67261037      22.29206776        3       0.00000000      -0.00000956      -0.00004270      -0.11084001
Pt       9.82524821       5.67261065      22.29206806        3       0.00000000       0.00621118       0.07273040      -0.12942626
Pt      -0.00000053       1.62074569      24.58417386        2       0.00000000       0.11082187       0.06251499       0.26221058
Pt       2.80721443       1.62074549      24.58417398        2       0.00000000       0.00712996      -0.57450908       0.27909628
Pt       5.61442778       1.62074537      24.58417377        2       0.00000000      -0.10936316       0.06515077       0.26218379
Pt       1.40360637       4.05186439      24.58417390        2       0.00000000      -0.50102067       0.28131416       0.27952582
Pt       4.21082088       4.05186403      24.58417379        2       0.00000000       0.49406335       0.29335964       0.27942076
Pt       7.01803504       4.05186408      24.58417406        2       0.00000000       0.01002353      -0.00454576      -0.08807672
Pt       2.80721282       6.48298343      24.58417376        2       0.00000000      -0.00146184      -0.12723055       0.26230946
Pt       5.61442796       6.48298325      24.58417391        2       0.00000000      -0.00922075      -0.00634331      -0.08840723
Pt       8.42164222       6.48298341      24.58417381        2       0.00000000      -0.00088501       0.01133530      -0.08831599
Pt       0.00660504      -0.00336910      26.89476149        1       0.00000000      -0.00611650      -0.00122825       0.00406990
Pt       2.80427206      -0.01708702      26.89440376        1       0.00000000       0.00185256       0.00260123       0.00618694
Pt       5.60807847      -0.00372829      26.89475335        1       0.00000000       0.00182456       0.00615457       0.00409303
Pt       1.27967060       2.35965987      27.18029618        1       0.00000000       0.01349136       0.01103478       0.00813284
Pt       4.33492453       2.35989034      27.18029450        1       0.00000000      -0.01613968       0.00527169       0.00794243
Pt       7.01784131       2.43883122      26.89478440        1       0.00000000       0.00420295      -0.00487547       0.00393748
Pt       2.80711625       5.00559348      27.18021391        1       0.00000000       0.00308126      -0.01283768       0.00664536
Pt       5.63095708       4.86854726      26.89436750        1       0.00000000      -0.00316067       0.00014819       0.00612340
Pt       8.40812185       4.87368314      26.89436665        1       0.00000000       0.00142436      -0.00285393       0.00612222
C        2.80726752       3.24198203      27.91224787        0       1.00000000      -0.00052439      -0.00411295      -0.02863338
H        2.80720429       3.24142146      25.35836059        0       0.00000000       0.00001407       0.00007271      -0.00553394
