38
Lattice="8.421641763931781 0.0 0.0 4.2108208819658905 7.293355709136913 0.0 0.0 0.0 46.87624170604845" Properties=species:S:1:pos:R:3:tags:I:1:initial_magmoms:R:1:forces:R:3 charge=0 spin=0 energy=-197.50808692653897 free_energy=-197.50808692653897 stress="0.009057431481778622 -1.3476768856435228e-07 7.3842727488226956e-09 -1.3476768856435228e-07 0.009057408198714256 5.618632670234547e-08 7.3842727488226956e-09 5.618632670234547e-08 -0.0008545761229470372" pbc="T T T"
Pt      -0.00000012       0.00000002      19.95723426        4       0.00000000       0.00847373      -0.00373053       0.01889530
Pt       2.80721404      -0.00000018      19.95723442        4       0.00000000      -0.00744069      -0.00544080       0.01882849
Pt       5.61442782      -0.00000007      19.95723448        4       0.00000000      -0.00029830      -0.00597524       0.02190653
Pt       1.40360721       2.43111841      19.95723428        4       0.00000000       0.00291298       0.02440988      -0.03720590
Pt       4.21082083       2.43111835      19.95723436        4       0.00000000      -0.00503343       0.00329467       0.02215787
Pt       7.01803478       2.43111845      19.95723424        4       0.00000000       0.00533205       0.00268665       0.02200337
Pt       2.80721407       4.86223728      19.95723400        4       0.00000000      -0.02258722      -0.00967615      -0.03704186
Pt       5.61442803       4.86223733      19.95723419        4       0.00000000      -0.00103357       0.00916905       0.01908814
Pt       8.42164139       4.86223726      19.95723434        4       0.00000000       0.01967668      -0.01473984      -0.03725658
Pt       1.40360728       0.81037259      22.29206791        3       0.00000000       0.00009251       0.10270122      -0.14903024
Pt       4.21082130       0.81037249      22.29206784        3       0.00000000      -0.01938904      -0.01736892      -0.01717442
Pt       7.01803471       0.81037256      22.29206781        3       0.00000000       0.02476129      -0.00803479      -0.01725013
Pt       2.80721448       3.24149124      22.29206773        3       0.00000000      -0.04215830       0.02481897      -0.19698292
Pt       5.61442763       3.24149123      22.29206786        3       0.00000000      -0.00536695       0.02541387      -0.01669025
Pt       8.42164156       3.24149129      22.29206804        3       0.00000000       0.04261605       0.02395284      -0.19712228
Pt       4.21082092       5.67260997      22.29206793        3       0.00000000      -0.08907437      -0.05120643      -0.14867833
Pt       7.01803487       5.67261037      22.29206776        3       0.00000000       0.08896615      -0.05149845      -0.14872923
Pt       9.82524821       5.67261065      22.29206806        3       0.00000000      -0.00044721      -0.04878413      -0.19725925
Pt      -0.00000053       1.62074569      24.58417386        2       0.00000000       0.02800263      -0.25853580       0.31634316
Pt       2.80721443       1.62074549      24.58417398        2       0.00000000      -0.03101632      -0.25979483       0.31786796
Pt       5.61442778       1.62074537      24.58417377        2       0.00000000       0.00000972      -0.00000476      -0.01355753
Pt       1.40360637       4.05186439      24.58417390        2       0.00000000      -0.00000149       0.00001886      -0.21588869
Pt       4.21082088       4.05186403      24.58417379        2       0.00000000       0.20970790       0.15360332       0.31616104
Pt       7.01803504       4.05186408      24.58417406        2       0.00000000      -0.20916371       0.15679806       0.31733835
Pt       2.80721282       6.48298343      24.58417376        2       0.00000000       0.24021253       0.10299219       0.31782064
Pt       5.61442796       6.48298325      24.58417391        2       0.00000000       0.00000386      -0.00000586      -0.59262699
Pt       8.42164222       6.48298341      24.58417381        2       0.00000000      -0.23774265       0.10492135       0.31645733
Pt      -0.08865074       0.05309253      27.29848209        1       0.00000000      -0.02502990       0.02125080      -0.01022588
Pt       2.89752303       0.05023063      27.29848687        1       0.00000000       0.03090307       0.01104591      -0.01022457
Pt       5.61473812      -0.00207517      26.89638205        1       0.00000000      -0.00238536      -0.01880731       0.01885601
Pt       1.40540786       2.45092220      26.90115601        1       0.00000000      -0.00285660       0.03319228      -0.00317486
Pt       4.20888393       2.43188422      26.89637693        1       0.00000000      -0.01506267       0.01164557       0.01896479
Pt       7.01967647       2.43242635      26.89637992        1       0.00000000       0.01759598       0.00717067       0.01896222
Pt       2.78915888       4.85389617      26.90118435        1       0.00000000      -0.02737577      -0.01892936      -0.00335101
Pt       5.61277690       4.75891120      27.29848698        1       0.00000000      -0.00589709      -0.03226304      -0.01021426
Pt       8.43789355       4.85078282      26.90119196        1       0.00000000       0.03008589      -0.01428745      -0.00336835
C        5.61442876       6.48298157      28.18220747        0       1.00000000       0.00002048       0.00000089       0.01087368
H        5.61441432       6.48297905      26.17950645        0       0.00000000      -0.00001299      -0.00000346      -0.02947136
