38
Lattice="8.421641763931781 0.0 0.0 4.2108208819658905 7.293355709136913 0.0 0.0 0.0 46.87624170604845" Properties=species:S:1:pos:R:3:tags:I:1:initial_magmoms:R:1:forces:R:3 charge=0 spin=0 energy=-192.90342689235928 free_energy=-192.90342689235928 stress="0.010173279792070389 -9.858182892230616e-08 4.6696007061086675e-09 -9.858182892230616e-08 0.010173275135457516 -1.3896808148672335e-09 4.6696007061086675e-09 -1.3896808148672335e-09 -0.00016922624490689486" pbc="T T T"
Pt      -0.00000012       0.00000002      19.95723426        4       0.00000000      -0.00275248       0.00230635       0.01648925
Pt       2.80721404      -0.00000018      19.95723442        4       0.00000000      -0.00000229       0.00000341       0.01524896
Pt       5.61442782      -0.00000007      19.95723448        4       0.00000000       0.00165946       0.00412466       0.01722300
Pt       1.40360721       2.43111841      19.95723428        4       0.00000000      -0.00439535      -0.00061950       0.01722771
Pt       4.21082083       2.43111835      19.95723436        4       0.00000000       0.00338076       0.00123674       0.01650087
Pt       7.01803478       2.43111845      19.95723424        4       0.00000000      -0.00000091       0.00000035      -0.01118025
Pt       2.80721407       4.86223728      19.95723400        4       0.00000000       0.00000135      -0.00000313       0.01381302
Pt       5.61442803       4.86223733      19.95723419        4       0.00000000       0.00273252      -0.00350392       0.01723611
Pt       8.42164139       4.86223726      19.95723434        4       0.00000000      -0.00062239      -0.00354657       0.01652353
Pt       1.40360728       0.81037259      22.29206791        3       0.00000000       0.00200998      -0.00290570      -0.05267921
Pt       4.21082130       0.81037249      22.29206784        3       0.00000000      -0.00351822      -0.00031358      -0.05268319
Pt       7.01803471       0.81037256      22.29206781        3       0.00000000      -0.00098267       0.00575194      -0.04118480
Pt       2.80721448       3.24149124      22.29206773        3       0.00000000      -0.00043003       0.00108874      -0.05159603
Pt       5.61442763       3.24149123      22.29206786        3       0.00000000       0.00548784      -0.00205653      -0.04119458
Pt       8.42164156       3.24149129      22.29206804        3       0.00000000      -0.00449741      -0.00368872      -0.04117436
Pt       4.21082092       5.67260997      22.29206793        3       0.00000000      -0.00074607      -0.00093046      -0.05161302
Pt       7.01803487       5.67261037      22.29206776        3       0.00000000       0.00150353       0.00322009      -0.05268545
Pt       9.82524821       5.67261065      22.29206806        3       0.00000000       0.00117218      -0.00016133      -0.05159370
Pt      -0.00000053       1.62074569      24.58417386        2       0.00000000      -0.00585380      -0.00060688       0.01946326
Pt       2.80721443       1.62074549      24.58417398        2       0.00000000       0.00588001      -0.00125846       0.04080117
Pt       5.61442778       1.62074537      24.58417377        2       0.00000000       0.00244336       0.00535489       0.01950331
Pt       1.40360637       4.05186439      24.58417390        2       0.00000000      -0.00357127      -0.00129036       0.03837935
Pt       4.21082088       4.05186403      24.58417379        2       0.00000000       0.00288200      -0.00249274       0.03841477
Pt       7.01803504       4.05186408      24.58417406        2       0.00000000       0.00341546      -0.00475892       0.01938855
Pt       2.80721282       6.48298343      24.58417376        2       0.00000000       0.00071562       0.00375580       0.03847334
Pt       5.61442796       6.48298325      24.58417391        2       0.00000000      -0.00191678       0.00573236       0.04078107
Pt       8.42164222       6.48298341      24.58417381        2       0.00000000      -0.00399005      -0.00443960       0.04079310
Pt       0.00593682       0.01041527      26.91898155        1       0.00000000      -0.00200614      -0.00143325       0.00106119
Pt       2.80721498      -0.00000215      26.91834562        1       0.00000000       0.00001255      -0.00000882       0.00809514
Pt       5.60731743       0.00949122      26.91885563        1       0.00000000      -0.00026915      -0.00358538       0.00077118
Pt       1.39895009       2.42019843      26.91885493        1       0.00000000       0.00318158       0.00158880       0.00078734
Pt       4.21685428       2.42076818      26.91896736        1       0.00000000      -0.00017805       0.00248651       0.00103322
Pt       7.01803363       2.43112024      26.91804258        1       0.00000000      -0.00001206       0.00000736       0.00909313
Pt       2.80721367       4.86223744      26.90598077        1       0.00000000      -0.00000035       0.00000055      -0.00328545
Pt       5.62619582       4.86366625      26.91883205        1       0.00000000      -0.00290972       0.00200120       0.00085553
Pt       8.40967119       4.86217227      26.91895735        1       0.00000000       0.00217730      -0.00105530       0.00110566
C        2.80721380       4.86223739      29.93871799        0       1.00000000      -0.00000065       0.00000120      -0.01291362
H        2.80721401       4.86223713      28.76194031        0       0.00000000       0.00000035      -0.00000188       0.01472066
