38
Lattice="8.421641763931781 0.0 0.0 4.2108208819658905 7.293355709136913 0.0 0.0 0.0 46.87624170604845" Properties=species:S:1:pos:R:3:tags:I:1:initial_magmoms:R:1:forces:R:3 charge=0 spin=0 energy=-192.90323234279873 free_energy=-192.90323234279873 stress="0.010190239176154137 -1.0717087661760161e-07 1.2898373924485895e-08 -1.0717087661760161e-07 0.010190170258283615 -1.4726009567311849e-07 1.2898373924485895e-08 -1.4726009567311849e-07 -0.0001290283544221893" pbc="T T T"
Pt      -0.00000012       0.00000002      19.95723426        4       0.00000000      -0.00270317       0.00219188       0.01644196
Pt       2.80721404      -0.00000018      19.95723442        4       0.00000000      -0.00000207       0.00000220       0.01529266
Pt       5.61442782      -0.00000007      19.95723448        4       0.00000000       0.00152732       0.00405684       0.01718397
Pt       1.40360721       2.43111841      19.95723428        4       0.00000000      -0.00427072      -0.00070113       0.01718432
Pt       4.21082083       2.43111835      19.95723436        4       0.00000000       0.00325729       0.00125197       0.01645171
Pt       7.01803478       2.43111845      19.95723424        4       0.00000000      -0.00000080      -0.00000130      -0.01063203
Pt       2.80721407       4.86223728      19.95723400        4       0.00000000       0.00000187      -0.00000383       0.01358805
Pt       5.61442803       4.86223733      19.95723419        4       0.00000000       0.00274001      -0.00335411       0.01719493
Pt       8.42164139       4.86223726      19.95723434        4       0.00000000      -0.00054738      -0.00344598       0.01647347
Pt       1.40360728       0.81037259      22.29206791        3       0.00000000       0.00227026      -0.00299529      -0.05267226
Pt       4.21082130       0.81037249      22.29206784        3       0.00000000      -0.00372482      -0.00049855      -0.05267411
Pt       7.01803471       0.81037256      22.29206781        3       0.00000000      -0.00098960       0.00527165      -0.04063411
Pt       2.80721448       3.24149124      22.29206773        3       0.00000000      -0.00040329       0.00101943      -0.05219181
Pt       5.61442763       3.24149123      22.29206786        3       0.00000000       0.00507485      -0.00181229      -0.04064865
Pt       8.42164156       3.24149129      22.29206804        3       0.00000000      -0.00407543      -0.00345895      -0.04063063
Pt       4.21082092       5.67260997      22.29206793        3       0.00000000      -0.00070569      -0.00087812      -0.05219393
Pt       7.01803487       5.67261037      22.29206776        3       0.00000000       0.00144967       0.00348589      -0.05266779
Pt       9.82524821       5.67261065      22.29206806        3       0.00000000       0.00110527      -0.00015790      -0.05217798
Pt      -0.00000053       1.62074569      24.58417386        2       0.00000000      -0.00776860       0.00072463       0.03066785
Pt       2.80721443       1.62074549      24.58417398        2       0.00000000       0.00623157      -0.00438398       0.04778114
Pt       5.61442778       1.62074537      24.58417377        2       0.00000000       0.00456776       0.00632375       0.03069553
Pt       1.40360637       4.05186439      24.58417390        2       0.00000000      -0.00989762      -0.00508292       0.02805432
Pt       4.21082088       4.05186403      24.58417379        2       0.00000000       0.00934335      -0.00602991       0.02809949
Pt       7.01803504       4.05186408      24.58417406        2       0.00000000       0.00319907      -0.00707058       0.03061295
Pt       2.80721282       6.48298343      24.58417376        2       0.00000000       0.00058018       0.01117146       0.02811094
Pt       5.61442796       6.48298325      24.58417391        2       0.00000000       0.00061308       0.00760824       0.04778723
Pt       8.42164222       6.48298341      24.58417381        2       0.00000000      -0.00687658      -0.00319053       0.04778676
Pt       0.00453446       0.00924046      26.91970866        1       0.00000000       0.00872647       0.01162369      -0.00208155
Pt       2.80721590       0.00000814      26.92090479        1       0.00000000      -0.00000761       0.00000495      -0.00563718
Pt       5.60798609       0.00765485      26.91955941        1       0.00000000      -0.00833400       0.01182918      -0.00226217
Pt       1.40020243       2.42172143      26.91955641        1       0.00000000      -0.00607790      -0.01314178      -0.00230964
Pt       4.21653696       2.42259459      26.91968284        1       0.00000000       0.00569491      -0.01336905      -0.00212938
Pt       7.01802859       2.43112644      26.92174327        1       0.00000000       0.00000203       0.00001334      -0.01017571
Pt       2.80720957       4.86226033      26.90105230        1       0.00000000      -0.00000126       0.00004345       0.04236712
Pt       5.62426853       4.86400923      26.91955495        1       0.00000000       0.01442654       0.00132687      -0.00228471
Pt       8.41138420       4.86154881      26.91969194        1       0.00000000      -0.01444158       0.00175903      -0.00209185
C        2.80720686       4.86239929      29.94203922        0       1.00000000      -0.00005212       0.00058788      -0.03606920
H        2.80724789       4.86194384      28.76466983        0       0.00000000       0.00006861      -0.00071991       0.02039019
