38
Lattice="8.421641763931781 0.0 0.0 4.2108208819658905 7.293355709136913 0.0 0.0 0.0 46.87624170604845" Properties=species:S:1:pos:R:3:tags:I:1:initial_magmoms:R:1:forces:R:3 charge=0 spin=0 energy=-197.93990684231045 free_energy=-197.93990684231045 stress="0.007024683989584446 4.0592649241943946e-08 1.6764639099164924e-07 4.0592649241943946e-08 0.0070210956037044525 1.026234713208396e-06 1.6764639099164924e-07 1.026234713208396e-06 -0.0010911646531894803" pbc="T T T"
Pt      -0.00000012       0.00000002      19.95723426        4       0.00000000       0.00109709       0.00827788       0.01820201
Pt       2.80721404      -0.00000018      19.95723442        4       0.00000000      -0.00052981      -0.00436612       0.01451050
Pt       5.61442782      -0.00000007      19.95723448        4       0.00000000       0.00400838       0.00170049       0.01463853
Pt       1.40360721       2.43111841      19.95723428        4       0.00000000      -0.00695749       0.00571501      -0.02590014
Pt       4.21082083       2.43111835      19.95723436        4       0.00000000      -0.00347786       0.00263043       0.01469708
Pt       7.01803478       2.43111845      19.95723424        4       0.00000000       0.00841723       0.00311171      -0.02580956
Pt       2.80721407       4.86223728      19.95723400        4       0.00000000      -0.00777087      -0.00316068       0.01830453
Pt       5.61442803       4.86223733      19.95723419        4       0.00000000       0.00667830      -0.00516311       0.01826435
Pt       8.42164139       4.86223726      19.95723434        4       0.00000000      -0.00145818      -0.00884324      -0.02590495
Pt       1.40360728       0.81037259      22.29206791        3       0.00000000      -0.00264308       0.08141031      -0.13576582
Pt       4.21082130       0.81037249      22.29206784        3       0.00000000      -0.00000788      -0.00003013      -0.11084179
Pt       7.01803471       0.81037256      22.29206781        3       0.00000000       0.00620621       0.07274564      -0.12942526
Pt       2.80721448       3.24149124      22.29206773        3       0.00000000      -0.06605290      -0.03103430      -0.12910798
Pt       5.61442763       3.24149123      22.29206786        3       0.00000000       0.07184616      -0.03859267      -0.13561472
Pt       8.42164156       3.24149129      22.29206804        3       0.00000000       0.00000448      -0.00000077      -0.26908630
Pt       4.21082092       5.67260997      22.29206793        3       0.00000000      -0.00000614      -0.00003910      -0.22470610
Pt       7.01803487       5.67261037      22.29206776        3       0.00000000       0.05983469      -0.04183548      -0.12952730
Pt       9.82524821       5.67261065      22.29206806        3       0.00000000      -0.06922460      -0.04295089      -0.13595761
Pt      -0.00000053       1.62074569      24.58417386        2       0.00000000      -0.00147577      -0.12722836       0.26231501
Pt       2.80721443       1.62074549      24.58417398        2       0.00000000      -0.00922348      -0.00633716      -0.08840358
Pt       5.61442778       1.62074537      24.58417377        2       0.00000000      -0.00087604       0.01134617      -0.08831155
Pt       1.40360637       4.05186439      24.58417390        2       0.00000000       0.11082551       0.06251584       0.26220506
Pt       4.21082088       4.05186403      24.58417379        2       0.00000000       0.00713451      -0.57449722       0.27910015
Pt       7.01803504       4.05186408      24.58417406        2       0.00000000      -0.10937040       0.06514870       0.26218399
Pt       2.80721282       6.48298343      24.58417376        2       0.00000000      -0.50101125       0.28130987       0.27953181
Pt       5.61442796       6.48298325      24.58417391        2       0.00000000       0.49404970       0.29335037       0.27942047
Pt       8.42164222       6.48298341      24.58417381        2       0.00000000       0.01001710      -0.00455118      -0.08806905
Pt      -0.00010175       0.14335412      27.18021547        1       0.00000000       0.00309058      -0.01278294       0.00663128
Pt       2.82374190       0.00631251      26.89436871        1       0.00000000      -0.00315922       0.00015014       0.00611665
Pt       5.60090799       0.01144619      26.89436865        1       0.00000000       0.00141256      -0.00284248       0.00611884
Pt       1.41020734       2.42775213      26.89476106        1       0.00000000      -0.00610797      -0.00123658       0.00407796
Pt       4.20787770       2.41403195      26.89440471        1       0.00000000       0.00184949       0.00260120       0.00618003
Pt       7.01168412       2.42739281      26.89475457        1       0.00000000       0.00182008       0.00615074       0.00408767
Pt       2.68327248       4.79078242      27.18029576        1       0.00000000       0.01357803       0.01105760       0.00816541
Pt       5.73852476       4.79101349      27.18028554        1       0.00000000      -0.01613133       0.00526074       0.00795469
Pt       8.42144635       4.86995032      26.89478506        1       0.00000000       0.00418673      -0.00486879       0.00394021
C        4.21087443       5.67310517      27.91225864        0       1.00000000      -0.00059002      -0.00419171      -0.02866684
H        4.21080826       5.67254223      25.35836387        0       0.00000000       0.00001757       0.00007002      -0.00554797
