38
Lattice="8.421641763931781 0.0 0.0 4.2108208819658905 7.293355709136913 0.0 0.0 0.0 46.87624170604845" Properties=species:S:1:pos:R:3:tags:I:1:initial_magmoms:R:1:forces:R:3 charge=0 spin=0 energy=-197.98875785549404 free_energy=-197.98875785549404 stress="0.007478965912014246 -0.00014747065142728388 -6.879140710225329e-05 -0.00014747065142728388 0.007527772802859545 -6.58325880067423e-05 -6.879140710225329e-05 -6.58325880067423e-05 -0.000732925720512867" pbc="T T T"
Pt      -0.00000012       0.00000002      19.95723426        4       0.00000000      -0.02376973      -0.00729804       0.00102218
Pt       2.80721404      -0.00000018      19.95723442        4       0.00000000       0.00092172      -0.00550331       0.02859142
Pt       5.61442782      -0.00000007      19.95723448        4       0.00000000       0.01533213      -0.01325610      -0.01286829
Pt       1.40360721       2.43111841      19.95723428        4       0.00000000      -0.00170079       0.00331769       0.02701638
Pt       4.21082083       2.43111835      19.95723436        4       0.00000000      -0.00630348      -0.00329811       0.01792107
Pt       7.01803478       2.43111845      19.95723424        4       0.00000000       0.00241760      -0.00111680       0.00854535
Pt       2.80721407       4.86223728      19.95723400        4       0.00000000       0.00525008       0.01129243      -0.01328395
Pt       5.61442803       4.86223733      19.95723419        4       0.00000000      -0.00365980       0.00367063       0.00923984
Pt       8.42164139       4.86223726      19.95723434        4       0.00000000      -0.00993717      -0.00711572      -0.01066483
Pt       1.40360728       0.81037259      22.29206791        3       0.00000000      -0.04350830      -0.02327625      -0.02620070
Pt       4.21082130       0.81037249      22.29206784        3       0.00000000       0.06328101      -0.05168384      -0.13967699
Pt       7.01803471       0.81037256      22.29206781        3       0.00000000      -0.03266797      -0.03714037      -0.13390788
Pt       2.80721448       3.24149124      22.29206773        3       0.00000000      -0.01000839       0.06601546      -0.11994583
Pt       5.61442763       3.24149123      22.29206786        3       0.00000000      -0.01327541      -0.00937230      -0.07470663
Pt       8.42164156       3.24149129      22.29206804        3       0.00000000       0.01046426       0.01766223      -0.06765068
Pt       4.21082092       5.67260997      22.29206793        3       0.00000000      -0.04294509       0.00277263      -0.11423470
Pt       7.01803487       5.67261037      22.29206776        3       0.00000000       0.02097766       0.00100497      -0.07347614
Pt       9.82524821       5.67261065      22.29206806        3       0.00000000      -0.01002279      -0.00080664      -0.25830933
Pt      -0.00000053       1.62074569      24.58417386        2       0.00000000       0.16283074      -0.00347329       0.21400110
Pt       2.80721443       1.62074549      24.58417398        2       0.00000000      -0.13225767      -0.07511925      -0.18950902
Pt       5.61442778       1.62074537      24.58417377        2       0.00000000      -0.00207635       0.02641079       0.01942378
Pt       1.40360637       4.05186439      24.58417390        2       0.00000000       0.00845346      -0.22825363       0.29686484
Pt       4.21082088       4.05186403      24.58417379        2       0.00000000       0.00655133      -0.02162299       0.01882229
Pt       7.01803504       4.05186408      24.58417406        2       0.00000000       0.04744411       0.02198559      -0.08473077
Pt       2.80721282       6.48298343      24.58417376        2       0.00000000       0.12442642       0.05998289       0.17257781
Pt       5.61442796       6.48298325      24.58417391        2       0.00000000       0.05120791       0.12333558       0.19174404
Pt       8.42164222       6.48298341      24.58417381        2       0.00000000      -0.16355355       0.12361912       0.28929013
Pt      -0.09055873      -0.04912978      27.01723631        1       0.00000000       0.00688730      -0.02179866       0.02299767
Pt       2.91743457      -0.07539282      27.19402020        1       0.00000000      -0.01986102      -0.00167531       0.00283106
Pt       5.62876407       0.01774441      26.90817559        1       0.00000000       0.00165841      -0.00675896      -0.00320114
Pt       1.39405223       2.58439472      27.28459717        1       0.00000000       0.00334034       0.00111108       0.01032393
Pt       4.34064264       2.49714858      27.03371151        1       0.00000000       0.01503363       0.00394443      -0.00202122
Pt       7.04510562       2.45970270      26.89658848        1       0.00000000       0.00168265       0.00075395       0.00129445
Pt       2.82464066       4.86989413      26.90488678        1       0.00000000       0.00236474       0.01134250      -0.00049756
Pt       5.64581814       4.85671297      26.89475379        1       0.00000000       0.00326284       0.02076078      -0.00449583
Pt       8.45436193       4.87912174      26.90121464        1       0.00000000      -0.02211451       0.01840638      -0.01300734
C        1.35597592       0.77593647      27.92994317        0       1.00000000       0.00882168      -0.02373944      -0.00050712
H        2.87300155       1.79039555      26.31813821        0       0.00000000      -0.02494794       0.02491966       0.01038846
