38
Lattice="8.421641763931781 0.0 0.0 4.2108208819658905 7.293355709136913 0.0 0.0 0.0 46.87624170604845" Properties=species:S:1:pos:R:3:tags:I:1:initial_magmoms:R:1:forces:R:3 charge=0 spin=0 energy=-197.50845123012783 free_energy=-197.50845123012783 stress="0.009107038378715515 -3.5097477280032763e-07 9.071506923419292e-08 -3.5097477280032763e-07 0.009108132682740688 5.794779553980334e-07 9.071506923419292e-08 5.794779553980334e-07 -0.0007796997670084238" pbc="T T T"
Pt      -0.00000012       0.00000002      19.95723426        4       0.00000000       0.00272771       0.02447654      -0.03709193
Pt       2.80721404      -0.00000018      19.95723442        4       0.00000000      -0.00520689       0.00341556       0.02252403
Pt       5.61442782      -0.00000007      19.95723448        4       0.00000000       0.00553550       0.00276415       0.02236906
Pt       1.40360721       2.43111841      19.95723428        4       0.00000000      -0.02247376      -0.00981919      -0.03681192
Pt       4.21082083       2.43111835      19.95723436        4       0.00000000      -0.00104469       0.00932623       0.01956237
Pt       7.01803478       2.43111845      19.95723424        4       0.00000000       0.01979028      -0.01459194      -0.03709095
Pt       2.80721407       4.86223728      19.95723400        4       0.00000000       0.00861503      -0.00379152       0.01937304
Pt       5.61442803       4.86223733      19.95723419        4       0.00000000      -0.00757233      -0.00554021       0.01934104
Pt       8.42164139       4.86223726      19.95723434        4       0.00000000      -0.00033483      -0.00618617       0.02228821
Pt       1.40360728       0.81037259      22.29206791        3       0.00000000      -0.04217195       0.02480930      -0.19412535
Pt       4.21082130       0.81037249      22.29206784        3       0.00000000      -0.00527185       0.02496369      -0.01836409
Pt       7.01803471       0.81037256      22.29206781        3       0.00000000       0.04259771       0.02394954      -0.19426005
Pt       2.80721448       3.24149124      22.29206773        3       0.00000000      -0.08861514      -0.05071419      -0.15094016
Pt       5.61442763       3.24149123      22.29206786        3       0.00000000       0.08832730      -0.05135098      -0.15098432
Pt       8.42164156       3.24149129      22.29206804        3       0.00000000      -0.00044112      -0.04877261      -0.19442116
Pt       4.21082092       5.67260997      22.29206793        3       0.00000000       0.00029363       0.10215259      -0.15129490
Pt       7.01803487       5.67261037      22.29206776        3       0.00000000      -0.01906740      -0.01709079      -0.01881212
Pt       9.82524821       5.67261065      22.29206806        3       0.00000000       0.02431986      -0.00793565      -0.01890067
Pt      -0.00000053       1.62074569      24.58417386        2       0.00000000      -0.00002632      -0.00007175      -0.22959805
Pt       2.80721443       1.62074549      24.58417398        2       0.00000000       0.20728533       0.14187704       0.33084989
Pt       5.61442778       1.62074537      24.58417377        2       0.00000000      -0.20563209       0.14755376       0.33016929
Pt       1.40360637       4.05186439      24.58417390        2       0.00000000       0.23039724       0.10480001       0.33043468
Pt       4.21082088       4.05186403      24.58417379        2       0.00000000       0.00049102       0.00061489      -0.64364380
Pt       7.01803504       4.05186408      24.58417406        2       0.00000000      -0.22664751       0.10880420       0.33175722
Pt       2.80721282       6.48298343      24.58417376        2       0.00000000       0.01939141      -0.25072631       0.33149710
Pt       5.61442796       6.48298325      24.58417391        2       0.00000000      -0.02473725      -0.25231332       0.33129379
Pt       8.42164222       6.48298341      24.58417381        2       0.00000000      -0.00006341       0.00004810       0.02967221
Pt       0.00122469       0.02688251      26.90393111        1       0.00000000      -0.00070923      -0.01356280      -0.00520667
Pt       2.80056711       0.00190117      26.90767627        1       0.00000000       0.01157832      -0.00119137      -0.01784425
Pt       5.61930220       0.00505518      26.90764124        1       0.00000000      -0.00615286      -0.01007797      -0.01770459
Pt       1.37977515       2.41881225      26.90377276        1       0.00000000       0.01222067       0.00601444      -0.00469884
Pt       4.20663615       2.32705250      27.29438989        1       0.00000000      -0.00009846       0.00452143       0.00023431
Pt       7.04076286       2.41673762      26.90385066        1       0.00000000      -0.01156520       0.00754739      -0.00502164
Pt       2.71919975       4.91810581      27.29443827        1       0.00000000       0.00280764      -0.00085706      -0.00059851
Pt       5.70684372       4.91077492      27.29449282        1       0.00000000      -0.00090029      -0.00112962      -0.00153354
Pt       8.42373541       4.85558096      26.90764770        1       0.00000000      -0.00645117       0.01076329      -0.01780483
C        4.21099867       4.05216888      28.18088840        0       1.00000000      -0.00032640      -0.00129569      -0.01804575
H        4.20996930       4.05059218      26.17529651        0       0.00000000      -0.00086847      -0.00138277       0.02343194
