38
Lattice="8.421641763931781 0.0 0.0 4.2108208819658905 7.293355709136913 0.0 0.0 0.0 46.87624170604845" Properties=species:S:1:pos:R:3:tags:I:1:initial_magmoms:R:1:forces:R:3 charge=0 spin=0 energy=-197.98584533413174 free_energy=-197.98584533413174 stress="0.007507587783038616 -0.00017166449106298387 -6.726007995894179e-05 -0.00017166449106298387 0.007612567860633135 -5.325040910975076e-05 -6.726007995894179e-05 -5.325040910975076e-05 -0.000680475786793977" pbc="T T T"
Pt      -0.00000012       0.00000002      19.95723426        4       0.00000000      -0.00231292       0.00426216       0.00854143
Pt       2.80721404      -0.00000018      19.95723442        4       0.00000000      -0.00920824      -0.00592338      -0.01014925
Pt       5.61442782      -0.00000007      19.95723448        4       0.00000000       0.00443256       0.01559663      -0.01429858
Pt       1.40360721       2.43111841      19.95723428        4       0.00000000       0.00268676      -0.00511250       0.02798798
Pt       4.21082083       2.43111835      19.95723436        4       0.00000000       0.01420559      -0.01154061      -0.01345357
Pt       7.01803478       2.43111845      19.95723424        4       0.00000000      -0.02127272      -0.00556221       0.00348239
Pt       2.80721407       4.86223728      19.95723400        4       0.00000000      -0.00544085      -0.00331940       0.01825080
Pt       5.61442803       4.86223733      19.95723419        4       0.00000000       0.00341132       0.00021639       0.00818094
Pt       8.42164139       4.86223726      19.95723434        4       0.00000000      -0.00026153       0.00365795       0.02682414
Pt       1.40360728       0.81037259      22.29206791        3       0.00000000       0.02509340       0.00134845      -0.07141227
Pt       4.21082130       0.81037249      22.29206784        3       0.00000000      -0.00727383      -0.00089813      -0.26158610
Pt       7.01803471       0.81037256      22.29206781        3       0.00000000      -0.04264573       0.00261598      -0.11853711
Pt       2.80721448       3.24149124      22.29206773        3       0.00000000       0.06237253      -0.04610166      -0.13131617
Pt       5.61442763       3.24149123      22.29206786        3       0.00000000      -0.02807241      -0.03548858      -0.12909956
Pt       8.42164156       3.24149129      22.29206804        3       0.00000000      -0.03724453      -0.01951033      -0.01792247
Pt       4.21082092       5.67260997      22.29206793        3       0.00000000      -0.01048106      -0.00653564      -0.07846504
Pt       7.01803487       5.67261037      22.29206776        3       0.00000000       0.01497383       0.02052824      -0.06749634
Pt       9.82524821       5.67261065      22.29206806        3       0.00000000      -0.00713765       0.07508057      -0.12947404
Pt      -0.00000053       1.62074569      24.58417386        2       0.00000000       0.04939774       0.12706660       0.23325990
Pt       2.80721443       1.62074549      24.58417398        2       0.00000000      -0.19496812       0.12243770       0.28609520
Pt       5.61442778       1.62074537      24.58417377        2       0.00000000       0.12595271       0.06035810       0.19784881
Pt       1.40360637       4.05186439      24.58417390        2       0.00000000      -0.14028937      -0.07492339      -0.17436203
Pt       4.21082088       4.05186403      24.58417379        2       0.00000000      -0.00476291       0.00700468       0.00140113
Pt       7.01803504       4.05186408      24.58417406        2       0.00000000       0.15341656      -0.02200270       0.23823050
Pt       2.80721282       6.48298343      24.58417376        2       0.00000000      -0.00526676      -0.02020328       0.00292342
Pt       5.61442796       6.48298325      24.58417391        2       0.00000000       0.03107392       0.01990139      -0.08712906
Pt       8.42164222       6.48298341      24.58417381        2       0.00000000      -0.00121076      -0.24213231       0.28601888
Pt       0.01650084      -0.01351658      26.89596178        1       0.00000000       0.00211695       0.02252333      -0.00611751
Pt       2.82461516       0.01024437      26.89456737        1       0.00000000      -0.01527885      -0.01545324       0.00469708
Pt       5.61525414      -0.01036291      26.90495554        1       0.00000000       0.00471159       0.03140762      -0.00751981
Pt       1.49657128       2.34053692      27.23592198        1       0.00000000       0.00721849      -0.01398923      -0.01542517
Pt       4.20546424       2.43651255      26.90571639        1       0.00000000       0.01376992      -0.00362621      -0.00148151
Pt       6.90579393       2.36446171      27.03484075        1       0.00000000       0.00419280       0.00148286      -0.01588662
Pt       2.91459449       4.92106179      27.01446893        1       0.00000000       0.00593830      -0.00995386       0.00145430
Pt       5.62021786       4.88115240      26.89561927        1       0.00000000       0.01695677      -0.00490852       0.00219394
Pt       8.39561088       4.99416765      27.26586475        1       0.00000000      -0.02106950      -0.01273570       0.00091543
C        8.34723864       3.19539377      27.94555928        0       1.00000000      -0.00012078       0.02637558      -0.00050704
H        9.88476781       4.10921988      26.33009145        0       0.00000000       0.01239679       0.01805678       0.00333282
