38
Lattice="8.421641763931781 0.0 0.0 4.2108208819658905 7.293355709136913 0.0 0.0 0.0 46.87624170604845" Properties=species:S:1:pos:R:3:tags:I:1:initial_magmoms:R:1:forces:R:3 charge=0 spin=0 energy=-197.98943687160732 free_energy=-197.98943687160732 stress="0.007690323982387781 4.62927928310819e-05 -3.7255162169458345e-05 4.62927928310819e-05 0.007381326984614134 9.703112300485373e-05 -3.7255162169458345e-05 9.703112300485373e-05 -0.0007264797459356487" pbc="T T T"
Pt      -0.00000012       0.00000002      19.95723426        4       0.00000000       0.00061758       0.00511474       0.01828443
Pt       2.80721404      -0.00000018      19.95723442        4       0.00000000       0.00687576      -0.01157270      -0.01399021
Pt       5.61442782      -0.00000007      19.95723448        4       0.00000000      -0.02123107      -0.00842191      -0.01381614
Pt       1.40360721       2.43111841      19.95723428        4       0.00000000       0.00412347      -0.00271531       0.02630527
Pt       4.21082083       2.43111835      19.95723436        4       0.00000000      -0.00088261       0.01019304      -0.01068670
Pt       7.01803478       2.43111845      19.95723424        4       0.00000000      -0.00461415      -0.00004984       0.02831443
Pt       2.80721407       4.86223728      19.95723400        4       0.00000000      -0.00121156      -0.00418519       0.00787843
Pt       5.61442803       4.86223733      19.95723419        4       0.00000000       0.00501751      -0.00078647       0.00879735
Pt       8.42164139       4.86223726      19.95723434        4       0.00000000       0.00641651       0.02031530       0.00261706
Pt       1.40360728       0.81037259      22.29206791        3       0.00000000       0.06187957      -0.03097024      -0.11982884
Pt       4.21082130       0.81037249      22.29206784        3       0.00000000       0.00493981       0.00578043      -0.26144546
Pt       7.01803471       0.81037256      22.29206781        3       0.00000000      -0.07966649      -0.03678831      -0.14622287
Pt       2.80721448       3.24149124      22.29206773        3       0.00000000       0.01061595      -0.02340867      -0.06501468
Pt       5.61442763       3.24149123      22.29206786        3       0.00000000      -0.00861137      -0.02506167      -0.07338589
Pt       8.42164156       3.24149129      22.29206804        3       0.00000000       0.00127884       0.03926328      -0.01768772
Pt       4.21082092       5.67260997      22.29206793        3       0.00000000      -0.00185285       0.00866277      -0.07608572
Pt       7.01803487       5.67261037      22.29206776        3       0.00000000       0.02537033       0.03097096      -0.11123533
Pt       9.82524821       5.67261065      22.29206806        3       0.00000000      -0.01530344       0.04439580      -0.13668367
Pt      -0.00000053       1.62074569      24.58417386        2       0.00000000       0.00350950       0.16225806      -0.16069740
Pt       2.80721443       1.62074549      24.58417398        2       0.00000000      -0.20337132       0.13659650       0.28011930
Pt       5.61442778       1.62074537      24.58417377        2       0.00000000       0.18628180       0.10429214       0.27570879
Pt       1.40360637       4.05186439      24.58417390        2       0.00000000      -0.08595836      -0.13292246       0.24499756
Pt       4.21082088       4.05186403      24.58417379        2       0.00000000      -0.01234701      -0.02189569      -0.09528200
Pt       7.01803504       4.05186408      24.58417406        2       0.00000000       0.08294126      -0.09319641       0.20507522
Pt       2.80721282       6.48298343      24.58417376        2       0.00000000       0.01444280       0.00793214       0.00564778
Pt       5.61442796       6.48298325      24.58417391        2       0.00000000      -0.01445805       0.03122565       0.00655202
Pt       8.42164222       6.48298341      24.58417381        2       0.00000000      -0.01769943      -0.12265594       0.17760687
Pt      -0.01524129      -0.11061637      27.02313187        1       0.00000000       0.00211349       0.01815273      -0.01533639
Pt       2.80405744       0.01882898      26.90539814        1       0.00000000       0.00323964      -0.01308957      -0.00492036
Pt       5.61569794       0.00960862      26.90528009        1       0.00000000      -0.00013439       0.00613344      -0.00116181
Pt       1.53961670       2.39761558      27.31197573        1       0.00000000       0.01930381      -0.01428688       0.01164437
Pt       4.20821888       2.44060237      26.89459129        1       0.00000000       0.00085567      -0.03356759       0.00193888
Pt       6.89325856       2.40751298      27.18869002        1       0.00000000       0.01627018      -0.00458493       0.00261772
Pt       2.81097049       4.85881715      26.89713517        1       0.00000000       0.00365540      -0.01395660       0.00093615
Pt       5.59434539       4.87360335      26.89172710        1       0.00000000      -0.00540690      -0.01085605       0.00161901
Pt       8.41454061       4.99855305      27.02297119        1       0.00000000      -0.00014748      -0.00368493       0.01962747
C        8.40524289       3.33424589      27.93588527        0       1.00000000      -0.02870467      -0.00458572      -0.00603705
H        8.57491304       1.53661953      26.32304685        0       0.00000000       0.04185211      -0.01804395       0.00323012
