38
Lattice="8.421641763931781 0.0 0.0 4.2108208819658905 7.293355709136913 0.0 0.0 0.0 46.87624170604845" Properties=species:S:1:pos:R:3:tags:I:1:initial_magmoms:R:1:forces:R:3 charge=0 spin=0 energy=-197.50844550808193 free_energy=-197.50844550808193 stress="0.009107056073844433 -3.5238184636909864e-07 1.0207954659335883e-07 -3.5238184636909864e-07 0.009108142927289009 5.758531642641174e-07 1.0207954659335883e-07 5.758531642641174e-07 -0.0007796837599016726" pbc="T T T"
Pt      -0.00000012       0.00000002      19.95723426        4       0.00000000       0.00553721       0.00276024       0.02237795
Pt       2.80721404      -0.00000018      19.95723442        4       0.00000000       0.00272388       0.02447766      -0.03709828
Pt       5.61442782      -0.00000007      19.95723448        4       0.00000000      -0.00520481       0.00341613       0.02252420
Pt       1.40360721       2.43111841      19.95723428        4       0.00000000       0.01979397      -0.01459372      -0.03709464
Pt       4.21082083       2.43111835      19.95723436        4       0.00000000      -0.02247031      -0.00981784      -0.03681069
Pt       7.01803478       2.43111845      19.95723424        4       0.00000000      -0.00104749       0.00932572       0.01956311
Pt       2.80721407       4.86223728      19.95723400        4       0.00000000      -0.00033499      -0.00618527       0.02228902
Pt       5.61442803       4.86223733      19.95723419        4       0.00000000       0.00861154      -0.00379162       0.01937141
Pt       8.42164139       4.86223726      19.95723434        4       0.00000000      -0.00756881      -0.00554149       0.01934055
Pt       1.40360728       0.81037259      22.29206791        3       0.00000000       0.04259285       0.02395046      -0.19426045
Pt       4.21082130       0.81037249      22.29206784        3       0.00000000      -0.04217068       0.02481536      -0.19412550
Pt       7.01803471       0.81037256      22.29206781        3       0.00000000      -0.00526995       0.02496116      -0.01836438
Pt       2.80721448       3.24149124      22.29206773        3       0.00000000      -0.00045403      -0.04877063      -0.19442007
Pt       5.61442763       3.24149123      22.29206786        3       0.00000000      -0.08860285      -0.05071443      -0.15094177
Pt       8.42164156       3.24149129      22.29206804        3       0.00000000       0.08833289      -0.05135312      -0.15098448
Pt       4.21082092       5.67260997      22.29206793        3       0.00000000       0.02430949      -0.00792123      -0.01890256
Pt       7.01803487       5.67261037      22.29206776        3       0.00000000       0.00029215       0.10214130      -0.15129241
Pt       9.82524821       5.67261065      22.29206806        3       0.00000000      -0.01905854      -0.01709508      -0.01881403
Pt      -0.00000053       1.62074569      24.58417386        2       0.00000000      -0.20563635       0.14755674       0.33018655
Pt       2.80721443       1.62074549      24.58417398        2       0.00000000      -0.00003162      -0.00007063      -0.22959541
Pt       5.61442778       1.62074537      24.58417377        2       0.00000000       0.20730032       0.14187819       0.33086351
Pt       1.40360637       4.05186439      24.58417390        2       0.00000000      -0.22665106       0.10879232       0.33175403
Pt       4.21082088       4.05186403      24.58417379        2       0.00000000       0.23038681       0.10480166       0.33043328
Pt       7.01803504       4.05186408      24.58417406        2       0.00000000       0.00052005       0.00057690      -0.64363277
Pt       2.80721282       6.48298343      24.58417376        2       0.00000000      -0.00003969       0.00004747       0.02967336
Pt       5.61442796       6.48298325      24.58417391        2       0.00000000       0.01937265      -0.25071338       0.33148149
Pt       8.42164222       6.48298341      24.58417381        2       0.00000000      -0.02473584      -0.25231495       0.33129358
Pt       0.00488304       0.00504644      26.90764091        1       0.00000000      -0.00617869      -0.01005150      -0.01770981
Pt       2.80844266       0.02687864      26.90393158        1       0.00000000      -0.00070304      -0.01355765      -0.00520225
Pt       5.60778032       0.00189675      26.90767800        1       0.00000000       0.01160094      -0.00117807      -0.01784864
Pt       1.42633957       2.41673562      26.90385035        1       0.00000000      -0.01157763       0.00753725      -0.00502386
Pt       4.18699236       2.41880814      26.90377428        1       0.00000000       0.01223248       0.00601810      -0.00470311
Pt       7.01385683       2.32704490      27.29439157        1       0.00000000      -0.00009470       0.00449593       0.00020394
Pt       2.80930800       4.85557681      26.90764617        1       0.00000000      -0.00640754       0.01076560      -0.01780148
Pt       5.52642402       4.91810173      27.29443887        1       0.00000000       0.00281946      -0.00089994      -0.00057171
Pt       8.51406846       4.91076942      27.29449632        1       0.00000000      -0.00092434      -0.00114674      -0.00153189
C        7.01822668       4.05215600      28.18089004        0       1.00000000      -0.00031941      -0.00128880      -0.01805542
H        7.01711230       4.05066057      26.17529612        0       0.00000000      -0.00094433      -0.00131197       0.02343008
