38
Lattice="8.421641763931781 0.0 0.0 4.2108208819658905 7.293355709136913 0.0 0.0 0.0 46.87624170604845" Properties=species:S:1:pos:R:3:tags:I:1:initial_magmoms:R:1:forces:R:3 charge=0 spin=0 energy=-197.93983054836514 free_energy=-197.93983054836514 stress="0.007027236744761467 -1.5231059080633713e-07 1.9343112001024565e-08 -1.5231059080633713e-07 0.0070272344164550304 -2.3702972384853638e-07 1.9343112001024565e-08 -2.3702972384853638e-07 -0.001059642294421792" pbc="T T T"
Pt      -0.00000012       0.00000002      19.95723426        4       0.00000000      -0.00144012      -0.00889332      -0.02573818
Pt       2.80721404      -0.00000018      19.95723442        4       0.00000000      -0.00768314      -0.00322469       0.01826428
Pt       5.61442782      -0.00000007      19.95723448        4       0.00000000       0.00670835      -0.00502449       0.01822749
Pt       1.40360721       2.43111841      19.95723428        4       0.00000000       0.00404575       0.00194645       0.01473480
Pt       4.21082083       2.43111835      19.95723436        4       0.00000000       0.00097733       0.00825777       0.01818326
Pt       7.01803478       2.43111845      19.95723424        4       0.00000000      -0.00034846      -0.00449925       0.01460910
Pt       2.80721407       4.86223728      19.95723400        4       0.00000000       0.00845340       0.00315665      -0.02566212
Pt       5.61442803       4.86223733      19.95723419        4       0.00000000      -0.00701196       0.00572875      -0.02574895
Pt       8.42164139       4.86223726      19.95723434        4       0.00000000      -0.00369614       0.00254977       0.01477445
Pt       1.40360728       0.81037259      22.29206791        3       0.00000000      -0.06896237      -0.04273851      -0.13687569
Pt       4.21082130       0.81037249      22.29206784        3       0.00000000      -0.00000200       0.00000789      -0.22390988
Pt       7.01803471       0.81037256      22.29206781        3       0.00000000       0.05976840      -0.04183697      -0.12930022
Pt       2.80721448       3.24149124      22.29206773        3       0.00000000       0.00627188       0.07274135      -0.12919140
Pt       5.61442763       3.24149123      22.29206786        3       0.00000000      -0.00261230       0.08114237      -0.13668370
Pt       8.42164156       3.24149129      22.29206804        3       0.00000000       0.00000483       0.00000071      -0.11068442
Pt       4.21082092       5.67260997      22.29206793        3       0.00000000      -0.00000110       0.00000309      -0.26884946
Pt       7.01803487       5.67261037      22.29206776        3       0.00000000      -0.06604429      -0.03090459      -0.12884326
Pt       9.82524821       5.67261065      22.29206806        3       0.00000000       0.07158474      -0.03841168      -0.13648809
Pt      -0.00000053       1.62074569      24.58417386        2       0.00000000       0.00767763      -0.00401175      -0.08011819
Pt       2.80721443       1.62074549      24.58417398        2       0.00000000      -0.49458656       0.27798358       0.28574592
Pt       5.61442778       1.62074537      24.58417377        2       0.00000000       0.48799288       0.28934741       0.28558484
Pt       1.40360637       4.05186439      24.58417390        2       0.00000000      -0.00026923       0.00884431      -0.08039074
Pt       4.21082088       4.05186403      24.58417379        2       0.00000000      -0.00379661      -0.12444463       0.26744628
Pt       7.01803504       4.05186408      24.58417406        2       0.00000000      -0.00751968      -0.00481040      -0.08044939
Pt       2.80721282       6.48298343      24.58417376        2       0.00000000      -0.10579646       0.06553448       0.26744819
Pt       5.61442796       6.48298325      24.58417391        2       0.00000000       0.10953331       0.05889160       0.26757982
Pt       8.42164222       6.48298341      24.58417381        2       0.00000000       0.00672921      -0.56732458       0.28544998
Pt       0.00248590       0.00869724      26.89683854        1       0.00000000      -0.01096724      -0.00970320      -0.00374380
Pt       2.68410971      -0.07336170      27.18118602        1       0.00000000      -0.00689906      -0.00285229      -0.00146238
Pt       5.73952049      -0.06992732      27.18119295        1       0.00000000       0.00574531      -0.00446471      -0.00140483
Pt       1.38848514       2.43949772      26.89671118        1       0.00000000       0.00621048       0.00750354      -0.00207123
Pt       4.20884331       2.57440717      27.18119070        1       0.00000000       0.00085236       0.00747491      -0.00148978
Pt       7.03284232       2.43999187      26.89672712        1       0.00000000       0.00341078      -0.00896065      -0.00210218
Pt       2.79841222       4.86008394      26.89685169        1       0.00000000       0.01401481      -0.00493010      -0.00362690
Pt       5.62071352       4.85571024      26.89688055        1       0.00000000      -0.00289654       0.01440686      -0.00372047
Pt       8.42193789       4.84496678      26.89673745        1       0.00000000      -0.00946692       0.00156193      -0.00198596
C        4.21082031       0.81037195      27.90897040        0       1.00000000       0.00001937      -0.00004187       0.00199571
H        4.21081997       0.81037618      25.36173859        0       0.00000000      -0.00000086      -0.00000591      -0.01950273
