38
Lattice="8.421641763931781 0.0 0.0 4.2108208819658905 7.293355709136913 0.0 0.0 0.0 46.87624170604845" Properties=species:S:1:pos:R:3:tags:I:1:initial_magmoms:R:1:forces:R:3 charge=0 spin=0 energy=-197.93908668239834 free_energy=-197.93908668239834 stress="0.007025779224932194 -1.3119725394972193e-07 5.118035328877113e-09 -1.3119725394972193e-07 0.0070251766592264175 -2.7384446710243537e-08 5.118035328877113e-09 -2.7384446710243537e-08 -0.0010193700436502695" pbc="T T T"
Pt      -0.00000012       0.00000002      19.95723426        4       0.00000000      -0.00748158       0.00599955      -0.02557453
Pt       2.80721404      -0.00000018      19.95723442        4       0.00000000      -0.00367919       0.00242391       0.01479705
Pt       5.61442782      -0.00000007      19.95723448        4       0.00000000       0.00892162       0.00343784      -0.02549694
Pt       1.40360721       2.43111841      19.95723428        4       0.00000000      -0.00725097      -0.00274257       0.01779336
Pt       4.21082083       2.43111835      19.95723436        4       0.00000000       0.00607640      -0.00489493       0.01775570
Pt       7.01803478       2.43111845      19.95723424        4       0.00000000      -0.00143982      -0.00943325      -0.02556721
Pt       2.80721407       4.86223728      19.95723400        4       0.00000000       0.00117978       0.00763698       0.01769919
Pt       5.61442803       4.86223733      19.95723419        4       0.00000000      -0.00024428      -0.00441943       0.01463546
Pt       8.42164139       4.86223726      19.95723434        4       0.00000000       0.00392357       0.00199076       0.01475978
Pt       1.40360728       0.81037259      22.29206791        3       0.00000000      -0.06633174      -0.03133060      -0.13137908
Pt       4.21082130       0.81037249      22.29206784        3       0.00000000       0.07216275      -0.03877334      -0.13892779
Pt       7.01803471       0.81037256      22.29206781        3       0.00000000       0.00000422       0.00000938      -0.26968646
Pt       2.80721448       3.24149124      22.29206773        3       0.00000000      -0.00000569       0.00000330      -0.22161756
Pt       5.61442763       3.24149123      22.29206786        3       0.00000000       0.06028806      -0.04187131      -0.13187307
Pt       8.42164156       3.24149129      22.29206804        3       0.00000000      -0.06957963      -0.04305808      -0.13934137
Pt       4.21082092       5.67260997      22.29206793        3       0.00000000      -0.00257922       0.08183801      -0.13914223
Pt       7.01803487       5.67261037      22.29206776        3       0.00000000      -0.00000178      -0.00000917      -0.10852140
Pt       9.82524821       5.67261065      22.29206806        3       0.00000000       0.00605751       0.07319460      -0.13173641
Pt      -0.00000053       1.62074569      24.58417386        2       0.00000000       0.10783398       0.05958898       0.27899852
Pt       2.80721443       1.62074549      24.58417398        2       0.00000000       0.00636691      -0.56879222       0.29056239
Pt       5.61442778       1.62074537      24.58417377        2       0.00000000      -0.10557272       0.06367445       0.27894911
Pt       1.40360637       4.05186439      24.58417390        2       0.00000000      -0.49565062       0.27904114       0.29083464
Pt       4.21082088       4.05186403      24.58417379        2       0.00000000       0.48942271       0.28974879       0.29067487
Pt       7.01803504       4.05186408      24.58417406        2       0.00000000       0.00868035       0.00058019      -0.07332433
Pt       2.80721282       6.48298343      24.58417376        2       0.00000000      -0.00235530      -0.12334073       0.27895412
Pt       5.61442796       6.48298325      24.58417391        2       0.00000000      -0.00404543      -0.00794228      -0.07366493
Pt       8.42164222       6.48298341      24.58417381        2       0.00000000      -0.00474106       0.00743246      -0.07353892
Pt       0.01105236      -0.00759326      26.89842829        1       0.00000000      -0.02543925       0.01706903      -0.01463647
Pt       2.80655592      -0.01116749      26.89732870        1       0.00000000      -0.00464412      -0.03171891      -0.00596650
Pt       5.60230436      -0.00578202      26.89844663        1       0.00000000       0.02762140       0.01331744      -0.01466817
Pt       1.27851480       2.35690807      27.19006858        1       0.00000000      -0.02896422      -0.01248994      -0.02209095
Pt       4.33761730       2.35990439      27.19008481        1       0.00000000       0.02526369      -0.01894502      -0.02211826
Pt       7.01905649       2.44449054      26.89838036        1       0.00000000      -0.00219238      -0.03058005      -0.01464699
Pt       2.80547307       5.00762202      27.19010064        1       0.00000000       0.00371135       0.03258057      -0.02252772
Pt       5.62441402       4.86725079      26.89728028        1       0.00000000       0.02985105       0.01179607      -0.00597639
Pt       8.41229375       4.86839122      26.89729515        1       0.00000000      -0.02512273       0.01997560      -0.00602265
C        2.80720078       3.24152282      27.90602493        0       1.00000000      -0.00004760      -0.00098685       0.03413773
H        2.80721256       3.24149402      25.35766493        0       0.00000000       0.00000385      -0.00001009      -0.00250536
