38
Lattice="8.421641763931781 0.0 0.0 4.2108208819658905 7.293355709136913 0.0 0.0 0.0 46.87624170604845" Properties=species:S:1:pos:R:3:tags:I:1:initial_magmoms:R:1:forces:R:3 charge=0 spin=0 energy=-197.93991065700772 free_energy=-197.93991065700772 stress="0.007024554535746574 3.274016613374897e-09 1.4351607546814193e-07 3.274016613374897e-09 0.007021031808108091 1.0060809927381342e-06 1.4351607546814193e-07 1.0060809927381342e-06 -0.0010912216966971755" pbc="T T T"
Pt      -0.00000012       0.00000002      19.95723426        4       0.00000000       0.00668238      -0.00516031       0.01826380
Pt       2.80721404      -0.00000018      19.95723442        4       0.00000000      -0.00146141      -0.00883614      -0.02591392
Pt       5.61442782      -0.00000007      19.95723448        4       0.00000000      -0.00777233      -0.00315361       0.01829469
Pt       1.40360721       2.43111841      19.95723428        4       0.00000000      -0.00052883      -0.00436738       0.01452055
Pt       4.21082083       2.43111835      19.95723436        4       0.00000000       0.00401070       0.00169921       0.01464807
Pt       7.01803478       2.43111845      19.95723424        4       0.00000000       0.00109427       0.00828016       0.01820213
Pt       2.80721407       4.86223728      19.95723400        4       0.00000000      -0.00347868       0.00262495       0.01469686
Pt       5.61442803       4.86223733      19.95723419        4       0.00000000       0.00841708       0.00310721      -0.02581011
Pt       8.42164139       4.86223726      19.95723434        4       0.00000000      -0.00695558       0.00570954      -0.02590154
Pt       1.40360728       0.81037259      22.29206791        3       0.00000000       0.05983499      -0.04182571      -0.12952894
Pt       4.21082130       0.81037249      22.29206784        3       0.00000000      -0.06923214      -0.04293181      -0.13595632
Pt       7.01803471       0.81037256      22.29206781        3       0.00000000      -0.00000204      -0.00003771      -0.22470893
Pt       2.80721448       3.24149124      22.29206773        3       0.00000000      -0.00001268      -0.00003486      -0.11084326
Pt       5.61442763       3.24149123      22.29206786        3       0.00000000       0.00620772       0.07274272      -0.12943000
Pt       8.42164156       3.24149129      22.29206804        3       0.00000000      -0.00263530       0.08140790      -0.13577051
Pt       4.21082092       5.67260997      22.29206793        3       0.00000000       0.07184287      -0.03859098      -0.13561384
Pt       7.01803487       5.67261037      22.29206776        3       0.00000000      -0.00000107      -0.00000803      -0.26908091
Pt       9.82524821       5.67261065      22.29206806        3       0.00000000      -0.06603786      -0.03104750      -0.12910689
Pt      -0.00000053       1.62074569      24.58417386        2       0.00000000       0.49406707       0.29335675       0.27941340
Pt       2.80721443       1.62074549      24.58417398        2       0.00000000       0.01001887      -0.00454691      -0.08807675
Pt       5.61442778       1.62074537      24.58417377        2       0.00000000      -0.50103629       0.28132796       0.27952993
Pt       1.40360637       4.05186439      24.58417390        2       0.00000000      -0.00921612      -0.00634065      -0.08840842
Pt       4.21082088       4.05186403      24.58417379        2       0.00000000      -0.00087909       0.01134506      -0.08831692
Pt       7.01803504       4.05186408      24.58417406        2       0.00000000      -0.00148343      -0.12721902       0.26230645
Pt       2.80721282       6.48298343      24.58417376        2       0.00000000       0.00714434      -0.57452685       0.27909493
Pt       5.61442796       6.48298325      24.58417391        2       0.00000000      -0.10936910       0.06513938       0.26217768
Pt       8.42164222       6.48298341      24.58417381        2       0.00000000       0.11080805       0.06251115       0.26221895
Pt       0.12409627      -0.07122696      27.18028610        1       0.00000000      -0.01613195       0.00527620       0.00795405
Pt       2.80701599       0.00771199      26.89478468        1       0.00000000       0.00419670      -0.00487113       0.00393744
Pt       5.49048397      -0.07145568      27.18030126        1       0.00000000       0.01345862       0.01098947       0.00811109
Pt       1.42013376       2.43743029      26.89436730        1       0.00000000      -0.00316912       0.00014599       0.00612242
Pt       4.19729723       2.44256379      26.89436681        1       0.00000000       0.00142059      -0.00284841       0.00612300
Pt       7.01792939       2.57447500      27.18021134        1       0.00000000       0.00310015      -0.01281849       0.00664489
Pt       2.80426832       4.84514976      26.89440398        1       0.00000000       0.00184614       0.00260402       0.00618539
Pt       5.60807437       4.85850910      26.89475409        1       0.00000000       0.00181860       0.00616095       0.00408710
Pt       8.42823896       4.85886810      26.89476120        1       0.00000000      -0.00610004      -0.00121987       0.00407043
C        7.01808053       0.81086440      27.91224477        0       1.00000000      -0.00048398      -0.00411603      -0.02860259
H        7.01802275       0.81030280      25.35836064        0       0.00000000       0.00001790       0.00007271      -0.00553328
