38
Lattice="8.421641763931781 0.0 0.0 4.2108208819658905 7.293355709136913 0.0 0.0 0.0 46.87624170604845" Properties=species:S:1:pos:R:3:tags:I:1:initial_magmoms:R:1:forces:R:3 charge=0 spin=0 energy=-192.903142697413 free_energy=-192.903142697413 stress="0.010230039246380329 -1.1306013192324826e-07 9.208799056636963e-09 -1.1306013192324826e-07 0.010230034589767456 -6.069188263069236e-09 9.208799056636963e-09 -6.069188263069236e-09 -7.245899905683473e-05" pbc="T T T"
Pt      -0.00000012       0.00000002      19.95723426        4       0.00000000       0.00000247      -0.00000099      -0.01058827
Pt       2.80721404      -0.00000018      19.95723442        4       0.00000000      -0.00436189      -0.00080569       0.01717771
Pt       5.61442782      -0.00000007      19.95723448        4       0.00000000       0.00336060       0.00125653       0.01644156
Pt       1.40360721       2.43111841      19.95723428        4       0.00000000      -0.00060165      -0.00353387       0.01647678
Pt       4.21082083       2.43111835      19.95723436        4       0.00000000       0.00000218       0.00000161       0.01367867
Pt       7.01803478       2.43111845      19.95723424        4       0.00000000       0.00287957      -0.00337534       0.01719940
Pt       2.80721407       4.86223728      19.95723400        4       0.00000000       0.00148073       0.00418166       0.01719669
Pt       5.61442803       4.86223733      19.95723419        4       0.00000000      -0.00276138       0.00227885       0.01644243
Pt       8.42164139       4.86223726      19.95723434        4       0.00000000       0.00000167      -0.00000474       0.01532945
Pt       1.40360728       0.81037259      22.29206791        3       0.00000000      -0.00377022      -0.00332158      -0.03999405
Pt       4.21082130       0.81037249      22.29206784        3       0.00000000      -0.00041106       0.00116400      -0.05310822
Pt       7.01803471       0.81037256      22.29206781        3       0.00000000       0.00479978      -0.00160233      -0.04001256
Pt       2.80721448       3.24149124      22.29206773        3       0.00000000       0.00121600      -0.00020021      -0.05309430
Pt       5.61442763       3.24149123      22.29206786        3       0.00000000      -0.00081370      -0.00095636      -0.05311608
Pt       8.42164156       3.24149129      22.29206804        3       0.00000000       0.00148361       0.00369231      -0.05281646
Pt       4.21082092       5.67260997      22.29206793        3       0.00000000      -0.00103340       0.00493393      -0.04000500
Pt       7.01803487       5.67261037      22.29206776        3       0.00000000       0.00242571      -0.00312313      -0.05281982
Pt       9.82524821       5.67261065      22.29206806        3       0.00000000      -0.00389930      -0.00058490      -0.05282328
Pt      -0.00000053       1.62074569      24.58417386        2       0.00000000       0.00281192      -0.01020862       0.04054065
Pt       2.80721443       1.62074549      24.58417398        2       0.00000000      -0.01135357      -0.00626087       0.03709900
Pt       5.61442778       1.62074537      24.58417377        2       0.00000000       0.01110186      -0.00670001       0.03714103
Pt       1.40360637       4.05186439      24.58417390        2       0.00000000      -0.00900489      -0.00254190       0.05936901
Pt       4.21082088       4.05186403      24.58417379        2       0.00000000       0.00026521       0.01298125       0.03716911
Pt       7.01803504       4.05186408      24.58417406        2       0.00000000       0.00226547       0.00910673       0.05937010
Pt       2.80721282       6.48298343      24.58417376        2       0.00000000       0.00747737       0.00754752       0.04063154
Pt       5.61442796       6.48298325      24.58417391        2       0.00000000      -0.01028314       0.00264625       0.04059179
Pt       8.42164222       6.48298341      24.58417381        2       0.00000000       0.00672910      -0.00657310       0.05939674
Pt      -0.00000655      -0.00000102      26.92612192        1       0.00000000       0.00000928       0.00001074      -0.02825410
Pt       2.80385359      -0.01083761      26.92150544        1       0.00000000      -0.00438145      -0.00490105      -0.01041992
Pt       5.62140502      -0.00944981      26.92151789        1       0.00000000      -0.00052803      -0.00694085      -0.00977544
Pt       1.39192702       2.42979073      26.92152262        1       0.00000000      -0.00575403       0.00393893      -0.00976049
Pt       4.21082004       2.43112071      26.90124267        1       0.00000000       0.00000024      -0.00000079       0.03182562
Pt       7.02909597       2.43363954      26.92150423        1       0.00000000       0.00642703      -0.00133153      -0.01042811
Pt       2.79951072       4.87055832      26.92150073        1       0.00000000      -0.00204753       0.00622891      -0.01042224
Pt       5.61913035       4.87301664      26.92152861        1       0.00000000       0.00627242       0.00301007      -0.00974401
Pt       8.42164590       4.86223913      26.92543948        1       0.00000000      -0.00000748      -0.00000959      -0.02470506
C        4.21082039       2.43112081      29.93894803        0       1.00000000      -0.00000208       0.00000690      -0.00343103
H        4.21082145       2.43111576      28.76323618        0       0.00000000       0.00000258      -0.00000844      -0.00775867
