38
Lattice="8.421641763931781 0.0 0.0 4.2108208819658905 7.293355709136913 0.0 0.0 0.0 46.87624170604845" Properties=species:S:1:pos:R:3:tags:I:1:initial_magmoms:R:1:forces:R:3 charge=0 spin=0 energy=-197.50808501919033 free_energy=-197.50808501919033 stress="0.009057426825165749 -1.3432168088911567e-07 5.934831293075149e-09 -1.3432168088911567e-07 0.00905738864094019 5.4758995560177937e-08 5.934831293075149e-09 5.4758995560177937e-08 -0.0008545759483240545" pbc="T T T"
Pt      -0.00000012       0.00000002      19.95723426        4       0.00000000      -0.00503318       0.00329125       0.02215632
Pt       2.80721404      -0.00000018      19.95723442        4       0.00000000       0.00533105       0.00268839       0.02199343
Pt       5.61442782      -0.00000007      19.95723448        4       0.00000000       0.00291373       0.02441294      -0.03721690
Pt       1.40360721       2.43111841      19.95723428        4       0.00000000      -0.00103246       0.00917363       0.01908901
Pt       4.21082083       2.43111835      19.95723436        4       0.00000000       0.01967785      -0.01473354      -0.03725581
Pt       7.01803478       2.43111845      19.95723424        4       0.00000000      -0.02259050      -0.00967173      -0.03704341
Pt       2.80721407       4.86223728      19.95723400        4       0.00000000      -0.00743751      -0.00544654       0.01883843
Pt       5.61442803       4.86223733      19.95723419        4       0.00000000      -0.00030002      -0.00598193       0.02191468
Pt       8.42164139       4.86223726      19.95723434        4       0.00000000       0.00847304      -0.00373441       0.01889509
Pt       1.40360728       0.81037259      22.29206791        3       0.00000000      -0.00537286       0.02541621      -0.01668486
Pt       4.21082130       0.81037249      22.29206784        3       0.00000000       0.04261197       0.02395938      -0.19712625
Pt       7.01803471       0.81037256      22.29206781        3       0.00000000      -0.04215046       0.02482344      -0.19699174
Pt       2.80721448       3.24149124      22.29206773        3       0.00000000       0.08896218      -0.05149058      -0.14873344
Pt       5.61442763       3.24149123      22.29206786        3       0.00000000      -0.00045196      -0.04877256      -0.19726458
Pt       8.42164156       3.24149129      22.29206804        3       0.00000000      -0.08906946      -0.05120837      -0.14868157
Pt       4.21082092       5.67260997      22.29206793        3       0.00000000      -0.01938958      -0.01737367      -0.01717330
Pt       7.01803487       5.67261037      22.29206776        3       0.00000000       0.02475640      -0.00804422      -0.01724677
Pt       9.82524821       5.67261065      22.29206806        3       0.00000000       0.00010260       0.10268745      -0.14903225
Pt      -0.00000053       1.62074569      24.58417386        2       0.00000000       0.20971557       0.15360846       0.31615949
Pt       2.80721443       1.62074549      24.58417398        2       0.00000000      -0.20917101       0.15680714       0.31734157
Pt       5.61442778       1.62074537      24.58417377        2       0.00000000      -0.00000538       0.00002818      -0.21586552
Pt       1.40360637       4.05186439      24.58417390        2       0.00000000       0.00001295      -0.00000917      -0.59256798
Pt       4.21082088       4.05186403      24.58417379        2       0.00000000      -0.23774134       0.10493075       0.31645781
Pt       7.01803504       4.05186408      24.58417406        2       0.00000000       0.24020457       0.10300186       0.31782064
Pt       2.80721282       6.48298343      24.58417376        2       0.00000000      -0.03100197      -0.25981316       0.31786871
Pt       5.61442796       6.48298325      24.58417391        2       0.00000000       0.00000524      -0.00001298      -0.01356449
Pt       8.42164222       6.48298341      24.58417381        2       0.00000000       0.02799513      -0.25854760       0.31634662
Pt      -0.00193775       0.00076624      26.89637428        1       0.00000000      -0.01506400       0.01164073       0.01896859
Pt       2.80885677       0.00130775      26.89637745        1       0.00000000       0.01759412       0.00717182       0.01896210
Pt       5.61622869       0.01980036      26.90115622        1       0.00000000      -0.00285534       0.03320539      -0.00317424
Pt       1.40195601       2.32778775      27.29850312        1       0.00000000      -0.00589500      -0.03232607      -0.01025672
Pt       4.22706995       2.41966568      26.90119177        1       0.00000000       0.03010006      -0.01429383      -0.00337173
Pt       6.99998297       2.42277949      26.90118444        1       0.00000000      -0.02739000      -0.01893910      -0.00335268
Pt       2.89752701       4.91247023      27.29850194        1       0.00000000       0.03093299       0.01106246      -0.01025290
Pt       5.61473889       4.86016095      26.89637922        1       0.00000000      -0.00239222      -0.01880532       0.01885417
Pt       8.33298568       4.91533199      27.29849813        1       0.00000000      -0.02504838       0.02126423      -0.01025010
C        9.82524944       4.05186089      28.18219985        0       1.00000000       0.00001505       0.00003023       0.01094594
H        9.82523544       4.05186261      26.17950653        0       0.00000000      -0.00001195       0.00000077      -0.02950539
