38
Lattice="8.421641763931781 0.0 0.0 4.2108208819658905 7.293355709136913 0.0 0.0 0.0 46.87624170604845" Properties=species:S:1:pos:R:3:tags:I:1:initial_magmoms:R:1:forces:R:3 charge=0 spin=0 energy=-197.50847984035732 free_energy=-197.50847984035732 stress="0.009098644368350506 -1.498457606885495e-07 -2.3363557755118336e-09 -1.498457606885495e-07 0.009098590351641178 7.610745456076984e-08 -2.3363557755118336e-09 7.610745456076984e-08 -0.0007910734275355935" pbc="T T T"
Pt      -0.00000012       0.00000002      19.95723426        4       0.00000000       0.00549131       0.00281814       0.02235074
Pt       2.80721404      -0.00000018      19.95723442        4       0.00000000       0.00276646       0.02442301      -0.03706273
Pt       5.61442782      -0.00000007      19.95723448        4       0.00000000      -0.00522831       0.00336442       0.02249684
Pt       1.40360721       2.43111841      19.95723428        4       0.00000000       0.01975675      -0.01461435      -0.03709587
Pt       4.21082083       2.43111835      19.95723436        4       0.00000000      -0.02252194      -0.00980090      -0.03687863
Pt       7.01803478       2.43111845      19.95723424        4       0.00000000      -0.00099661       0.00929803       0.01955947
Pt       2.80721407       4.86223728      19.95723400        4       0.00000000      -0.00025956      -0.00618285       0.02226684
Pt       5.61442803       4.86223733      19.95723419        4       0.00000000       0.00855981      -0.00382629       0.01936636
Pt       8.42164139       4.86223726      19.95723434        4       0.00000000      -0.00756661      -0.00547695       0.01931095
Pt       1.40360728       0.81037259      22.29206791        3       0.00000000       0.04278285       0.02411954      -0.19443738
Pt       4.21082130       0.81037249      22.29206784        3       0.00000000      -0.04238481       0.02489223      -0.19430096
Pt       7.01803471       0.81037256      22.29206781        3       0.00000000      -0.00538096       0.02505707      -0.01807033
Pt       2.80721448       3.24149124      22.29206773        3       0.00000000      -0.00040448      -0.04899632      -0.19458568
Pt       5.61442763       3.24149123      22.29206786        3       0.00000000      -0.08869138      -0.05080916      -0.15106235
Pt       8.42164156       3.24149129      22.29206804        3       0.00000000       0.08844241      -0.05135235      -0.15111963
Pt       4.21082092       5.67260997      22.29206793        3       0.00000000       0.02444883      -0.00784709      -0.01864141
Pt       7.01803487       5.67261037      22.29206776        3       0.00000000       0.00024719       0.10216790      -0.15139934
Pt       9.82524821       5.67261065      22.29206806        3       0.00000000      -0.01905845      -0.01721938      -0.01857389
Pt      -0.00000053       1.62074569      24.58417386        2       0.00000000      -0.20640762       0.14750259       0.33100981
Pt       2.80721443       1.62074549      24.58417398        2       0.00000000      -0.00000988      -0.00003284      -0.23459475
Pt       5.61442778       1.62074537      24.58417377        2       0.00000000       0.20879441       0.14277816       0.32873288
Pt       1.40360637       4.05186439      24.58417390        2       0.00000000      -0.22791600       0.10951961       0.32903188
Pt       4.21082088       4.05186403      24.58417379        2       0.00000000       0.23081937       0.10525656       0.33139226
Pt       7.01803504       4.05186408      24.58417406        2       0.00000000       0.00003887       0.00003876      -0.64001352
Pt       2.80721282       6.48298343      24.58417376        2       0.00000000       0.00001014       0.00003422       0.02688078
Pt       5.61442796       6.48298325      24.58417391        2       0.00000000       0.01913169      -0.25230381       0.32898310
Pt       8.42164222       6.48298341      24.58417381        2       0.00000000      -0.02443499      -0.25275856       0.33161154
Pt       0.00477058       0.00363115      26.90738449        1       0.00000000      -0.00748151      -0.00180099      -0.01679582
Pt       2.80706005       0.02709741      26.90279601        1       0.00000000       0.00451073      -0.01665200      -0.00142353
Pt       5.60888660       0.00232396      26.90736862        1       0.00000000       0.00536091      -0.00551725      -0.01676666
Pt       1.42713311       2.41767513      26.90275971        1       0.00000000      -0.01669920       0.00443628      -0.00140664
Pt       4.18741703       2.41747093      26.90274598        1       0.00000000       0.01216557       0.01221496      -0.00136499
Pt       7.01391886       2.32682279      27.29538274        1       0.00000000       0.00257900      -0.00282858      -0.00406861
Pt       2.80801282       4.85629528      26.90733896        1       0.00000000       0.00214372       0.00738166      -0.01675082
Pt       5.52617214       4.91797339      27.29538357        1       0.00000000      -0.00356887      -0.00091322      -0.00398650
Pt       8.51406934       4.91083737      27.29539447        1       0.00000000       0.00101660       0.00355143      -0.00405092
C        7.01806359       4.05187294      28.18019507        0       1.00000000       0.00001511       0.00013947      -0.00912372
H        7.01797192       4.05180013      26.17534429        0       0.00000000      -0.00007055      -0.00006093       0.02058119
