38
Lattice="8.421641763931781 0.0 0.0 4.2108208819658905 7.293355709136913 0.0 0.0 0.0 46.87624170604845" Properties=species:S:1:pos:R:3:tags:I:1:initial_magmoms:R:1:forces:R:3 charge=0 spin=0 energy=-197.50848174770596 free_energy=-197.50848174770596 stress="0.009098684415221214 -1.5721539625701553e-07 -3.4623310884995817e-09 -1.5721539625701553e-07 0.009098648093640804 7.450036321188236e-08 -3.4623310884995817e-09 7.450036321188236e-08 -0.0007911628927104175" pbc="T T T"
Pt      -0.00000012       0.00000002      19.95723426        4       0.00000000      -0.00756663      -0.00547344       0.01931110
Pt       2.80721404      -0.00000018      19.95723442        4       0.00000000      -0.00026243      -0.00617705       0.02225721
Pt       5.61442782      -0.00000007      19.95723448        4       0.00000000       0.00856198      -0.00381971       0.01935720
Pt       1.40360721       2.43111841      19.95723428        4       0.00000000      -0.00522938       0.00336224       0.02250694
Pt       4.21082083       2.43111835      19.95723436        4       0.00000000       0.00549185       0.00282130       0.02235191
Pt       7.01803478       2.43111845      19.95723424        4       0.00000000       0.00276705       0.02442115      -0.03705346
Pt       2.80721407       4.86223728      19.95723400        4       0.00000000      -0.00099414       0.00929423       0.01955989
Pt       5.61442803       4.86223733      19.95723419        4       0.00000000       0.01975559      -0.01461890      -0.03709695
Pt       8.42164139       4.86223726      19.95723434        4       0.00000000      -0.02252249      -0.00980704      -0.03688060
Pt       1.40360728       0.81037259      22.29206791        3       0.00000000      -0.01906902      -0.01720547      -0.01857349
Pt       4.21082130       0.81037249      22.29206784        3       0.00000000       0.02444924      -0.00784255      -0.01864179
Pt       7.01803471       0.81037256      22.29206781        3       0.00000000       0.00025104       0.10217821      -0.15139908
Pt       2.80721448       3.24149124      22.29206773        3       0.00000000      -0.00538958       0.02505565      -0.01807315
Pt       5.61442763       3.24149123      22.29206786        3       0.00000000       0.04278883       0.02411686      -0.19443619
Pt       8.42164156       3.24149129      22.29206804        3       0.00000000      -0.04238080       0.02488568      -0.19430146
Pt       4.21082092       5.67260997      22.29206793        3       0.00000000       0.08843617      -0.05135138      -0.15111509
Pt       7.01803487       5.67261037      22.29206776        3       0.00000000      -0.00040193      -0.04900517      -0.19457978
Pt       9.82524821       5.67261065      22.29206806        3       0.00000000      -0.08868770      -0.05082148      -0.15105639
Pt      -0.00000053       1.62074569      24.58417386        2       0.00000000      -0.02442111      -0.25276449       0.33159214
Pt       2.80721443       1.62074549      24.58417398        2       0.00000000      -0.00000629       0.00004209       0.02688044
Pt       5.61442778       1.62074537      24.58417377        2       0.00000000       0.01913782      -0.25230968       0.32896832
Pt       1.40360637       4.05186439      24.58417390        2       0.00000000       0.20880845       0.14277482       0.32871354
Pt       4.21082088       4.05186403      24.58417379        2       0.00000000      -0.20642221       0.14751241       0.33099434
Pt       7.01803504       4.05186408      24.58417406        2       0.00000000      -0.00000646      -0.00003320      -0.23466203
Pt       2.80721282       6.48298343      24.58417376        2       0.00000000       0.00005246       0.00003011      -0.64008319
Pt       5.61442796       6.48298325      24.58417391        2       0.00000000      -0.22793460       0.10952786       0.32902166
Pt       8.42164222       6.48298341      24.58417381        2       0.00000000       0.23082070       0.10525396       0.33138010
Pt       0.09242344       0.04859635      27.29538978        1       0.00000000       0.00097876       0.00353107      -0.00403192
Pt       2.80801328      -0.00595021      26.90733251        1       0.00000000       0.00214040       0.00742772      -0.01672716
Pt       5.52617497       0.05573478      27.29538329        1       0.00000000      -0.00350367      -0.00094968      -0.00395546
Pt       1.39805989       2.43344669      26.90736008        1       0.00000000       0.00539515      -0.00554487      -0.01674213
Pt       4.21559882       2.43475317      26.90737755        1       0.00000000      -0.00752548      -0.00181879      -0.01676740
Pt       7.01788154       2.45822181      26.90278875        1       0.00000000       0.00451108      -0.01670402      -0.00138657
Pt       2.80309661       4.75794607      27.29537750        1       0.00000000       0.00258506      -0.00276507      -0.00403998
Pt       5.63795841       4.84878948      26.90275108        1       0.00000000      -0.01674466       0.00446428      -0.00137027
Pt       8.39823126       4.84858790      26.90273782        1       0.00000000       0.01221323       0.01223695      -0.00132892
C       11.22888554       6.48299074      28.18021636        0       1.00000000      -0.00000427       0.00013575      -0.00925595
H       11.22879248       6.48291958      26.17533989        0       0.00000000      -0.00007198      -0.00006016       0.02066307
