38
Lattice="8.421641763931781 0.0 0.0 4.2108208819658905 7.293355709136913 0.0 0.0 0.0 46.87624170604845" Properties=species:S:1:pos:R:3:tags:I:1:initial_magmoms:R:1:forces:R:3 charge=0 spin=0 energy=-192.903142697413 free_energy=-192.903142697413 stress="0.010230024345219135 -1.1280933165380702e-07 6.834966814750487e-09 -1.1280933165380702e-07 0.010230017825961113 -8.389430483646265e-09 6.834966814750487e-09 -8.389430483646265e-09 -7.246460882015526e-05" pbc="T T T"
Pt      -0.00000012       0.00000002      19.95723426        4       0.00000000      -0.00435803      -0.00080930       0.01718628
Pt       2.80721404      -0.00000018      19.95723442        4       0.00000000       0.00335891       0.00125579       0.01644109
Pt       5.61442782      -0.00000007      19.95723448        4       0.00000000       0.00000034       0.00000331      -0.01059683
Pt       1.40360721       2.43111841      19.95723428        4       0.00000000      -0.00000078       0.00000076       0.01367859
Pt       4.21082083       2.43111835      19.95723436        4       0.00000000       0.00288308      -0.00337428       0.01719989
Pt       7.01803478       2.43111845      19.95723424        4       0.00000000      -0.00060219      -0.00353394       0.01647593
Pt       2.80721407       4.86223728      19.95723400        4       0.00000000      -0.00275805       0.00227897       0.01644306
Pt       5.61442803       4.86223733      19.95723419        4       0.00000000      -0.00000178      -0.00000363       0.01532984
Pt       8.42164139       4.86223726      19.95723434        4       0.00000000       0.00148073       0.00418042       0.01719563
Pt       1.40360728       0.81037259      22.29206791        3       0.00000000      -0.00041248       0.00116025      -0.05310945
Pt       4.21082130       0.81037249      22.29206784        3       0.00000000       0.00479641      -0.00159916      -0.04001258
Pt       7.01803471       0.81037256      22.29206781        3       0.00000000      -0.00376520      -0.00332101      -0.03999428
Pt       2.80721448       3.24149124      22.29206773        3       0.00000000      -0.00082294      -0.00095484      -0.05311470
Pt       5.61442763       3.24149123      22.29206786        3       0.00000000       0.00148233       0.00369148      -0.05281579
Pt       8.42164156       3.24149129      22.29206804        3       0.00000000       0.00122625      -0.00020098      -0.05309516
Pt       4.21082092       5.67260997      22.29206793        3       0.00000000       0.00242662      -0.00311541      -0.05282129
Pt       7.01803487       5.67261037      22.29206776        3       0.00000000      -0.00390867      -0.00057994      -0.05282116
Pt       9.82524821       5.67261065      22.29206806        3       0.00000000      -0.00102459       0.00492038      -0.04000574
Pt      -0.00000053       1.62074569      24.58417386        2       0.00000000      -0.01134812      -0.00626460       0.03709608
Pt       2.80721443       1.62074549      24.58417398        2       0.00000000       0.01109534      -0.00670173       0.03713546
Pt       5.61442778       1.62074537      24.58417377        2       0.00000000       0.00281203      -0.01020164       0.04054195
Pt       1.40360637       4.05186439      24.58417390        2       0.00000000       0.00027108       0.01297602       0.03716167
Pt       4.21082088       4.05186403      24.58417379        2       0.00000000       0.00226744       0.00910742       0.05936728
Pt       7.01803504       4.05186408      24.58417406        2       0.00000000      -0.00901228      -0.00253851       0.05937095
Pt       2.80721282       6.48298343      24.58417376        2       0.00000000      -0.01026762       0.00264162       0.04059241
Pt       5.61442796       6.48298325      24.58417391        2       0.00000000       0.00673214      -0.00656934       0.05939032
Pt       8.42164222       6.48298341      24.58417381        2       0.00000000       0.00745807       0.00754781       0.04063120
Pt      -0.00336038      -0.01083746      26.92150465        1       0.00000000      -0.00438050      -0.00490397      -0.01042177
Pt       2.81419134      -0.00945024      26.92151677        1       0.00000000      -0.00052855      -0.00694107      -0.00977005
Pt       5.61442142      -0.00000077      26.92612310        1       0.00000000       0.00000934       0.00000885      -0.02824946
Pt       1.40360595       2.43112041      26.90124204        1       0.00000000      -0.00000188      -0.00000056       0.03183655
Pt       4.22188236       2.43363928      26.92150413        1       0.00000000       0.00642772      -0.00133084      -0.01042745
Pt       7.00635485       2.42979064      26.92152324        1       0.00000000      -0.00575179       0.00393903      -0.00976634
Pt       2.81191594       4.87301660      26.92152831        1       0.00000000       0.00627161       0.00301394      -0.00974353
Pt       5.61443238       4.86223878      26.92543867        1       0.00000000      -0.00000860      -0.00000954      -0.02469821
Pt       8.41393871       4.87055821      26.92150119        1       0.00000000      -0.00204697       0.00622896      -0.01042075
C        1.40360701       2.43112230      29.93894818        0       1.00000000       0.00000055       0.00001025      -0.00346691
H        1.40360752       2.43111536      28.76323548        0       0.00000000       0.00000109      -0.00001082      -0.00772263
