38
Lattice="8.421641763931781 0.0 0.0 4.2108208819658905 7.293355709136913 0.0 0.0 0.0 46.87624170604845" Properties=species:S:1:pos:R:3:tags:I:1:initial_magmoms:R:1:forces:R:3 charge=0 spin=0 energy=-197.5084836550546 free_energy=-197.5084836550546 stress="0.009098632261157036 -1.551731116933297e-07 -1.9297792253070156e-09 -1.551731116933297e-07 0.009098606184124947 7.756442954587328e-08 -1.9297792253070156e-09 7.756442954587328e-08 -0.0007911204011179507" pbc="T T T"
Pt      -0.00000012       0.00000002      19.95723426        4       0.00000000       0.00549141       0.00281853       0.02235094
Pt       2.80721404      -0.00000018      19.95723442        4       0.00000000       0.00276650       0.02442283      -0.03706241
Pt       5.61442782      -0.00000007      19.95723448        4       0.00000000      -0.00522868       0.00336464       0.02249695
Pt       1.40360721       2.43111841      19.95723428        4       0.00000000       0.01975657      -0.01461455      -0.03709604
Pt       4.21082083       2.43111835      19.95723436        4       0.00000000      -0.02252175      -0.00980075      -0.03687903
Pt       7.01803478       2.43111845      19.95723424        4       0.00000000      -0.00099646       0.00929814       0.01955919
Pt       2.80721407       4.86223728      19.95723400        4       0.00000000      -0.00025945      -0.00618296       0.02226697
Pt       5.61442803       4.86223733      19.95723419        4       0.00000000       0.00855971      -0.00382652       0.01936632
Pt       8.42164139       4.86223726      19.95723434        4       0.00000000      -0.00756674      -0.00547697       0.01931101
Pt       1.40360728       0.81037259      22.29206791        3       0.00000000       0.04278284       0.02411747      -0.19443280
Pt       4.21082130       0.81037249      22.29206784        3       0.00000000      -0.04238463       0.02489260      -0.19429964
Pt       7.01803471       0.81037256      22.29206781        3       0.00000000      -0.00538105       0.02505708      -0.01807065
Pt       2.80721448       3.24149124      22.29206773        3       0.00000000      -0.00040753      -0.04899692      -0.19458538
Pt       5.61442763       3.24149123      22.29206786        3       0.00000000      -0.08869121      -0.05080931      -0.15106136
Pt       8.42164156       3.24149129      22.29206804        3       0.00000000       0.08844200      -0.05135234      -0.15111887
Pt       4.21082092       5.67260997      22.29206793        3       0.00000000       0.02444901      -0.00784772      -0.01864223
Pt       7.01803487       5.67261037      22.29206776        3       0.00000000       0.00024676       0.10216770      -0.15139902
Pt       9.82524821       5.67261065      22.29206806        3       0.00000000      -0.01905816      -0.01722030      -0.01857446
Pt      -0.00000053       1.62074569      24.58417386        2       0.00000000      -0.20640874       0.14750293       0.33100277
Pt       2.80721443       1.62074549      24.58417398        2       0.00000000      -0.00000937      -0.00003260      -0.23461519
Pt       5.61442778       1.62074537      24.58417377        2       0.00000000       0.20879570       0.14277649       0.32872841
Pt       1.40360637       4.05186439      24.58417390        2       0.00000000      -0.22791702       0.10952158       0.32902756
Pt       4.21082088       4.05186403      24.58417379        2       0.00000000       0.23081981       0.10525832       0.33138523
Pt       7.01803504       4.05186408      24.58417406        2       0.00000000       0.00003858       0.00003877      -0.64005911
Pt       2.80721282       6.48298343      24.58417376        2       0.00000000       0.00000931       0.00003454       0.02688275
Pt       5.61442796       6.48298325      24.58417391        2       0.00000000       0.01913017      -0.25230527       0.32897884
Pt       8.42164222       6.48298341      24.58417381        2       0.00000000      -0.02443229      -0.25275847       0.33160880
Pt       0.00477198       0.00363279      26.90738331        1       0.00000000      -0.00749040      -0.00181139      -0.01678759
Pt       2.80706054       0.02709965      26.90279463        1       0.00000000       0.00451004      -0.01666502      -0.00141369
Pt       5.60888498       0.00232552      26.90736738        1       0.00000000       0.00536967      -0.00552837      -0.01676314
Pt       1.42713474       2.41767392      26.90275724        1       0.00000000      -0.01671171       0.00444367      -0.00139752
Pt       4.18741505       2.41747048      26.90274429        1       0.00000000       0.01217859       0.01222057      -0.00135570
Pt       7.01391840       2.32682495      27.29537735        1       0.00000000       0.00257908      -0.00279684      -0.00404829
Pt       2.80801309       4.85629261      26.90733709        1       0.00000000       0.00213947       0.00739714      -0.01674171
Pt       5.52617445       4.91797266      27.29537843        1       0.00000000      -0.00355751      -0.00091660      -0.00397234
Pt       8.51406596       4.91083538      27.29538826        1       0.00000000       0.00103515       0.00355883      -0.00405113
C        7.01806449       4.05187400      28.18020092        0       1.00000000      -0.00000711       0.00011456      -0.00915621
H        7.01797266       4.05179909      26.17534293        0       0.00000000      -0.00007062      -0.00006348       0.02061774
