38
Lattice="8.421641763931781 0.0 0.0 4.2108208819658905 7.293355709136913 0.0 0.0 0.0 46.87624170604845" Properties=species:S:1:pos:R:3:tags:I:1:initial_magmoms:R:1:forces:R:3 charge=0 spin=0 energy=-197.5080888338876 free_energy=-197.5080888338876 stress="0.00905740074813366 -1.3668064013927506e-07 1.1759632156937982e-09 -1.3668064013927506e-07 0.009057379327714443 5.5415522837165554e-08 1.1759632156937982e-09 5.5415522837165554e-08 -0.0008546017925255001" pbc="T T T"
Pt      -0.00000012       0.00000002      19.95723426        4       0.00000000      -0.00029606      -0.00597925       0.02191417
Pt       2.80721404      -0.00000018      19.95723442        4       0.00000000       0.00847001      -0.00372718       0.01888583
Pt       5.61442782      -0.00000007      19.95723448        4       0.00000000      -0.00743919      -0.00543984       0.01882847
Pt       1.40360721       2.43111841      19.95723428        4       0.00000000       0.00533215       0.00268704       0.02200356
Pt       4.21082083       2.43111835      19.95723436        4       0.00000000       0.00291602       0.02441124      -0.03720711
Pt       7.01803478       2.43111845      19.95723424        4       0.00000000      -0.00503653       0.00329343       0.02215683
Pt       2.80721407       4.86223728      19.95723400        4       0.00000000       0.01967679      -0.01473889      -0.03725624
Pt       5.61442803       4.86223733      19.95723419        4       0.00000000      -0.02259079      -0.00967621      -0.03704360
Pt       8.42164139       4.86223726      19.95723434        4       0.00000000      -0.00103010       0.00916804       0.01908712
Pt       1.40360728       0.81037259      22.29206791        3       0.00000000       0.02475660      -0.00803489      -0.01724833
Pt       4.21082130       0.81037249      22.29206784        3       0.00000000       0.00009410       0.10270659      -0.14903003
Pt       7.01803471       0.81037256      22.29206781        3       0.00000000      -0.01938585      -0.01737263      -0.01717330
Pt       2.80721448       3.24149124      22.29206773        3       0.00000000       0.04260518       0.02395358      -0.19712511
Pt       5.61442763       3.24149123      22.29206786        3       0.00000000      -0.04214859       0.02481883      -0.19699021
Pt       8.42164156       3.24149129      22.29206804        3       0.00000000      -0.00536555       0.02541411      -0.01668959
Pt       4.21082092       5.67260997      22.29206793        3       0.00000000      -0.00045860      -0.04877092      -0.19726506
Pt       7.01803487       5.67261037      22.29206776        3       0.00000000      -0.08907595      -0.05121577      -0.14867483
Pt       9.82524821       5.67261065      22.29206806        3       0.00000000       0.08897688      -0.05150415      -0.14873061
Pt      -0.00000053       1.62074569      24.58417386        2       0.00000000       0.00001173      -0.00001092      -0.01357083
Pt       2.80721443       1.62074549      24.58417398        2       0.00000000       0.02800076      -0.25853923       0.31633770
Pt       5.61442778       1.62074537      24.58417377        2       0.00000000      -0.03101597      -0.25980285       0.31786188
Pt       1.40360637       4.05186439      24.58417390        2       0.00000000      -0.20915842       0.15680256       0.31733084
Pt       4.21082088       4.05186403      24.58417379        2       0.00000000      -0.00000700       0.00002609      -0.21586373
Pt       7.01803504       4.05186408      24.58417406        2       0.00000000       0.20970774       0.15361448       0.31615207
Pt       2.80721282       6.48298343      24.58417376        2       0.00000000      -0.23773177       0.10491784       0.31644937
Pt       5.61442796       6.48298325      24.58417391        2       0.00000000       0.24020581       0.10299484       0.31781384
Pt       8.42164222       6.48298341      24.58417381        2       0.00000000      -0.00000041      -0.00000920      -0.59255272
Pt       0.00031117      -0.00207809      26.89637572        1       0.00000000      -0.00239242      -0.01879730       0.01886768
Pt       2.71855964       0.05309386      27.29849490        1       0.00000000      -0.02505424       0.02126979      -0.01024573
Pt       5.70474032       0.05023279      27.29850124        1       0.00000000       0.03093393       0.01106244      -0.01025146
Pt       1.40525142       2.43242710      26.89637407        1       0.00000000       0.01758734       0.00716971       0.01897406
Pt       4.21262233       2.45091652      26.90115517        1       0.00000000      -0.00285785       0.03322101      -0.00317602
Pt       7.01609526       2.43188577      26.89637080        1       0.00000000      -0.01505323       0.01163826       0.01898392
Pt       2.82346120       4.85078524      26.90119043        1       0.00000000       0.03011038      -0.01430085      -0.00336808
Pt       5.59637736       4.85389917      26.90118322        1       0.00000000      -0.02740134      -0.01894612      -0.00335345
Pt       8.41999031       4.75890776      27.29850057        1       0.00000000      -0.00589386      -0.03231770      -0.01024900
C        8.42164234       6.48298051      28.18220232        0       1.00000000       0.00002088       0.00001595       0.01093907
H        8.42162776       6.48297977      26.17950829        0       0.00000000      -0.00001234      -0.00000188      -0.02952133
