38
Lattice="8.421641763931781 0.0 0.0 4.2108208819658905 7.293355709136913 0.0 0.0 0.0 46.87624170604845" Properties=species:S:1:pos:R:3:tags:I:1:initial_magmoms:R:1:forces:R:3 charge=0 spin=0 energy=-197.93991065700772 free_energy=-197.93991065700772 stress="0.007024663966149092 2.739463056400382e-08 1.666709721348525e-07 2.739463056400382e-08 0.007021070457994938 1.0300429948983947e-06 1.666709721348525e-07 1.0300429948983947e-06 -0.0010911895660683513" pbc="T T T"
Pt      -0.00000012       0.00000002      19.95723426        4       0.00000000       0.00109730       0.00827767       0.01820173
Pt       2.80721404      -0.00000018      19.95723442        4       0.00000000      -0.00052983      -0.00436610       0.01450997
Pt       5.61442782      -0.00000007      19.95723448        4       0.00000000       0.00400822       0.00170007       0.01463845
Pt       1.40360721       2.43111841      19.95723428        4       0.00000000      -0.00695733       0.00571519      -0.02590029
Pt       4.21082083       2.43111835      19.95723436        4       0.00000000      -0.00347798       0.00263021       0.01469703
Pt       7.01803478       2.43111845      19.95723424        4       0.00000000       0.00841715       0.00311168      -0.02580975
Pt       2.80721407       4.86223728      19.95723400        4       0.00000000      -0.00777087      -0.00316078       0.01830455
Pt       5.61442803       4.86223733      19.95723419        4       0.00000000       0.00667836      -0.00516303       0.01826428
Pt       8.42164139       4.86223726      19.95723434        4       0.00000000      -0.00145795      -0.00884303      -0.02590531
Pt       1.40360728       0.81037259      22.29206791        3       0.00000000      -0.00264237       0.08141070      -0.13576645
Pt       4.21082130       0.81037249      22.29206784        3       0.00000000      -0.00000773      -0.00003020      -0.11084121
Pt       7.01803471       0.81037256      22.29206781        3       0.00000000       0.00620690       0.07274542      -0.12942584
Pt       2.80721448       3.24149124      22.29206773        3       0.00000000      -0.06605206      -0.03103409      -0.12910782
Pt       5.61442763       3.24149123      22.29206786        3       0.00000000       0.07184676      -0.03859293      -0.13561551
Pt       8.42164156       3.24149129      22.29206804        3       0.00000000       0.00000563      -0.00000063      -0.26908627
Pt       4.21082092       5.67260997      22.29206793        3       0.00000000      -0.00000590      -0.00003941      -0.22470778
Pt       7.01803487       5.67261037      22.29206776        3       0.00000000       0.05983578      -0.04183581      -0.12952767
Pt       9.82524821       5.67261065      22.29206806        3       0.00000000      -0.06922358      -0.04295106      -0.13595691
Pt      -0.00000053       1.62074569      24.58417386        2       0.00000000      -0.00147650      -0.12722611       0.26231405
Pt       2.80721443       1.62074549      24.58417398        2       0.00000000      -0.00922585      -0.00633689      -0.08840571
Pt       5.61442778       1.62074537      24.58417377        2       0.00000000      -0.00087606       0.01134758      -0.08831570
Pt       1.40360637       4.05186439      24.58417390        2       0.00000000       0.11082295       0.06251641       0.26220563
Pt       4.21082088       4.05186403      24.58417379        2       0.00000000       0.00713462      -0.57450533       0.27909270
Pt       7.01803504       4.05186408      24.58417406        2       0.00000000      -0.10937075       0.06514883       0.26218078
Pt       2.80721282       6.48298343      24.58417376        2       0.00000000      -0.50101864       0.28131431       0.27952713
Pt       5.61442796       6.48298325      24.58417391        2       0.00000000       0.49405825       0.29335541       0.27941504
Pt       8.42164222       6.48298341      24.58417381        2       0.00000000       0.01001549      -0.00455101      -0.08807185
Pt      -0.00010220       0.14335596      27.18021384        1       0.00000000       0.00308949      -0.01278804       0.00663514
Pt       2.82374046       0.00631343      26.89436900        1       0.00000000      -0.00315891       0.00014966       0.00611817
Pt       5.60090589       0.01144804      26.89436784        1       0.00000000       0.00141628      -0.00284711       0.00612443
Pt       1.41020653       2.42775266      26.89476087        1       0.00000000      -0.00610865      -0.00123384       0.00407662
Pt       4.20787631       2.41403315      26.89440434        1       0.00000000       0.00184984       0.00260276       0.00618668
Pt       7.01168263       2.42739374      26.89475407        1       0.00000000       0.00182162       0.00615186       0.00408873
Pt       2.68327190       4.79078377      27.18029397        1       0.00000000       0.01356188       0.01104839       0.00816194
Pt       5.73852488       4.79101458      27.18028677        1       0.00000000      -0.01616034       0.00527349       0.00796575
Pt       8.42144491       4.86995177      26.89478546        1       0.00000000       0.00419440      -0.00487108       0.00394045
C        4.21087123       5.67310691      27.91225534        0       1.00000000      -0.00055584      -0.00419365      -0.02866990
H        4.21080940       5.67254167      25.35836115        0       0.00000000       0.00001609       0.00007047      -0.00553568
