38
Lattice="8.421641763931781 0.0 0.0 4.2108208819658905 7.293355709136913 0.0 0.0 0.0 46.87624170604845" Properties=species:S:1:pos:R:3:tags:I:1:initial_magmoms:R:1:forces:R:3 charge=0 spin=0 energy=-197.98970199306729 free_energy=-197.98970199306729 stress="0.007408859673887491 0.000114655245852191 0.00010812701657414436 0.000114655245852191 0.007633761502802372 -1.3753016901318915e-05 0.00010812701657414436 -1.3753016901318915e-05 -0.0007391658145934343" pbc="T T T"
Pt      -0.00000012       0.00000002      19.95723426        4       0.00000000       0.00421579      -0.00306847       0.01819753
Pt       2.80721404      -0.00000018      19.95723442        4       0.00000000       0.00230770       0.00393918       0.02828826
Pt       5.61442782      -0.00000007      19.95723448        4       0.00000000      -0.00306670      -0.00399433       0.00872209
Pt       1.40360721       2.43111841      19.95723428        4       0.00000000       0.00330953       0.02265269      -0.01401529
Pt       4.21082083       2.43111835      19.95723436        4       0.00000000       0.00925106      -0.00429409      -0.01045765
Pt       7.01803478       2.43111845      19.95723424        4       0.00000000      -0.00293961       0.00305109       0.00792667
Pt       2.80721407       4.86223728      19.95723400        4       0.00000000      -0.01332521      -0.00011077      -0.01385405
Pt       5.61442803       4.86223733      19.95723419        4       0.00000000      -0.00425051      -0.00225067       0.02647785
Pt       8.42164139       4.86223726      19.95723434        4       0.00000000       0.01461261      -0.01586646       0.00234319
Pt       1.40360728       0.81037259      22.29206791        3       0.00000000       0.00825635       0.08761484      -0.14651872
Pt       4.21082130       0.81037249      22.29206784        3       0.00000000      -0.01715400       0.01979072      -0.07338438
Pt       7.01803471       0.81037256      22.29206781        3       0.00000000       0.00866108      -0.00291752      -0.07590566
Pt       2.80721448       3.24149124      22.29206773        3       0.00000000       0.00243759      -0.00718410      -0.26111242
Pt       5.61442763       3.24149123      22.29206786        3       0.00000000      -0.02520878       0.00240790      -0.06490269
Pt       8.42164156       3.24149129      22.29206804        3       0.00000000       0.04608985      -0.00903867      -0.13676500
Pt       4.21082092       5.67260997      22.29206793        3       0.00000000      -0.05734918      -0.03815346      -0.12038505
Pt       7.01803487       5.67261037      22.29206776        3       0.00000000       0.03415063      -0.02119806      -0.01792265
Pt       9.82524821       5.67261065      22.29206806        3       0.00000000       0.01413391      -0.03759498      -0.11146823
Pt      -0.00000053       1.62074569      24.58417386        2       0.00000000      -0.00189426      -0.01707397       0.00782343
Pt       2.80721443       1.62074549      24.58417398        2       0.00000000      -0.00417363      -0.21277238       0.27537760
Pt       5.61442778       1.62074537      24.58417377        2       0.00000000      -0.01291252       0.02189128      -0.09527154
Pt       1.40360637       4.05186439      24.58417390        2       0.00000000      -0.09598735       0.07639693       0.17575428
Pt       4.21082088       4.05186403      24.58417379        2       0.00000000       0.21832725       0.10718301       0.28112286
Pt       7.01803504       4.05186408      24.58417406        2       0.00000000      -0.07220189       0.14161694       0.24181601
Pt       2.80721282       6.48298343      24.58417376        2       0.00000000       0.03295712      -0.00094222       0.00966888
Pt       5.61442796       6.48298325      24.58417391        2       0.00000000       0.14044359      -0.08274256      -0.17124407
Pt       8.42164222       6.48298341      24.58417381        2       0.00000000      -0.12260552      -0.02530703       0.20262453
Pt      -0.08849511       0.06925441      27.02434797        1       0.00000000       0.00510582      -0.00550903      -0.01489640
Pt       2.84852525       0.11987937      27.18788536        1       0.00000000      -0.01621671       0.00360803      -0.00166321
Pt       5.63146411       0.01279082      26.89179347        1       0.00000000       0.00549474       0.00922666       0.00089307
Pt       1.40994648       2.42585788      26.90512396        1       0.00000000       0.00846851      -0.00708966      -0.00081516
Pt       4.21904733       2.42819147      26.89482290        1       0.00000000      -0.02700893       0.02535246       0.00174465
Pt       7.01132814       2.43161547      26.89685667        1       0.00000000      -0.01010904      -0.00482951       0.00092357
Pt       2.82454019       4.85696197      26.90554244        1       0.00000000      -0.00857264       0.00188060      -0.00538974
Pt       5.51822574       4.76234180      27.31059334        1       0.00000000      -0.03659949      -0.01911523       0.01124359
Pt       8.54402961       4.80009591      27.02250905        1       0.00000000      -0.00506732       0.00346713       0.02035416
C        7.10708470       5.64145908      27.93386556        0       1.00000000       0.01259412       0.02084045       0.00383731
H        5.45816560       6.39082672      26.32010911        0       0.00000000      -0.03417383      -0.02986661       0.01083248
