38
Lattice="8.421641763931781 0.0 0.0 4.2108208819658905 7.293355709136913 0.0 0.0 0.0 46.87624170604845" Properties=species:S:1:pos:R:3:tags:I:1:initial_magmoms:R:1:forces:R:3 charge=0 spin=0 energy=-192.90315795620205 free_energy=-192.90315795620205 stress="0.010137408040463924 -9.308347159731056e-08 4.793536678704413e-09 -9.308347159731056e-08 0.01013741735368967 5.9252514006402635e-09 4.793536678704413e-09 5.9252514006402635e-09 -0.00024291577574331313" pbc="T T T"
Pt      -0.00000012       0.00000002      19.95723426        4       0.00000000       0.00000196      -0.00000047       0.01379827
Pt       2.80721404      -0.00000018      19.95723442        4       0.00000000       0.00263549      -0.00338783       0.01717186
Pt       5.61442782      -0.00000007      19.95723448        4       0.00000000      -0.00055017      -0.00342033       0.01649247
Pt       1.40360721       2.43111841      19.95723428        4       0.00000000      -0.00268994       0.00218615       0.01646772
Pt       4.21082083       2.43111835      19.95723436        4       0.00000000       0.00000196       0.00000286       0.01530363
Pt       7.01803478       2.43111845      19.95723424        4       0.00000000       0.00161201       0.00398382       0.01717584
Pt       2.80721407       4.86223728      19.95723400        4       0.00000000      -0.00424935      -0.00059510       0.01717317
Pt       5.61442803       4.86223733      19.95723419        4       0.00000000       0.00323735       0.00123507       0.01647809
Pt       8.42164139       4.86223726      19.95723434        4       0.00000000       0.00000196      -0.00000552      -0.01068133
Pt       1.40360728       0.81037259      22.29206791        3       0.00000000      -0.00074246      -0.00097609      -0.05102593
Pt       4.21082130       0.81037249      22.29206784        3       0.00000000       0.00152974       0.00309054      -0.05214061
Pt       7.01803471       0.81037256      22.29206781        3       0.00000000       0.00120460      -0.00011895      -0.05100746
Pt       2.80721448       3.24149124      22.29206773        3       0.00000000       0.00187037      -0.00285952      -0.05213112
Pt       5.61442763       3.24149123      22.29206786        3       0.00000000      -0.00340386      -0.00022729      -0.05213676
Pt       8.42164156       3.24149129      22.29206804        3       0.00000000      -0.00101603       0.00571701      -0.04146772
Pt       4.21082092       5.67260997      22.29206793        3       0.00000000      -0.00046861       0.00110958      -0.05100119
Pt       7.01803487       5.67261037      22.29206776        3       0.00000000       0.00547270      -0.00201573      -0.04146785
Pt       9.82524821       5.67261065      22.29206806        3       0.00000000      -0.00445018      -0.00371588      -0.04144758
Pt      -0.00000053       1.62074569      24.58417386        2       0.00000000       0.00111021       0.00103994       0.02894529
Pt       2.80721443       1.62074549      24.58417398        2       0.00000000      -0.00081310       0.00677263       0.03083717
Pt       5.61442778       1.62074537      24.58417377        2       0.00000000      -0.00541590      -0.00397565       0.03085277
Pt       1.40360637       4.05186439      24.58417390        2       0.00000000      -0.00460264      -0.00139491       0.00822173
Pt       4.21082088       4.05186403      24.58417379        2       0.00000000       0.00621429      -0.00272549       0.03086524
Pt       7.01803504       4.05186408      24.58417406        2       0.00000000       0.00112919       0.00466846       0.00826267
Pt       2.80721282       6.48298343      24.58417376        2       0.00000000      -0.00140281       0.00040780       0.02885217
Pt       5.61442796       6.48298325      24.58417391        2       0.00000000       0.00030976      -0.00149126       0.02887486
Pt       8.42164222       6.48298341      24.58417381        2       0.00000000       0.00347561      -0.00329721       0.00813807
Pt      -0.00000146       0.00000218      26.90652672        1       0.00000000      -0.00000325      -0.00001099       0.01441100
Pt       2.81775341       0.00153398      26.91593614        1       0.00000000       0.00313208       0.00212826       0.01327778
Pt       5.60342280      -0.00012530      26.91641600        1       0.00000000      -0.00289394      -0.00007686       0.01199032
Pt       1.40901023       2.44073368      26.91644727        1       0.00000000       0.00136880       0.00244322       0.01192244
Pt       4.21082338       2.43111594      26.91690328        1       0.00000000       0.00000604      -0.00000884       0.01367070
Pt       7.01144734       2.43949923      26.91596945        1       0.00000000      -0.00340244       0.00156247       0.01315047
Pt       2.80326043       4.85232362      26.91597132        1       0.00000000       0.00027714      -0.00368066       0.01316211
Pt       5.62002756       4.85274991      26.91643242        1       0.00000000       0.00151598      -0.00237755       0.01189541
Pt       8.42163860       4.86223905      26.91456709        1       0.00000000      -0.00000501       0.00001192       0.02313102
C       -0.00000403      -0.00000900      29.94594722        0       1.00000000      -0.00001519      -0.00002501       0.02501443
H        0.00000499       0.00000958      28.77175711        0       0.00000000       0.00001773       0.00002751      -0.04102919
