38
Lattice="8.421641763931781 0.0 0.0 4.2108208819658905 7.293355709136913 0.0 0.0 0.0 46.87624170604845" Properties=species:S:1:pos:R:3:tags:I:1:initial_magmoms:R:1:forces:R:3 charge=0 spin=0 energy=-192.9034287997079 free_energy=-192.9034287997079 stress="0.010173282586038113 -9.71213367506607e-08 4.53983561854443e-09 -9.71213367506607e-08 0.010173279792070389 -1.069347596582837e-10 4.53983561854443e-09 -1.069347596582837e-10 -0.00016922579379752278" pbc="T T T"
Pt      -0.00000012       0.00000002      19.95723426        4       0.00000000      -0.00275263       0.00230635       0.01648931
Pt       2.80721404      -0.00000018      19.95723442        4       0.00000000      -0.00000235       0.00000324       0.01524898
Pt       5.61442782      -0.00000007      19.95723448        4       0.00000000       0.00165952       0.00412459       0.01722302
Pt       1.40360721       2.43111841      19.95723428        4       0.00000000      -0.00439529      -0.00061959       0.01722756
Pt       4.21082083       2.43111835      19.95723436        4       0.00000000       0.00338076       0.00123679       0.01650106
Pt       7.01803478       2.43111845      19.95723424        4       0.00000000      -0.00000089       0.00000038      -0.01118025
Pt       2.80721407       4.86223728      19.95723400        4       0.00000000       0.00000132      -0.00000306       0.01381288
Pt       5.61442803       4.86223733      19.95723419        4       0.00000000       0.00273245      -0.00350377       0.01723617
Pt       8.42164139       4.86223726      19.95723434        4       0.00000000      -0.00062239      -0.00354650       0.01652370
Pt       1.40360728       0.81037259      22.29206791        3       0.00000000       0.00201004      -0.00290587      -0.05267931
Pt       4.21082130       0.81037249      22.29206784        3       0.00000000      -0.00351831      -0.00031356      -0.05268332
Pt       7.01803471       0.81037256      22.29206781        3       0.00000000      -0.00098264       0.00575202      -0.04118505
Pt       2.80721448       3.24149124      22.29206773        3       0.00000000      -0.00042997       0.00108877      -0.05159618
Pt       5.61442763       3.24149123      22.29206786        3       0.00000000       0.00548791      -0.00205650      -0.04119483
Pt       8.42164156       3.24149129      22.29206804        3       0.00000000      -0.00449736      -0.00368865      -0.04117414
Pt       4.21082092       5.67260997      22.29206793        3       0.00000000      -0.00074591      -0.00093024      -0.05161281
Pt       7.01803487       5.67261037      22.29206776        3       0.00000000       0.00150387       0.00322018      -0.05268480
Pt       9.82524821       5.67261065      22.29206806        3       0.00000000       0.00117215      -0.00016136      -0.05159380
Pt      -0.00000053       1.62074569      24.58417386        2       0.00000000      -0.00585367      -0.00060686       0.01946340
Pt       2.80721443       1.62074549      24.58417398        2       0.00000000       0.00587992      -0.00125844       0.04080124
Pt       5.61442778       1.62074537      24.58417377        2       0.00000000       0.00244333       0.00535463       0.01950382
Pt       1.40360637       4.05186439      24.58417390        2       0.00000000      -0.00357097      -0.00129079       0.03837840
Pt       4.21082088       4.05186403      24.58417379        2       0.00000000       0.00288199      -0.00249273       0.03841477
Pt       7.01803504       4.05186408      24.58417406        2       0.00000000       0.00341528      -0.00475868       0.01938896
Pt       2.80721282       6.48298343      24.58417376        2       0.00000000       0.00071588       0.00375572       0.03847297
Pt       5.61442796       6.48298325      24.58417391        2       0.00000000      -0.00191677       0.00573221       0.04078138
Pt       8.42164222       6.48298341      24.58417381        2       0.00000000      -0.00399029      -0.00443954       0.04079299
Pt       0.00593670       0.01041506      26.91898155        1       0.00000000      -0.00200559      -0.00143232       0.00106090
Pt       2.80721500      -0.00000215      26.91834562        1       0.00000000       0.00001239      -0.00000876       0.00809489
Pt       5.60731744       0.00949103      26.91885549        1       0.00000000      -0.00026897      -0.00358347       0.00077095
Pt       1.39895016       2.42019866      26.91885504        1       0.00000000       0.00318204       0.00158665       0.00078781
Pt       4.21685417       2.42076837      26.91896737        1       0.00000000      -0.00017753       0.00248631       0.00103314
Pt       7.01803362       2.43112022      26.91804245        1       0.00000000      -0.00001161       0.00000727       0.00909300
Pt       2.80721367       4.86223742      26.90598113        1       0.00000000       0.00000130       0.00000026      -0.00328499
Pt       5.62619578       4.86366622      26.91883185        1       0.00000000      -0.00290836       0.00200119       0.00085504
Pt       8.40967140       4.86217228      26.91895734        1       0.00000000       0.00217200      -0.00105529       0.00110623
C        2.80721380       4.86223739      29.93871802        0       1.00000000      -0.00000086       0.00000102      -0.01291379
H        2.80721401       4.86223713      28.76194014        0       0.00000000       0.00000041      -0.00000186       0.01472053
