38
Lattice="8.421641763931781 0.0 0.0 4.2108208819658905 7.293355709136913 0.0 0.0 0.0 46.87624170604845" Properties=species:S:1:pos:R:3:tags:I:1:initial_magmoms:R:1:forces:R:3 charge=0 spin=0 energy=-192.90314651211025 free_energy=-192.90314651211025 stress="0.01023002341389656 -1.1394755716764848e-07 9.149308866085448e-09 -1.1394755716764848e-07 0.010230018757283688 -7.157373360655583e-09 9.149308866085448e-09 -7.157373360655583e-09 -7.246977475006133e-05" pbc="T T T"
Pt      -0.00000012       0.00000002      19.95723426        4       0.00000000       0.00000209      -0.00000130       0.01367744
Pt       2.80721404      -0.00000018      19.95723442        4       0.00000000       0.00287896      -0.00337356       0.01719005
Pt       5.61442782      -0.00000007      19.95723448        4       0.00000000      -0.00060084      -0.00353138       0.01646692
Pt       1.40360721       2.43111841      19.95723428        4       0.00000000      -0.00276020       0.00228337       0.01644325
Pt       4.21082083       2.43111835      19.95723436        4       0.00000000       0.00000240       0.00000189       0.01533070
Pt       7.01803478       2.43111845      19.95723424        4       0.00000000       0.00147784       0.00418605       0.01719609
Pt       2.80721407       4.86223728      19.95723400        4       0.00000000      -0.00435854      -0.00081195       0.01718740
Pt       5.61442803       4.86223733      19.95723419        4       0.00000000       0.00335863       0.00124944       0.01645000
Pt       8.42164139       4.86223726      19.95723434        4       0.00000000       0.00000203      -0.00000472      -0.01058805
Pt       1.40360728       0.81037259      22.29206791        3       0.00000000      -0.00081940      -0.00095299      -0.05311292
Pt       4.21082130       0.81037249      22.29206784        3       0.00000000       0.00147863       0.00369815      -0.05281289
Pt       7.01803471       0.81037256      22.29206781        3       0.00000000       0.00122411      -0.00019865      -0.05309371
Pt       2.80721448       3.24149124      22.29206773        3       0.00000000       0.00242149      -0.00311541      -0.05282237
Pt       5.61442763       3.24149123      22.29206786        3       0.00000000      -0.00390336      -0.00057370      -0.05282558
Pt       8.42164156       3.24149129      22.29206804        3       0.00000000      -0.00102749       0.00493236      -0.04000789
Pt       4.21082092       5.67260997      22.29206793        3       0.00000000      -0.00041139       0.00115948      -0.05311018
Pt       7.01803487       5.67261037      22.29206776        3       0.00000000       0.00479536      -0.00161232      -0.04001121
Pt       9.82524821       5.67261065      22.29206806        3       0.00000000      -0.00376033      -0.00333557      -0.03999455
Pt      -0.00000053       1.62074569      24.58417386        2       0.00000000       0.00026812       0.01297837       0.03716434
Pt       2.80721443       1.62074549      24.58417398        2       0.00000000       0.00226260       0.00910895       0.05936652
Pt       5.61442778       1.62074537      24.58417377        2       0.00000000      -0.00900806      -0.00253538       0.05937376
Pt       1.40360637       4.05186439      24.58417390        2       0.00000000      -0.01027121       0.00264492       0.04058599
Pt       4.21082088       4.05186403      24.58417379        2       0.00000000       0.00673567      -0.00656444       0.05939300
Pt       7.01803504       4.05186408      24.58417406        2       0.00000000       0.00746201       0.00755545       0.04062637
Pt       2.80721282       6.48298343      24.58417376        2       0.00000000      -0.01133947      -0.00627090       0.03709842
Pt       5.61442796       6.48298325      24.58417391        2       0.00000000       0.01109578      -0.00670800       0.03713531
Pt       8.42164222       6.48298341      24.58417381        2       0.00000000       0.00280238      -0.01021156       0.04053894
Pt      -0.00000133       0.00000206      26.90124176        1       0.00000000      -0.00000146      -0.00000229       0.03184753
Pt       2.81827559       0.00252069      26.92150393        1       0.00000000       0.00642378      -0.00133103      -0.01041990
Pt       5.60274746      -0.00132738      26.92152382        1       0.00000000      -0.00574645       0.00393950      -0.00976306
Pt       1.40830904       2.44189820      26.92152799        1       0.00000000       0.00627244       0.00301012      -0.00974308
Pt       4.21082534       2.43112024      26.92543892        1       0.00000000      -0.00000861      -0.00000604      -0.02470413
Pt       7.01033164       2.43943970      26.92150085        1       0.00000000      -0.00204803       0.00622690      -0.01042016
Pt       2.80385345       4.85139959      26.92150439        1       0.00000000      -0.00437753      -0.00490042      -0.01042179
Pt       5.62140520       4.85278665      26.92151616        1       0.00000000      -0.00053066      -0.00693907      -0.00977256
Pt       8.42163556       4.86223643      26.92612116        1       0.00000000       0.00000655       0.00000796      -0.02824176
C       -0.00000090       0.00000387      29.93895133        0       1.00000000      -0.00000452       0.00001174      -0.00344206
H        0.00000232      -0.00000430      28.76324012        0       0.00000000       0.00000653      -0.00001393      -0.00776402
