38
Lattice="8.421641763931781 0.0 0.0 4.2108208819658905 7.293355709136913 0.0 0.0 0.0 46.87624170604845" Properties=species:S:1:pos:R:3:tags:I:1:initial_magmoms:R:1:forces:R:3 charge=0 spin=0 energy=-198.0461690493417 free_energy=-198.0461690493417 stress="0.008093077689409256 9.780470281839371e-05 1.987459654628765e-05 9.780470281839371e-05 0.00725627550855279 -7.26766957086511e-05 1.987459654628765e-05 -7.26766957086511e-05 -0.0007647031452506781" pbc="T T T"
Pt      -0.00000012       0.00000002      19.95723426        4       0.00000000      -0.00634952      -0.00350390       0.02504103
Pt       2.80721404      -0.00000018      19.95723442        4       0.00000000       0.02814134      -0.02334834      -0.01534277
Pt       5.61442782      -0.00000007      19.95723448        4       0.00000000      -0.01475527      -0.00114629       0.00086174
Pt       1.40360721       2.43111841      19.95723428        4       0.00000000      -0.00488140      -0.00007722       0.01438240
Pt       4.21082083       2.43111835      19.95723436        4       0.00000000       0.00392461       0.00130156       0.00946058
Pt       7.01803478       2.43111845      19.95723424        4       0.00000000      -0.00263754       0.00624902       0.01966922
Pt       2.80721407       4.86223728      19.95723400        4       0.00000000      -0.00389821       0.00586091       0.01099128
Pt       5.61442803       4.86223733      19.95723419        4       0.00000000      -0.00620149      -0.00845315      -0.01278044
Pt       8.42164139       4.86223726      19.95723434        4       0.00000000       0.00898797      -0.00230965      -0.01126835
Pt       1.40360728       0.81037259      22.29206791        3       0.00000000       0.09321217      -0.06196726      -0.20347497
Pt       4.21082130       0.81037249      22.29206784        3       0.00000000      -0.06129870      -0.04140930      -0.18530920
Pt       7.01803471       0.81037256      22.29206781        3       0.00000000      -0.01861392      -0.01201684       0.01665383
Pt       2.80721448       3.24149124      22.29206773        3       0.00000000      -0.00429896      -0.01590985      -0.08076051
Pt       5.61442763       3.24149123      22.29206786        3       0.00000000       0.00521202       0.01332780      -0.05296190
Pt       8.42164156       3.24149129      22.29206804        3       0.00000000      -0.00887736       0.03765934      -0.07936168
Pt       4.21082092       5.67260997      22.29206793        3       0.00000000       0.02463580       0.00991818      -0.07744037
Pt       7.01803487       5.67261037      22.29206776        3       0.00000000      -0.00971152       0.00930006      -0.27273577
Pt       9.82524821       5.67261065      22.29206806        3       0.00000000      -0.04084790       0.00972572      -0.09144546
Pt      -0.00000053       1.62074569      24.58417386        2       0.00000000      -0.23349215      -0.01500738       0.20697297
Pt       2.80721443       1.62074549      24.58417398        2       0.00000000       0.03760911       0.04408195       0.01921767
Pt       5.61442778       1.62074537      24.58417377        2       0.00000000       0.17542797       0.02371105       0.24447416
Pt       1.40360637       4.05186439      24.58417390        2       0.00000000       0.00863003       0.02182072      -0.04598148
Pt       4.21082088       4.05186403      24.58417379        2       0.00000000       0.06792506      -0.04158303      -0.09865524
Pt       7.01803504       4.05186408      24.58417406        2       0.00000000      -0.03226394      -0.16870515       0.17345335
Pt       2.80721282       6.48298343      24.58417376        2       0.00000000       0.01490425       0.11065371       0.15760605
Pt       5.61442796       6.48298325      24.58417391        2       0.00000000      -0.09504832       0.07555319       0.17507403
Pt       8.42164222       6.48298341      24.58417381        2       0.00000000       0.13169082       0.03691297       0.12889360
Pt       0.11395943      -0.08123024      27.07115333        1       0.00000000      -0.00852443      -0.00250747       0.02294896
Pt       2.82848701       0.00580339      26.90171473        1       0.00000000       0.01736506      -0.00352950      -0.01280940
Pt       5.54632689      -0.05133305      27.00755828        1       0.00000000      -0.00772526      -0.00896778      -0.00263869
Pt       1.46908075       2.43166959      26.96874419        1       0.00000000      -0.02064127       0.00836342       0.02515850
Pt       4.26389309       2.44334707      26.90699721        1       0.00000000      -0.02196305      -0.01625527       0.00173669
Pt       7.01421345       2.67604983      27.59122429        1       0.00000000       0.03034218      -0.01527162      -0.02104256
Pt       2.83224392       4.81711420      26.88331480        1       0.00000000      -0.02059383      -0.00083533       0.00792508
Pt       5.63496114       4.85314541      26.87995957        1       0.00000000       0.01840519       0.02183706       0.01050449
Pt       8.44290794       4.88717245      26.91709164        1       0.00000000      -0.03232245      -0.02885270      -0.00276093
C        7.02736486       0.79005014      27.85434160        0       1.00000000       0.00890962       0.01817331      -0.00783662
H        8.20675353       2.31875820      26.23273404        0       0.00000000      -0.02037679       0.01720693       0.00358079
