38
Lattice="8.421641763931781 0.0 0.0 4.2108208819658905 7.293355709136913 0.0 0.0 0.0 46.87624170604845" Properties=species:S:1:pos:R:3:tags:I:1:initial_magmoms:R:1:forces:R:3 charge=0 spin=0 energy=-192.90323425014736 free_energy=-192.90323425014736 stress="0.010190202854573727 -1.0339642386725245e-07 -1.5182946455638557e-08 -1.0339642386725245e-07 0.010190206579864025 8.985824528906505e-09 -1.5182946455638557e-08 8.985824528906505e-09 -0.00012901266745757312" pbc="T T T"
Pt      -0.00000012       0.00000002      19.95723426        4       0.00000000       0.00325700       0.00124907       0.01645072
Pt       2.80721404      -0.00000018      19.95723442        4       0.00000000      -0.00000157       0.00000275      -0.01064070
Pt       5.61442782      -0.00000007      19.95723448        4       0.00000000      -0.00426930      -0.00069815       0.01717495
Pt       1.40360721       2.43111841      19.95723428        4       0.00000000       0.00274192      -0.00335014       0.01719633
Pt       4.21082083       2.43111835      19.95723436        4       0.00000000      -0.00054720      -0.00344016       0.01647587
Pt       7.01803478       2.43111845      19.95723424        4       0.00000000      -0.00000129       0.00000061       0.01358769
Pt       2.80721407       4.86223728      19.95723400        4       0.00000000       0.00000146      -0.00000344       0.01530233
Pt       5.61442803       4.86223733      19.95723419        4       0.00000000       0.00152506       0.00404954       0.01719206
Pt       8.42164139       4.86223726      19.95723434        4       0.00000000      -0.00270348       0.00218733       0.01644147
Pt       1.40360728       0.81037259      22.29206791        3       0.00000000       0.00506909      -0.00180771      -0.04064219
Pt       4.21082130       0.81037249      22.29206784        3       0.00000000      -0.00408172      -0.00345147      -0.04062457
Pt       7.01803471       0.81037256      22.29206781        3       0.00000000      -0.00039542       0.00102377      -0.05218682
Pt       2.80721448       3.24149124      22.29206773        3       0.00000000       0.00144576       0.00349751      -0.05266997
Pt       5.61442763       3.24149123      22.29206786        3       0.00000000       0.00110165      -0.00014429      -0.05218086
Pt       8.42164156       3.24149129      22.29206804        3       0.00000000      -0.00070063      -0.00087684      -0.05219877
Pt       4.21082092       5.67260997      22.29206793        3       0.00000000      -0.00372477      -0.00049913      -0.05267553
Pt       7.01803487       5.67261037      22.29206776        3       0.00000000      -0.00099354       0.00526321      -0.04063677
Pt       9.82524821       5.67261065      22.29206806        3       0.00000000       0.00228022      -0.00300645      -0.05267356
Pt      -0.00000053       1.62074569      24.58417386        2       0.00000000       0.00936418      -0.00605089       0.02808784
Pt       2.80721443       1.62074549      24.58417398        2       0.00000000       0.00319429      -0.00707221       0.03060729
Pt       5.61442778       1.62074537      24.58417377        2       0.00000000      -0.00990718      -0.00508647       0.02806137
Pt       1.40360637       4.05186439      24.58417390        2       0.00000000       0.00063042       0.00758850       0.04777550
Pt       4.21082088       4.05186403      24.58417379        2       0.00000000      -0.00687996      -0.00319471       0.04777016
Pt       7.01803504       4.05186408      24.58417406        2       0.00000000       0.00056670       0.01114353       0.02812474
Pt       2.80721282       6.48298343      24.58417376        2       0.00000000       0.00625193      -0.00439255       0.04780520
Pt       5.61442796       6.48298325      24.58417391        2       0.00000000       0.00455250       0.00633286       0.03069539
Pt       8.42164222       6.48298341      24.58417381        2       0.00000000      -0.00777045       0.00073438       0.03067618
Pt       0.00571939      -0.00853235      26.91968971        1       0.00000000       0.00569498      -0.01337129      -0.00211193
Pt       2.80720900       0.00000159      26.92174366        1       0.00000000       0.00000591      -0.00000166      -0.01017764
Pt       5.61102125      -0.00940570      26.91956381        1       0.00000000      -0.00607956      -0.01314261      -0.00229995
Pt       1.41344894       2.43288453      26.91955656        1       0.00000000       0.01442400       0.00132055      -0.00227701
Pt       4.20056537       2.43042414      26.91969153        1       0.00000000      -0.01443516       0.00175305      -0.00209656
Pt       7.01803416       2.43111910      26.90105460        1       0.00000000       0.00000475      -0.00000070       0.04236797
Pt       2.80721654       4.86223988      26.92090456        1       0.00000000      -0.00000418      -0.00000755      -0.00563862
Pt       5.60798808       4.86988210      26.91955123        1       0.00000000      -0.00833805       0.01182316      -0.00228174
Pt       8.42617649       4.87146889      26.91970263        1       0.00000000       0.00873203       0.01161936      -0.00209524
C        7.01806861       2.43109686      29.94204452        0       1.00000000       0.00007768      -0.00004913      -0.03606682
H        7.01800891       2.43113579      28.76467597        0       0.00000000      -0.00008821       0.00005831       0.02038222
