38
Lattice="8.421641763931781 0.0 0.0 4.2108208819658905 7.293355709136913 0.0 0.0 0.0 46.87624170604845" Properties=species:S:1:pos:R:3:tags:I:1:initial_magmoms:R:1:forces:R:3 charge=0 spin=0 energy=-197.50844550808193 free_energy=-197.50844550808193 stress="0.009106997400522232 -3.5213031424063956e-07 1.0390457561015864e-07 -3.5213031424063956e-07 0.009108076803386211 5.765955961578584e-07 1.0390457561015864e-07 5.765955961578584e-07 -0.0007797203725203872" pbc="T T T"
Pt      -0.00000012       0.00000002      19.95723426        4       0.00000000       0.00272763       0.02447721      -0.03709267
Pt       2.80721404      -0.00000018      19.95723442        4       0.00000000      -0.00520682       0.00341530       0.02252409
Pt       5.61442782      -0.00000007      19.95723448        4       0.00000000       0.00553544       0.00276438       0.02236938
Pt       1.40360721       2.43111841      19.95723428        4       0.00000000      -0.02247261      -0.00981846      -0.03680927
Pt       4.21082083       2.43111835      19.95723436        4       0.00000000      -0.00104428       0.00932588       0.01956237
Pt       7.01803478       2.43111845      19.95723424        4       0.00000000       0.01979144      -0.01459261      -0.03709284
Pt       2.80721407       4.86223728      19.95723400        4       0.00000000       0.00861502      -0.00379143       0.01937295
Pt       5.61442803       4.86223733      19.95723419        4       0.00000000      -0.00757222      -0.00554028       0.01934157
Pt       8.42164139       4.86223726      19.95723434        4       0.00000000      -0.00033499      -0.00618621       0.02228813
Pt       1.40360728       0.81037259      22.29206791        3       0.00000000      -0.04217097       0.02480971      -0.19412288
Pt       4.21082130       0.81037249      22.29206784        3       0.00000000      -0.00527283       0.02496366      -0.01836401
Pt       7.01803471       0.81037256      22.29206781        3       0.00000000       0.04259888       0.02394762      -0.19426124
Pt       2.80721448       3.24149124      22.29206773        3       0.00000000      -0.08861374      -0.05071412      -0.15094157
Pt       5.61442763       3.24149123      22.29206786        3       0.00000000       0.08832867      -0.05135173      -0.15098527
Pt       8.42164156       3.24149129      22.29206804        3       0.00000000      -0.00044104      -0.04877285      -0.19442245
Pt       4.21082092       5.67260997      22.29206793        3       0.00000000       0.00029382       0.10215463      -0.15129641
Pt       7.01803487       5.67261037      22.29206776        3       0.00000000      -0.01906784      -0.01709100      -0.01881148
Pt       9.82524821       5.67261065      22.29206806        3       0.00000000       0.02431927      -0.00793545      -0.01890119
Pt      -0.00000053       1.62074569      24.58417386        2       0.00000000      -0.00002580      -0.00007114      -0.22958656
Pt       2.80721443       1.62074549      24.58417398        2       0.00000000       0.20728353       0.14187376       0.33084941
Pt       5.61442778       1.62074537      24.58417377        2       0.00000000      -0.20562848       0.14755589       0.33017525
Pt       1.40360637       4.05186439      24.58417390        2       0.00000000       0.23039092       0.10479760       0.33043522
Pt       4.21082088       4.05186403      24.58417379        2       0.00000000       0.00051178       0.00061992      -0.64365453
Pt       7.01803504       4.05186408      24.58417406        2       0.00000000      -0.22665232       0.10880204       0.33176127
Pt       2.80721282       6.48298343      24.58417376        2       0.00000000       0.01939330      -0.25072211       0.33149803
Pt       5.61442796       6.48298325      24.58417391        2       0.00000000      -0.02473955      -0.25231504       0.33129865
Pt       8.42164222       6.48298341      24.58417381        2       0.00000000      -0.00005930       0.00005080       0.02966829
Pt       0.00122736       0.02688283      26.90393348        1       0.00000000      -0.00070947      -0.01355958      -0.00521387
Pt       2.80057108       0.00190076      26.90767650        1       0.00000000       0.01157708      -0.00117490      -0.01784499
Pt       5.61930298       0.00505362      26.90764147        1       0.00000000      -0.00614400      -0.01006563      -0.01771339
Pt       1.37977755       2.41881098      26.90377474        1       0.00000000       0.01221916       0.00602084      -0.00470589
Pt       4.20664110       2.32705466      27.29439097        1       0.00000000      -0.00010396       0.00445198       0.00021187
Pt       7.04076537       2.41673975      26.90385312        1       0.00000000      -0.01156333       0.00753905      -0.00502938
Pt       2.71920467       4.91810774      27.29443880        1       0.00000000       0.00276685      -0.00083769      -0.00061158
Pt       5.70685158       4.91077728      27.29449453        1       0.00000000      -0.00086716      -0.00110321      -0.00155631
Pt       8.42373702       4.85558429      26.90764752        1       0.00000000      -0.00642802       0.01074885      -0.01780676
C        4.21100776       4.05217121      28.18088022        0       1.00000000      -0.00032065      -0.00127913      -0.01796764
H        4.20992751       4.05057842      26.17529575        0       0.00000000      -0.00091363      -0.00139646       0.02343583
