38
Lattice="8.421641763931781 0.0 0.0 4.2108208819658905 7.293355709136913 0.0 0.0 0.0 46.87624170604845" Properties=species:S:1:pos:R:3:tags:I:1:initial_magmoms:R:1:forces:R:3 charge=0 spin=0 energy=-197.98584151943447 free_energy=-197.98584151943447 stress="0.007439101580530405 0.00013094829046167433 7.991705206222832e-05 0.00013094829046167433 0.007682404946535826 -3.107562588411383e-05 7.991705206222832e-05 -3.107562588411383e-05 -0.000679626886267215" pbc="T T T"
Pt      -0.00000012       0.00000002      19.95723426        4       0.00000000      -0.00304818      -0.00206257       0.02691869
Pt       2.80721404      -0.00000018      19.95723442        4       0.00000000       0.01547951      -0.01564017       0.00335642
Pt       5.61442782      -0.00000007      19.95723448        4       0.00000000      -0.01570582      -0.00392146      -0.01426930
Pt       1.40360721       2.43111841      19.95723428        4       0.00000000       0.00305350       0.00486853       0.02787236
Pt       4.21082083       2.43111835      19.95723436        4       0.00000000      -0.00253467      -0.00409712       0.00836126
Pt       7.01803478       2.43111845      19.95723424        4       0.00000000       0.00561746      -0.00303498       0.01830037
Pt       2.80721407       4.86223728      19.95723400        4       0.00000000       0.00967312      -0.00502010      -0.01006496
Pt       5.61442803       4.86223733      19.95723419        4       0.00000000      -0.00189199       0.00281277       0.00825986
Pt       8.42164139       4.86223726      19.95723434        4       0.00000000       0.00290874       0.01804078      -0.01336733
Pt       1.40360728       0.81037259      22.29206791        3       0.00000000       0.03553159      -0.02241758      -0.01786787
Pt       4.21082130       0.81037249      22.29206784        3       0.00000000       0.01906984      -0.03832286      -0.11887674
Pt       7.01803471       0.81037256      22.29206781        3       0.00000000      -0.06153626      -0.04375340      -0.12957215
Pt       2.80721448       3.24149124      22.29206773        3       0.00000000      -0.01370631       0.02110172      -0.07163509
Pt       5.61442763       3.24149123      22.29206786        3       0.00000000       0.01090227      -0.00580413      -0.07853758
Pt       8.42164156       3.24149129      22.29206804        3       0.00000000       0.00863727       0.07704804      -0.13130964
Pt       4.21082092       5.67260997      22.29206793        3       0.00000000      -0.02518988       0.00283454      -0.06718634
Pt       7.01803487       5.67261037      22.29206776        3       0.00000000       0.04482965      -0.00660196      -0.12883484
Pt       9.82524821       5.67261065      22.29206806        3       0.00000000       0.00440637      -0.00593049      -0.26152951
Pt      -0.00000053       1.62074569      24.58417386        2       0.00000000       0.13501644      -0.08407272      -0.17409997
Pt       2.80721443       1.62074549      24.58417398        2       0.00000000      -0.13470203      -0.02092427       0.23347741
Pt       5.61442778       1.62074537      24.58417377        2       0.00000000       0.01997255       0.00557222       0.00297365
Pt       1.40360637       4.05186439      24.58417390        2       0.00000000      -0.00848223      -0.23014088       0.28640121
Pt       4.21082088       4.05186403      24.58417379        2       0.00000000      -0.03264723       0.01703622      -0.08714697
Pt       7.01803504       4.05186408      24.58417406        2       0.00000000      -0.00368765      -0.00749096       0.00163353
Pt       2.80721282       6.48298343      24.58417376        2       0.00000000       0.21026556       0.11998307       0.28590143
Pt       5.61442796       6.48298325      24.58417391        2       0.00000000      -0.05755519       0.14399104       0.23809607
Pt       8.42164222       6.48298341      24.58417381        2       0.00000000      -0.11533891       0.07884623       0.19812419
Pt      -0.10126238      -0.08852809      27.26595776        1       0.00000000       0.02170581      -0.01181775       0.00086408
Pt       2.92109427      -0.06387150      27.03493070        1       0.00000000      -0.00341581       0.00278932      -0.01612915
Pt       5.62303148       0.00593304      26.90484951        1       0.00000000      -0.02978537      -0.01179243      -0.00735382
Pt       1.43561935       2.55696876      27.23599815        1       0.00000000       0.00825562       0.01258271      -0.01531718
Pt       4.21424328       2.45216432      26.89585273        1       0.00000000      -0.02024435      -0.00934319      -0.00587319
Pt       6.91345243       2.49462515      27.01450833        1       0.00000000       0.00549856       0.01046142       0.00124836
Pt       2.78960225       4.87216418      26.89457066        1       0.00000000       0.02129522      -0.00525286       0.00463824
Pt       5.59514955       4.85784029      26.89574492        1       0.00000000      -0.00407838       0.01682891       0.00181745
Pt       8.41965540       4.85485755      26.90588171        1       0.00000000      -0.00392674       0.01395473      -0.00189734
C        1.48071889       0.76898477      27.94557458        0       1.00000000      -0.02271566      -0.01309195      -0.00064555
H       -0.07928876       1.64361265      26.33010423        0       0.00000000      -0.02192635       0.00178145       0.00327025
