38
Lattice="8.421641763931781 0.0 0.0 4.2108208819658905 7.293355709136913 0.0 0.0 0.0 46.87624170604845" Properties=species:S:1:pos:R:3:tags:I:1:initial_magmoms:R:1:forces:R:3 charge=0 spin=0 energy=-197.93908668239834 free_energy=-197.93908668239834 stress="0.007025837432593107 -1.4510020207580965e-07 -4.775866369044479e-09 -1.4510020207580965e-07 0.007025157567113638 3.13201820034692e-09 -4.775866369044479e-09 3.13201820034692e-09 -0.0010193632915616035" pbc="T T T"
Pt      -0.00000012       0.00000002      19.95723426        4       0.00000000       0.00118038       0.00763940       0.01769836
Pt       2.80721404      -0.00000018      19.95723442        4       0.00000000      -0.00024411      -0.00441350       0.01462581
Pt       5.61442782      -0.00000007      19.95723448        4       0.00000000       0.00392213       0.00199888       0.01475125
Pt       1.40360721       2.43111841      19.95723428        4       0.00000000      -0.00748437       0.00600185      -0.02557325
Pt       4.21082083       2.43111835      19.95723436        4       0.00000000      -0.00367494       0.00242299       0.01480700
Pt       7.01803478       2.43111845      19.95723424        4       0.00000000       0.00892021       0.00343509      -0.02548727
Pt       2.80721407       4.86223728      19.95723400        4       0.00000000      -0.00724891      -0.00274713       0.01779285
Pt       5.61442803       4.86223733      19.95723419        4       0.00000000       0.00607213      -0.00490030       0.01775576
Pt       8.42164139       4.86223726      19.95723434        4       0.00000000      -0.00143700      -0.00943874      -0.02556825
Pt       1.40360728       0.81037259      22.29206791        3       0.00000000      -0.00258023       0.08183994      -0.13914356
Pt       4.21082130       0.81037249      22.29206784        3       0.00000000      -0.00000101       0.00000366      -0.10852218
Pt       7.01803471       0.81037256      22.29206781        3       0.00000000       0.00605230       0.07320835      -0.13173421
Pt       2.80721448       3.24149124      22.29206773        3       0.00000000      -0.06633561      -0.03133208      -0.13138273
Pt       5.61442763       3.24149123      22.29206786        3       0.00000000       0.07216591      -0.03877974      -0.13893028
Pt       8.42164156       3.24149129      22.29206804        3       0.00000000       0.00000596       0.00000787      -0.26968905
Pt       4.21082092       5.67260997      22.29206793        3       0.00000000      -0.00000075       0.00000359      -0.22161357
Pt       7.01803487       5.67261037      22.29206776        3       0.00000000       0.06028306      -0.04187835      -0.13186888
Pt       9.82524821       5.67261065      22.29206806        3       0.00000000      -0.06957639      -0.04307013      -0.13933811
Pt      -0.00000053       1.62074569      24.58417386        2       0.00000000      -0.00236355      -0.12333700       0.27895838
Pt       2.80721443       1.62074549      24.58417398        2       0.00000000      -0.00404653      -0.00793803      -0.07366525
Pt       5.61442778       1.62074537      24.58417377        2       0.00000000      -0.00473264       0.00744043      -0.07354058
Pt       1.40360637       4.05186439      24.58417390        2       0.00000000       0.10783575       0.05958619       0.27899525
Pt       4.21082088       4.05186403      24.58417379        2       0.00000000       0.00637371      -0.56878293       0.29056248
Pt       7.01803504       4.05186408      24.58417406        2       0.00000000      -0.10557752       0.06367357       0.27894446
Pt       2.80721282       6.48298343      24.58417376        2       0.00000000      -0.49563885       0.27903599       0.29083622
Pt       5.61442796       6.48298325      24.58417391        2       0.00000000       0.48941374       0.28973952       0.29067332
Pt       8.42164222       6.48298341      24.58417381        2       0.00000000       0.00867670       0.00057443      -0.07332022
Pt      -0.00174058       0.14538103      27.19010007        1       0.00000000       0.00371415       0.03267208      -0.02255278
Pt       2.81719906       0.00501341      26.89728014        1       0.00000000       0.02985907       0.01180161      -0.00597656
Pt       5.60508112       0.00615373      26.89729626        1       0.00000000      -0.02513501       0.01998372      -0.00602726
Pt       1.41466040       2.42352559      26.89842718        1       0.00000000      -0.02544834       0.01706151      -0.01463577
Pt       4.21016312       2.41995235      26.89732852        1       0.00000000      -0.00464284      -0.03172690      -0.00596666
Pt       7.00591143       2.42533739      26.89844456        1       0.00000000       0.02763264       0.01330363      -0.01466402
Pt       2.68212206       4.78802783      27.19006631        1       0.00000000      -0.02893052      -0.01248132      -0.02207581
Pt       5.74122632       4.79102218      27.19008197        1       0.00000000       0.02518717      -0.01890613      -0.02208348
Pt       8.42266333       4.87561060      26.89837988        1       0.00000000      -0.00219029      -0.03058456      -0.01464413
C        4.21080630       5.67264534      27.90602839        0       1.00000000      -0.00000929      -0.00110610       0.03411704
H        4.21082002       5.67261318      25.35766596        0       0.00000000       0.00000379      -0.00001148      -0.00251423
