38
Lattice="8.421641763931781 0.0 0.0 4.2108208819658905 7.293355709136913 0.0 0.0 0.0 46.87624170604845" Properties=species:S:1:pos:R:3:tags:I:1:initial_magmoms:R:1:forces:R:3 charge=0 spin=0 energy=-197.50808501919033 free_energy=-197.50808501919033 stress="0.009057451970875263 -1.293029470161855e-07 5.36322408706269e-09 -1.293029470161855e-07 0.009057422168552876 5.4696236873041926e-08 5.36322408706269e-09 5.4696236873041926e-08 -0.0008545189630240202" pbc="T T T"
Pt      -0.00000012       0.00000002      19.95723426        4       0.00000000      -0.00743732      -0.00544431       0.01883739
Pt       2.80721404      -0.00000018      19.95723442        4       0.00000000      -0.00029983      -0.00597545       0.02190583
Pt       5.61442782      -0.00000007      19.95723448        4       0.00000000       0.00847192      -0.00372636       0.01888631
Pt       1.40360721       2.43111841      19.95723428        4       0.00000000      -0.00503602       0.00329331       0.02215787
Pt       4.21082083       2.43111835      19.95723436        4       0.00000000       0.00533483       0.00268772       0.02200335
Pt       7.01803478       2.43111845      19.95723424        4       0.00000000       0.00291256       0.02441092      -0.03720779
Pt       2.80721407       4.86223728      19.95723400        4       0.00000000      -0.00103034       0.00916932       0.01908854
Pt       5.61442803       4.86223733      19.95723419        4       0.00000000       0.01967405      -0.01473926      -0.03725670
Pt       8.42164139       4.86223726      19.95723434        4       0.00000000      -0.02258826      -0.00967762      -0.03704400
Pt       1.40360728       0.81037259      22.29206791        3       0.00000000      -0.01939042      -0.01737281      -0.01717284
Pt       4.21082130       0.81037249      22.29206784        3       0.00000000       0.02475747      -0.00803121      -0.01724919
Pt       7.01803471       0.81037256      22.29206781        3       0.00000000       0.00009763       0.10270398      -0.14903383
Pt       2.80721448       3.24149124      22.29206773        3       0.00000000      -0.00537647       0.02541458      -0.01668716
Pt       5.61442763       3.24149123      22.29206786        3       0.00000000       0.04261548       0.02395209      -0.19712770
Pt       8.42164156       3.24149129      22.29206804        3       0.00000000      -0.04214845       0.02481867      -0.19699210
Pt       4.21082092       5.67260997      22.29206793        3       0.00000000       0.08896815      -0.05149062      -0.14873381
Pt       7.01803487       5.67261037      22.29206776        3       0.00000000      -0.00045532      -0.04877897      -0.19726028
Pt       9.82524821       5.67261065      22.29206806        3       0.00000000      -0.08906706      -0.05122105      -0.14868060
Pt      -0.00000053       1.62074569      24.58417386        2       0.00000000      -0.03101380      -0.25980845       0.31787443
Pt       2.80721443       1.62074549      24.58417398        2       0.00000000       0.00000306      -0.00000576      -0.01355958
Pt       5.61442778       1.62074537      24.58417377        2       0.00000000       0.02800874      -0.25853720       0.31635308
Pt       1.40360637       4.05186439      24.58417390        2       0.00000000       0.20971857       0.15360717       0.31616184
Pt       4.21082088       4.05186403      24.58417379        2       0.00000000      -0.20916605       0.15680966       0.31734744
Pt       7.01803504       4.05186408      24.58417406        2       0.00000000      -0.00000897       0.00002477      -0.21585429
Pt       2.80721282       6.48298343      24.58417376        2       0.00000000       0.00001867      -0.00001073      -0.59254837
Pt       5.61442796       6.48298325      24.58417391        2       0.00000000      -0.23774807       0.10492285       0.31646061
Pt       8.42164222       6.48298341      24.58417381        2       0.00000000       0.24020231       0.10299125       0.31783003
Pt       0.09031642       0.05023486      27.29850912        1       0.00000000       0.03091856       0.01105576      -0.01026452
Pt       2.80752530      -0.00207582      26.89638027        1       0.00000000      -0.00239325      -0.01880826       0.01885156
Pt       5.52576922       0.05309611      27.29850825        1       0.00000000      -0.02505065       0.02126741      -0.01027202
Pt       1.40166902       2.43188504      26.89637496        1       0.00000000      -0.01506012       0.01164350       0.01896055
Pt       4.21246334       2.43242697      26.89637866        1       0.00000000       0.01759862       0.00716957       0.01895256
Pt       7.01983572       2.45091828      26.90115684        1       0.00000000      -0.00285798       0.03320542      -0.00318230
Pt       2.80556382       4.75890372      27.29851129        1       0.00000000      -0.00589611      -0.03230532      -0.01026465
Pt       5.63067702       4.85078446      26.90119194        1       0.00000000       0.03009695      -0.01429321      -0.00337325
Pt       8.40359072       4.85389812      26.90118513        1       0.00000000      -0.02739242      -0.01893672      -0.00335907
C       11.22885606       6.48298104      28.18219728        0       1.00000000       0.00003133       0.00001860       0.01095001
H       11.22884079       6.48297835      26.17950457        0       0.00000000      -0.00001227      -0.00000336      -0.02949746
