38
Lattice="8.421641763931781 0.0 0.0 4.2108208819658905 7.293355709136913 0.0 0.0 0.0 46.87624170604845" Properties=species:S:1:pos:R:3:tags:I:1:initial_magmoms:R:1:forces:R:3 charge=0 spin=0 energy=-192.90323234279873 free_energy=-192.90323234279873 stress="0.010190230794250965 -1.1723676607289235e-07 6.844457800525561e-08 -1.1723676607289235e-07 0.010190182365477085 -1.1552795342595346e-07 6.844457800525561e-08 -1.1552795342595346e-07 -0.00012902826711069793" pbc="T T T"
Pt      -0.00000012       0.00000002      19.95723426        4       0.00000000       0.00274435      -0.00335130       0.01719429
Pt       2.80721404      -0.00000018      19.95723442        4       0.00000000      -0.00055082      -0.00343866       0.01646503
Pt       5.61442782      -0.00000007      19.95723448        4       0.00000000       0.00000031       0.00000328       0.01357842
Pt       1.40360721       2.43111841      19.95723428        4       0.00000000      -0.00000062       0.00000031       0.01530271
Pt       4.21082083       2.43111835      19.95723436        4       0.00000000       0.00152955       0.00405460       0.01719325
Pt       7.01803478       2.43111845      19.95723424        4       0.00000000      -0.00270642       0.00219373       0.01644275
Pt       2.80721407       4.86223728      19.95723400        4       0.00000000       0.00325589       0.00124676       0.01645125
Pt       5.61442803       4.86223733      19.95723419        4       0.00000000      -0.00000047      -0.00000529      -0.01063095
Pt       8.42164139       4.86223726      19.95723434        4       0.00000000      -0.00426843      -0.00070667       0.01718363
Pt       1.40360728       0.81037259      22.29206791        3       0.00000000       0.00145004       0.00349588      -0.05266907
Pt       4.21082130       0.81037249      22.29206784        3       0.00000000       0.00109793      -0.00013948      -0.05217668
Pt       7.01803471       0.81037256      22.29206781        3       0.00000000      -0.00070210      -0.00087649      -0.05219563
Pt       2.80721448       3.24149124      22.29206773        3       0.00000000      -0.00372926      -0.00050296      -0.05267694
Pt       5.61442763       3.24149123      22.29206786        3       0.00000000      -0.00098803       0.00526831      -0.04063736
Pt       8.42164156       3.24149129      22.29206804        3       0.00000000       0.00227869      -0.00299741      -0.05267447
Pt       4.21082092       5.67260997      22.29206793        3       0.00000000       0.00506896      -0.00181012      -0.04064677
Pt       7.01803487       5.67261037      22.29206776        3       0.00000000      -0.00408137      -0.00346546      -0.04062155
Pt       9.82524821       5.67261065      22.29206806        3       0.00000000      -0.00038902       0.00100719      -0.05219012
Pt      -0.00000053       1.62074569      24.58417386        2       0.00000000       0.00062152       0.00761199       0.04777774
Pt       2.80721443       1.62074549      24.58417398        2       0.00000000      -0.00687910      -0.00318917       0.04779084
Pt       5.61442778       1.62074537      24.58417377        2       0.00000000       0.00056879       0.01118137       0.02810480
Pt       1.40360637       4.05186439      24.58417390        2       0.00000000       0.00623391      -0.00439020       0.04778278
Pt       4.21082088       4.05186403      24.58417379        2       0.00000000       0.00456717       0.00632107       0.03070047
Pt       7.01803504       4.05186408      24.58417406        2       0.00000000      -0.00777072       0.00073506       0.03067323
Pt       2.80721282       6.48298343      24.58417376        2       0.00000000       0.00935377      -0.00604250       0.02808513
Pt       5.61442796       6.48298325      24.58417391        2       0.00000000       0.00320903      -0.00707617       0.03061524
Pt       8.42164222       6.48298341      24.58417381        2       0.00000000      -0.00993197      -0.00509718       0.02804518
Pt       0.00983600       0.00177075      26.91955145        1       0.00000000       0.01443613       0.00132769      -0.00228801
Pt       2.79695533      -0.00069017      26.91969485        1       0.00000000      -0.01445109       0.00175732      -0.00208801
Pt       5.61441618       0.00001781      26.90104921        1       0.00000000      -0.00001780       0.00003630       0.04243673
Pt       1.40360722       2.43112535      26.92090420        1       0.00000000      -0.00001046      -0.00000011      -0.00563906
Pt       4.20437835       2.43877061      26.91955880        1       0.00000000      -0.00834292       0.01183737      -0.00226486
Pt       7.02256653       2.44035471      26.91970643        1       0.00000000       0.00873148       0.01163244      -0.00208937
Pt       2.81292726       4.85371304      26.91968161        1       0.00000000       0.00569741      -0.01338232      -0.00212504
Pt       5.61441974       4.86224357      26.92174326        1       0.00000000      -0.00000100       0.00000916      -0.01018049
Pt       8.41823483       4.85283898      26.91955957        1       0.00000000      -0.00608752      -0.01315022      -0.00230568
C        5.61435249       0.00012217      29.94205361        0       1.00000000      -0.00028220       0.00044578      -0.03602331
H        5.61457066      -0.00022215      28.76468665        0       0.00000000       0.00034656      -0.00054392       0.02029994
