38
Lattice="8.421641763931781 0.0 0.0 4.2108208819658905 7.293355709136913 0.0 0.0 0.0 46.87624170604845" Properties=species:S:1:pos:R:3:tags:I:1:initial_magmoms:R:1:forces:R:3 charge=0 spin=0 energy=-197.50848174770596 free_energy=-197.50848174770596 stress="0.009098628535866737 -1.6602504615548241e-07 1.2489294043405152e-09 -1.6602504615548241e-07 0.009098561480641365 6.770351745899461e-08 1.2489294043405152e-09 6.770351745899461e-08 -0.0007910599233582616" pbc="T T T"
Pt      -0.00000012       0.00000002      19.95723426        4       0.00000000       0.00277005       0.02441938      -0.03705344
Pt       2.80721404      -0.00000018      19.95723442        4       0.00000000      -0.00522998       0.00336352       0.02249646
Pt       5.61442782      -0.00000007      19.95723448        4       0.00000000       0.00548932       0.00282260       0.02234254
Pt       1.40360721       2.43111841      19.95723428        4       0.00000000      -0.02252494      -0.00980154      -0.03687912
Pt       4.21082083       2.43111835      19.95723436        4       0.00000000      -0.00099330       0.00929873       0.01955959
Pt       7.01803478       2.43111845      19.95723424        4       0.00000000       0.01975583      -0.01461450      -0.03709553
Pt       2.80721407       4.86223728      19.95723400        4       0.00000000       0.00856283      -0.00382635       0.01936712
Pt       5.61442803       4.86223733      19.95723419        4       0.00000000      -0.00756992      -0.00547570       0.01931167
Pt       8.42164139       4.86223726      19.95723434        4       0.00000000      -0.00025917      -0.00618359       0.02226561
Pt       1.40360728       0.81037259      22.29206791        3       0.00000000      -0.04238513       0.02488974      -0.19430217
Pt       4.21082130       0.81037249      22.29206784        3       0.00000000      -0.00538399       0.02506039      -0.01806973
Pt       7.01803471       0.81037256      22.29206781        3       0.00000000       0.04278566       0.02411787      -0.19443145
Pt       2.80721448       3.24149124      22.29206773        3       0.00000000      -0.08870126      -0.05080741      -0.15106134
Pt       5.61442763       3.24149123      22.29206786        3       0.00000000       0.08843945      -0.05135266      -0.15112139
Pt       8.42164156       3.24149129      22.29206804        3       0.00000000      -0.00039685      -0.04899693      -0.19459030
Pt       4.21082092       5.67260997      22.29206793        3       0.00000000       0.00024787       0.10217663      -0.15140210
Pt       7.01803487       5.67261037      22.29206776        3       0.00000000      -0.01906803      -0.01721478      -0.01857086
Pt       9.82524821       5.67261065      22.29206806        3       0.00000000       0.02445754      -0.00786095      -0.01864195
Pt      -0.00000053       1.62074569      24.58417386        2       0.00000000      -0.00000028      -0.00003878      -0.23457128
Pt       2.80721443       1.62074549      24.58417398        2       0.00000000       0.20877996       0.14276901       0.32873666
Pt       5.61442778       1.62074537      24.58417377        2       0.00000000      -0.20640363       0.14750153       0.33101287
Pt       1.40360637       4.05186439      24.58417390        2       0.00000000       0.23081957       0.10524640       0.33139098
Pt       4.21082088       4.05186403      24.58417379        2       0.00000000       0.00003636       0.00004594      -0.64003003
Pt       7.01803504       4.05186408      24.58417406        2       0.00000000      -0.22791621       0.10952576       0.32903749
Pt       2.80721282       6.48298343      24.58417376        2       0.00000000       0.01914706      -0.25230235       0.32898819
Pt       5.61442796       6.48298325      24.58417391        2       0.00000000      -0.02442954      -0.25274619       0.33161241
Pt       8.42164222       6.48298341      24.58417381        2       0.00000000      -0.00000970       0.00003722       0.02689003
Pt      -0.00015503       0.02709464      26.90279973        1       0.00000000       0.00451123      -0.01662282      -0.00144086
Pt       2.80167374       0.00232266      26.90737065        1       0.00000000       0.00535508      -0.00550332      -0.01677928
Pt       5.61919627       0.00363118      26.90738808        1       0.00000000      -0.00747762      -0.00178973      -0.01680367
Pt       1.38020501       2.41747268      26.90274798        1       0.00000000       0.01214441       0.01220116      -0.00137830
Pt       4.20670432       2.32682625      27.29537764        1       0.00000000       0.00257263      -0.00287967      -0.00407921
Pt       7.04155776       2.41767743      26.90276207        1       0.00000000      -0.01667399       0.00441950      -0.00141819
Pt       2.71895468       4.91797572      27.29537793        1       0.00000000      -0.00353385      -0.00092677      -0.00396420
Pt       5.70685261       4.91083765      27.29538649        1       0.00000000       0.00105160       0.00357080      -0.00405283
Pt       8.42244051       4.85629772      26.90734233        1       0.00000000       0.00213282       0.00737105      -0.01675871
C        4.21085003       4.05187308      28.18018867        0       1.00000000      -0.00003986       0.00017637      -0.00909378
H        4.21076985       4.05179114      26.17534442        0       0.00000000      -0.00006161      -0.00006950       0.02057787
