38
Lattice="8.421641763931781 0.0 0.0 4.2108208819658905 7.293355709136913 0.0 0.0 0.0 46.87624170604845" Properties=species:S:1:pos:R:3:tags:I:1:initial_magmoms:R:1:forces:R:3 charge=0 spin=0 energy=-192.90322852810147 free_energy=-192.90322852810147 stress="0.01019021961838007 -1.0541477735159788e-07 1.2593017295614573e-08 -1.0541477735159788e-07 0.010190206579864025 -1.403597149618463e-08 1.2593017295614573e-08 -1.403597149618463e-08 -0.00012903386959806085" pbc="T T T"
Pt      -0.00000012       0.00000002      19.95723426        4       0.00000000       0.00000205      -0.00000111       0.01358720
Pt       2.80721404      -0.00000018      19.95723442        4       0.00000000       0.00274087      -0.00334840       0.01718615
Pt       5.61442782      -0.00000007      19.95723448        4       0.00000000      -0.00054950      -0.00343854       0.01646603
Pt       1.40360721       2.43111841      19.95723428        4       0.00000000      -0.00270586       0.00219291       0.01644285
Pt       4.21082083       2.43111835      19.95723436        4       0.00000000       0.00000238       0.00000160       0.01530244
Pt       7.01803478       2.43111845      19.95723424        4       0.00000000       0.00152573       0.00405380       0.01719213
Pt       2.80721407       4.86223728      19.95723400        4       0.00000000      -0.00426828      -0.00070495       0.01718447
Pt       5.61442803       4.86223733      19.95723419        4       0.00000000       0.00325285       0.00124658       0.01645051
Pt       8.42164139       4.86223726      19.95723434        4       0.00000000       0.00000217      -0.00000450      -0.01063239
Pt       1.40360728       0.81037259      22.29206791        3       0.00000000      -0.00070715      -0.00087452      -0.05219461
Pt       4.21082130       0.81037249      22.29206784        3       0.00000000       0.00145147       0.00350252      -0.05266741
Pt       7.01803471       0.81037256      22.29206781        3       0.00000000       0.00110039      -0.00014110      -0.05217832
Pt       2.80721448       3.24149124      22.29206773        3       0.00000000       0.00226733      -0.00299393      -0.05267506
Pt       5.61442763       3.24149123      22.29206786        3       0.00000000      -0.00371981      -0.00050156      -0.05267854
Pt       8.42164156       3.24149129      22.29206804        3       0.00000000      -0.00098662       0.00527071      -0.04064191
Pt       4.21082092       5.67260997      22.29206793        3       0.00000000      -0.00039868       0.00102243      -0.05218730
Pt       7.01803487       5.67261037      22.29206776        3       0.00000000       0.00506921      -0.00181711      -0.04064208
Pt       9.82524821       5.67261065      22.29206806        3       0.00000000      -0.00407351      -0.00346991      -0.04062483
Pt      -0.00000053       1.62074569      24.58417386        2       0.00000000       0.00057261       0.01114319       0.02812432
Pt       2.80721443       1.62074549      24.58417398        2       0.00000000       0.00061724       0.00759719       0.04777862
Pt       5.61442778       1.62074537      24.58417377        2       0.00000000      -0.00687647      -0.00319459       0.04777654
Pt       1.40360637       4.05186439      24.58417390        2       0.00000000      -0.00775735       0.00073506       0.03066784
Pt       4.21082088       4.05186403      24.58417379        2       0.00000000       0.00623715      -0.00438208       0.04780109
Pt       7.01803504       4.05186408      24.58417406        2       0.00000000       0.00455501       0.00633339       0.03069633
Pt       2.80721282       6.48298343      24.58417376        2       0.00000000      -0.00989967      -0.00509663       0.02805829
Pt       5.61442796       6.48298325      24.58417391        2       0.00000000       0.00935180      -0.00604801       0.02809151
Pt       8.42164222       6.48298341      24.58417381        2       0.00000000       0.00319498      -0.00707990       0.03061295
Pt      -0.00000351       0.00000288      26.90105351        1       0.00000000      -0.00000364       0.00000611       0.04235626
Pt       2.81705465       0.00176637      26.91955526        1       0.00000000       0.01442496       0.00132163      -0.00228146
Pt       5.60417116      -0.00069384      26.91969289        1       0.00000000      -0.01443866       0.00175504      -0.00209541
Pt       1.40814115       2.44035046      26.91970269        1       0.00000000       0.00873255       0.01162156      -0.00209461
Pt       4.21082317       2.43112157      26.92090430        1       0.00000000      -0.00000515      -0.00000584      -0.00563819
Pt       7.01159434       2.43876434      26.91955311        1       0.00000000      -0.00834037       0.01182570      -0.00227919
Pt       2.80380726       4.85283209      26.91956225        1       0.00000000      -0.00607945      -0.01314561      -0.00229898
Pt       5.62014628       4.85370560      26.91968749        1       0.00000000       0.00569536      -0.01337139      -0.00211323
Pt       8.42163589       4.86223937      26.92174318        1       0.00000000       0.00000512       0.00000068      -0.01017552
C        0.00000184       0.00000814      29.94203998        0       1.00000000      -0.00002565       0.00004020      -0.03602857
H        0.00002054      -0.00002256      28.76467134        0       0.00000000       0.00003433      -0.00005043       0.02035198
