38
Lattice="8.421641763931781 0.0 0.0 4.2108208819658905 7.293355709136913 0.0 0.0 0.0 46.87624170604845" Properties=species:S:1:pos:R:3:tags:I:1:initial_magmoms:R:1:forces:R:3 charge=0 spin=0 energy=-197.50844550808193 free_energy=-197.50844550808193 stress="0.009107107296586037 -3.578334997200727e-07 9.575244774850944e-08 -3.578334997200727e-07 0.009108148515224457 5.484214966600121e-07 9.575244774850944e-08 5.484214966600121e-07 -0.0007797001162543893" pbc="T T T"
Pt      -0.00000012       0.00000002      19.95723426        4       0.00000000      -0.00520269       0.00341196       0.02253276
Pt       2.80721404      -0.00000018      19.95723442        4       0.00000000       0.00553345       0.00276353       0.02236839
Pt       5.61442782      -0.00000007      19.95723448        4       0.00000000       0.00272578       0.02447831      -0.03709822
Pt       1.40360721       2.43111841      19.95723428        4       0.00000000      -0.00104767       0.00932574       0.01956360
Pt       4.21082083       2.43111835      19.95723436        4       0.00000000       0.01979509      -0.01459206      -0.03709267
Pt       7.01803478       2.43111845      19.95723424        4       0.00000000      -0.02247559      -0.00981963      -0.03681451
Pt       2.80721407       4.86223728      19.95723400        4       0.00000000      -0.00756888      -0.00554008       0.01934104
Pt       5.61442803       4.86223733      19.95723419        4       0.00000000      -0.00033791      -0.00618548       0.02228836
Pt       8.42164139       4.86223726      19.95723434        4       0.00000000       0.00861486      -0.00379333       0.01937157
Pt       1.40360728       0.81037259      22.29206791        3       0.00000000      -0.00527452       0.02496102      -0.01836288
Pt       4.21082130       0.81037249      22.29206784        3       0.00000000       0.04259633       0.02395285      -0.19426237
Pt       7.01803471       0.81037256      22.29206781        3       0.00000000      -0.04216747       0.02481127      -0.19412847
Pt       2.80721448       3.24149124      22.29206773        3       0.00000000       0.08832026      -0.05135074      -0.15098368
Pt       5.61442763       3.24149123      22.29206786        3       0.00000000      -0.00044484      -0.04877305      -0.19442417
Pt       8.42164156       3.24149129      22.29206804        3       0.00000000      -0.08860509      -0.05071550      -0.15094143
Pt       4.21082092       5.67260997      22.29206793        3       0.00000000      -0.01906702      -0.01708142      -0.01881420
Pt       7.01803487       5.67261037      22.29206776        3       0.00000000       0.02430981      -0.00792954      -0.01889897
Pt       9.82524821       5.67261065      22.29206806        3       0.00000000       0.00030196       0.10213515      -0.15129542
Pt      -0.00000053       1.62074569      24.58417386        2       0.00000000       0.20730524       0.14188023       0.33086079
Pt       2.80721443       1.62074549      24.58417398        2       0.00000000      -0.20564944       0.14755878       0.33017817
Pt       5.61442778       1.62074537      24.58417377        2       0.00000000      -0.00002746      -0.00006994      -0.22959857
Pt       1.40360637       4.05186439      24.58417390        2       0.00000000       0.00049699       0.00057086      -0.64364195
Pt       4.21082088       4.05186403      24.58417379        2       0.00000000      -0.22665039       0.10880174       0.33175221
Pt       7.01803504       4.05186408      24.58417406        2       0.00000000       0.23039423       0.10480469       0.33043492
Pt       2.80721282       6.48298343      24.58417376        2       0.00000000      -0.02471750      -0.25231475       0.33128774
Pt       5.61442796       6.48298325      24.58417391        2       0.00000000      -0.00005730       0.00004881       0.02967123
Pt       8.42164222       6.48298341      24.58417381        2       0.00000000       0.01936644      -0.25072381       0.33149183
Pt      -0.00664972       0.00189670      26.90767644        1       0.00000000       0.01158986      -0.00118700      -0.01784726
Pt       2.81209239       0.00505104      26.90763798        1       0.00000000      -0.00616801      -0.01008196      -0.01770205
Pt       5.61565188       0.02687962      26.90393069        1       0.00000000      -0.00070276      -0.01356939      -0.00520013
Pt       1.39942419       2.32704477      27.29439627        1       0.00000000      -0.00010717       0.00447337       0.00019266
Pt       4.23354886       2.41673465      26.90385148        1       0.00000000      -0.01156852       0.00754319      -0.00501921
Pt       6.99420432       2.41880958      26.90377092        1       0.00000000       0.01222563       0.00601097      -0.00469248
Pt       2.89963334       4.91076840      27.29449805        1       0.00000000      -0.00095852      -0.00115510      -0.00151246
Pt       5.61652006       4.85557487      26.90764594        1       0.00000000      -0.00643501       0.01077292      -0.01780080
Pt       8.33362617       4.91810005      27.29444578        1       0.00000000       0.00287896      -0.00089703      -0.00056836
C        9.82542899       4.05215067      28.18089294        0       1.00000000      -0.00034372      -0.00122577      -0.01808663
H        9.82439059       4.05066796      26.17529552        0       0.00000000      -0.00087748      -0.00129966       0.02345221
