38
Lattice="8.421641763931781 0.0 0.0 4.2108208819658905 7.293355709136913 0.0 0.0 0.0 46.87624170604845" Properties=species:S:1:pos:R:3:tags:I:1:initial_magmoms:R:1:forces:R:3 charge=0 spin=0 energy=-197.9398286410165 free_energy=-197.9398286410165 stress="0.007027248851954937 -1.3395252551617887e-07 3.311211216328047e-08 -1.3395252551617887e-07 0.007027297746390104 -2.4732477754696447e-07 3.311211216328047e-08 -2.4732477754696447e-07 -0.0010596330976113677" pbc="T T T"
Pt      -0.00000012       0.00000002      19.95723426        4       0.00000000      -0.00034514      -0.00450109       0.01460865
Pt       2.80721404      -0.00000018      19.95723442        4       0.00000000       0.00404467       0.00194813       0.01472473
Pt       5.61442782      -0.00000007      19.95723448        4       0.00000000       0.00097502       0.00825961       0.01817370
Pt       1.40360721       2.43111841      19.95723428        4       0.00000000      -0.00369861       0.00255518       0.01477553
Pt       4.21082083       2.43111835      19.95723436        4       0.00000000       0.00845407       0.00316195      -0.02566221
Pt       7.01803478       2.43111845      19.95723424        4       0.00000000      -0.00701119       0.00573318      -0.02574929
Pt       2.80721407       4.86223728      19.95723400        4       0.00000000       0.00670996      -0.00503120       0.01823721
Pt       5.61442803       4.86223733      19.95723419        4       0.00000000      -0.00144397      -0.00889606      -0.02573784
Pt       8.42164139       4.86223726      19.95723434        4       0.00000000      -0.00767980      -0.00323203       0.01827315
Pt       1.40360728       0.81037259      22.29206791        3       0.00000000      -0.00000204       0.00000266      -0.11068089
Pt       4.21082130       0.81037249      22.29206784        3       0.00000000       0.00627737       0.07274637      -0.12918942
Pt       7.01803471       0.81037256      22.29206781        3       0.00000000      -0.00261318       0.08114597      -0.13668154
Pt       2.80721448       3.24149124      22.29206773        3       0.00000000       0.07156993      -0.03839805      -0.13648836
Pt       5.61442763       3.24149123      22.29206786        3       0.00000000       0.00000379       0.00000060      -0.26885104
Pt       8.42164156       3.24149129      22.29206804        3       0.00000000      -0.06603722      -0.03089745      -0.12884864
Pt       4.21082092       5.67260997      22.29206793        3       0.00000000       0.05976471      -0.04183825      -0.12929991
Pt       7.01803487       5.67261037      22.29206776        3       0.00000000      -0.06896180      -0.04274752      -0.13687396
Pt       9.82524821       5.67261065      22.29206806        3       0.00000000       0.00000574      -0.00001077      -0.22391264
Pt      -0.00000053       1.62074569      24.58417386        2       0.00000000      -0.00751320      -0.00481279      -0.08045281
Pt       2.80721443       1.62074549      24.58417398        2       0.00000000      -0.00027706       0.00885124      -0.08038834
Pt       5.61442778       1.62074537      24.58417377        2       0.00000000      -0.00379691      -0.12444268       0.26744401
Pt       1.40360637       4.05186439      24.58417390        2       0.00000000       0.00674559      -0.56732863       0.28544140
Pt       4.21082088       4.05186403      24.58417379        2       0.00000000      -0.10580876       0.06554670       0.26745331
Pt       7.01803504       4.05186408      24.58417406        2       0.00000000       0.10953134       0.05889614       0.26758143
Pt       2.80721282       6.48298343      24.58417376        2       0.00000000       0.48801079       0.28933740       0.28558016
Pt       5.61442796       6.48298325      24.58417391        2       0.00000000       0.00767037      -0.00401534      -0.08011999
Pt       8.42164222       6.48298341      24.58417381        2       0.00000000      -0.49459508       0.27797902       0.28574759
Pt       0.01480850       0.00887420      26.89672753        1       0.00000000       0.00340997      -0.00896399      -0.00210141
Pt       2.79209006       0.00838045      26.89671102        1       0.00000000       0.00622647       0.00749681      -0.00206746
Pt       5.61245331       0.14329104      27.18118866        1       0.00000000       0.00082661       0.00737387      -0.00145665
Pt       1.40390460       2.41384531      26.89673801        1       0.00000000      -0.00947077       0.00158090      -0.00198523
Pt       4.20201973       2.42896665      26.89685389        1       0.00000000       0.01401241      -0.00493323      -0.00362736
Pt       7.02431975       2.42458906      26.89688048        1       0.00000000      -0.00288380       0.01443029      -0.00371678
Pt       2.93230673       4.79231154      27.18119082        1       0.00000000       0.00574230      -0.00447453      -0.00140856
Pt       5.61691429       4.87093485      26.89684056        1       0.00000000      -0.01097466      -0.00970417      -0.00374717
Pt       8.29853581       4.78887595      27.18118202        1       0.00000000      -0.00682958      -0.00282114      -0.00143630
C        9.82525007       5.67260713      27.90897294        0       1.00000000      -0.00003579       0.00000888       0.00193689
H        9.82524830       5.67261248      25.36173603        0       0.00000000      -0.00000236      -0.00000590      -0.01949379
