38
Lattice="8.421641763931781 0.0 0.0 4.2108208819658905 7.293355709136913 0.0 0.0 0.0 46.87624170604845" Properties=species:S:1:pos:R:3:tags:I:1:initial_magmoms:R:1:forces:R:3 charge=0 spin=0 energy=-197.93990874965908 free_energy=-197.93990874965908 stress="0.007024439051747322 3.536391446345988e-08 1.720794529092018e-07 3.536391446345988e-08 0.007020904216915369 1.0113564030689304e-06 1.720794529092018e-07 1.0113564030689304e-06 -0.001091263024136424" pbc="T T T"
Pt      -0.00000012       0.00000002      19.95723426        4       0.00000000       0.00401000       0.00169621       0.01464703
Pt       2.80721404      -0.00000018      19.95723442        4       0.00000000       0.00109329       0.00828122       0.01819227
Pt       5.61442782      -0.00000007      19.95723448        4       0.00000000      -0.00052826      -0.00436511       0.01451071
Pt       1.40360721       2.43111841      19.95723428        4       0.00000000       0.00841795       0.00311219      -0.02580835
Pt       4.21082083       2.43111835      19.95723436        4       0.00000000      -0.00695524       0.00571632      -0.02589978
Pt       7.01803478       2.43111845      19.95723424        4       0.00000000      -0.00348154       0.00262911       0.01469661
Pt       2.80721407       4.86223728      19.95723400        4       0.00000000      -0.00145847      -0.00884308      -0.02590330
Pt       5.61442803       4.86223733      19.95723419        4       0.00000000      -0.00777426      -0.00316066       0.01830345
Pt       8.42164139       4.86223726      19.95723434        4       0.00000000       0.00668141      -0.00516460       0.01826356
Pt       1.40360728       0.81037259      22.29206791        3       0.00000000       0.00620097       0.07274570      -0.12942880
Pt       4.21082130       0.81037249      22.29206784        3       0.00000000      -0.00264198       0.08141518      -0.13576849
Pt       7.01803471       0.81037256      22.29206781        3       0.00000000      -0.00000563      -0.00003342      -0.11084086
Pt       2.80721448       3.24149124      22.29206773        3       0.00000000      -0.00000598       0.00000015      -0.26908129
Pt       5.61442763       3.24149123      22.29206786        3       0.00000000      -0.06604260      -0.03103541      -0.12911037
Pt       8.42164156       3.24149129      22.29206804        3       0.00000000       0.07184781      -0.03859185      -0.13561644
Pt       4.21082092       5.67260997      22.29206793        3       0.00000000      -0.06923451      -0.04293693      -0.13596007
Pt       7.01803487       5.67261037      22.29206776        3       0.00000000      -0.00000717      -0.00004799      -0.22470890
Pt       9.82524821       5.67261065      22.29206806        3       0.00000000       0.05984360      -0.04184066      -0.12953141
Pt      -0.00000053       1.62074569      24.58417386        2       0.00000000      -0.00087601       0.01134228      -0.08832223
Pt       2.80721443       1.62074549      24.58417398        2       0.00000000      -0.00147752      -0.12721498       0.26229608
Pt       5.61442778       1.62074537      24.58417377        2       0.00000000      -0.00921302      -0.00633422      -0.08840874
Pt       1.40360637       4.05186439      24.58417390        2       0.00000000      -0.10935276       0.06513677       0.26216355
Pt       4.21082088       4.05186403      24.58417379        2       0.00000000       0.11081417       0.06252091       0.26220486
Pt       7.01803504       4.05186408      24.58417406        2       0.00000000       0.00713055      -0.57452208       0.27909628
Pt       2.80721282       6.48298343      24.58417376        2       0.00000000       0.01004419      -0.00455179      -0.08807950
Pt       5.61442796       6.48298325      24.58417391        2       0.00000000      -0.50104725       0.28132412       0.27953029
Pt       8.42164222       6.48298341      24.58417381        2       0.00000000       0.49406505       0.29335859       0.27941945
Pt      -0.01351776       0.01145002      26.89436706        1       0.00000000       0.00143342      -0.00287349       0.00612362
Pt       2.80711723       0.14336643      27.18021765        1       0.00000000       0.00308575      -0.01284004       0.00663022
Pt       5.63096086       0.00631235      26.89436756        1       0.00000000      -0.00317692       0.00014715       0.00612810
Pt       1.39725956       2.42739044      26.89475125        1       0.00000000       0.00181160       0.00617134       0.00409276
Pt       4.21742628       2.42775034      26.89475983        1       0.00000000      -0.00610798      -0.00122006       0.00407174
Pt       7.01509387       2.41403070      26.89440447        1       0.00000000       0.00185176       0.00262342       0.00618249
Pt       2.80701711       4.86995213      26.89478329        1       0.00000000       0.00424886      -0.00487423       0.00393657
Pt       5.49048778       4.79077647      27.18030226        1       0.00000000       0.01347639       0.01103476       0.00810977
Pt       8.54575251       4.79101199      27.18028833        1       0.00000000      -0.01612671       0.00523120       0.00792937
C        7.01809275       5.67310298      27.91222160        0       1.00000000      -0.00055939      -0.00410617      -0.02854377
H        7.01802285       5.67254168      25.35835332        0       0.00000000       0.00001656       0.00006999      -0.00551678
