38
Lattice="8.421641763931781 0.0 0.0 4.2108208819658905 7.293355709136913 0.0 0.0 0.0 46.87624170604845" Properties=species:S:1:pos:R:3:tags:I:1:initial_magmoms:R:1:forces:R:3 charge=0 spin=0 energy=-198.04622817714932 free_energy=-198.04622817714932 stress="0.0073809074237942696 0.0003138225001748651 -7.13311237632297e-05 0.0003138225001748651 0.007972104474902153 1.8444239685777575e-05 -7.13311237632297e-05 1.8444239685777575e-05 -0.0007627701852470636" pbc="T T T"
Pt      -0.00000012       0.00000002      19.95723426        4       0.00000000      -0.00651409      -0.00670156      -0.01134405
Pt       2.80721404      -0.00000018      19.95723442        4       0.00000000      -0.03431226      -0.01272815      -0.01528017
Pt       5.61442782      -0.00000007      19.95723448        4       0.00000000       0.00230284       0.00425849       0.01453917
Pt       1.40360721       2.43111841      19.95723428        4       0.00000000      -0.00413583       0.00960028      -0.01288796
Pt       4.21082083       2.43111835      19.95723436        4       0.00000000       0.00016968       0.00724409       0.02505059
Pt       7.01803478       2.43111845      19.95723424        4       0.00000000       0.00672097      -0.00086821       0.01966846
Pt       2.80721407       4.86223728      19.95723400        4       0.00000000       0.00704634       0.00043835       0.01092198
Pt       5.61442803       4.86223733      19.95723419        4       0.00000000       0.00634996       0.01327809       0.00085034
Pt       8.42164139       4.86223726      19.95723434        4       0.00000000      -0.00083941      -0.00405689       0.00952366
Pt       1.40360728       0.81037259      22.29206791        3       0.00000000       0.01280428       0.00381613      -0.27275017
Pt       4.21082130       0.81037249      22.29206784        3       0.00000000      -0.10015959      -0.04986053      -0.20324913
Pt       7.01803471       0.81037256      22.29206781        3       0.00000000       0.03717784      -0.01126547      -0.07918493
Pt       2.80721448       3.24149124      22.29206773        3       0.00000000      -0.00384212      -0.02641824      -0.07769798
Pt       5.61442763       3.24149123      22.29206786        3       0.00000000      -0.00108138       0.02202277       0.01634674
Pt       8.42164156       3.24149129      22.29206804        3       0.00000000       0.00878736      -0.01135358      -0.05301686
Pt       4.21082092       5.67260997      22.29206793        3       0.00000000       0.02885225       0.03062458      -0.09155687
Pt       7.01803487       5.67261037      22.29206776        3       0.00000000      -0.00522236       0.07384686      -0.18526027
Pt       9.82524821       5.67261065      22.29206806        3       0.00000000      -0.01159003       0.01152474      -0.08053143
Pt      -0.00000053       1.62074569      24.58417386        2       0.00000000      -0.12966672       0.11249548       0.17360543
Pt       2.80721443       1.62074549      24.58417398        2       0.00000000       0.11253826       0.04491243       0.17514241
Pt       5.61442778       1.62074537      24.58417377        2       0.00000000       0.10390402       0.20954789       0.20773403
Pt       1.40360637       4.05186439      24.58417390        2       0.00000000      -0.06980278      -0.03775819      -0.09828047
Pt       4.21082088       4.05186403      24.58417379        2       0.00000000       0.08805230      -0.06773131       0.15819180
Pt       7.01803504       4.05186408      24.58417406        2       0.00000000      -0.06686628      -0.16372724       0.24484979
Pt       2.80721282       6.48298343      24.58417376        2       0.00000000       0.01453668      -0.01805089      -0.04565899
Pt       5.61442796       6.48298325      24.58417391        2       0.00000000      -0.03402852      -0.13215561       0.12877287
Pt       8.42164222       6.48298341      24.58417381        2       0.00000000       0.01971351      -0.05426339       0.01916058
Pt       0.01079376      -0.03055392      26.91716030        1       0.00000000      -0.00778825       0.04190610      -0.00304444
Pt       2.80164942      -0.02127638      26.90167183        1       0.00000000      -0.01187261      -0.01239103      -0.01277089
Pt       5.58229157      -0.05636990      26.96922797        1       0.00000000       0.01726008       0.01356371       0.02391662
Pt       1.38557542       2.41824366      26.88010119        1       0.00000000       0.00897933      -0.02693444       0.00998933
Pt       4.08351245       2.37329242      27.07093669        1       0.00000000       0.00156969       0.00875741       0.02324839
Pt       7.23211242       2.31221555      27.59147669        1       0.00000000      -0.02764043      -0.01843521      -0.02140817
Pt       2.75536608       4.86372087      26.88357851        1       0.00000000       0.01035389       0.01743579       0.00715663
Pt       5.60398741       4.94705763      27.00736808        1       0.00000000      -0.00404665       0.01132230      -0.00223886
Pt       8.40586837       4.81081536      26.90703017        1       0.00000000      -0.00360341       0.02590080       0.00160404
C        5.59216482       3.24376775      27.85424017        0       1.00000000       0.01093936      -0.01632630      -0.00762674
H        6.32653706       1.45860869      26.23271124        0       0.00000000       0.02495408       0.00853013       0.00351574
