38
Lattice="8.421641763931781 0.0 0.0 4.2108208819658905 7.293355709136913 0.0 0.0 0.0 46.87624170604845" Properties=species:S:1:pos:R:3:tags:I:1:initial_magmoms:R:1:forces:R:3 charge=0 spin=0 energy=-197.93982673366787 free_energy=-197.93982673366787 stress="0.007027260027825832 -1.1387299991838518e-07 4.056755642523058e-08 -1.1387299991838518e-07 0.007027328945696354 -2.597461730147188e-07 4.056755642523058e-08 -2.597461730147188e-07 -0.0010596077190712094" pbc="T T T"
Pt      -0.00000012       0.00000002      19.95723426        4       0.00000000       0.00845372       0.00315921      -0.02566280
Pt       2.80721404      -0.00000018      19.95723442        4       0.00000000      -0.00701160       0.00573501      -0.02575873
Pt       5.61442782      -0.00000007      19.95723448        4       0.00000000      -0.00369829       0.00255786       0.01476599
Pt       1.40360721       2.43111841      19.95723428        4       0.00000000      -0.00144265      -0.00889148      -0.02573678
Pt       4.21082083       2.43111835      19.95723436        4       0.00000000      -0.00767912      -0.00322594       0.01827419
Pt       7.01803478       2.43111845      19.95723424        4       0.00000000       0.00670754      -0.00502673       0.01823659
Pt       2.80721407       4.86223728      19.95723400        4       0.00000000       0.00404758       0.00194185       0.01473488
Pt       5.61442803       4.86223733      19.95723419        4       0.00000000       0.00097308       0.00825218       0.01818267
Pt       8.42164139       4.86223726      19.95723434        4       0.00000000      -0.00034568      -0.00450465       0.01460855
Pt       1.40360728       0.81037259      22.29206791        3       0.00000000      -0.00000163       0.00000316      -0.26884830
Pt       4.21082130       0.81037249      22.29206784        3       0.00000000      -0.06604259      -0.03089103      -0.12884408
Pt       7.01803471       0.81037256      22.29206781        3       0.00000000       0.07157851      -0.03839663      -0.13648632
Pt       2.80721448       3.24149124      22.29206773        3       0.00000000      -0.06896648      -0.04274004      -0.13687903
Pt       5.61442763       3.24149123      22.29206786        3       0.00000000       0.00000212       0.00000052      -0.22391528
Pt       8.42164156       3.24149129      22.29206804        3       0.00000000       0.05977184      -0.04184000      -0.12930395
Pt       4.21082092       5.67260997      22.29206793        3       0.00000000       0.00627690       0.07274126      -0.12919046
Pt       7.01803487       5.67261037      22.29206776        3       0.00000000      -0.00261782       0.08113661      -0.13667898
Pt       9.82524821       5.67261065      22.29206806        3       0.00000000       0.00000769      -0.00001115      -0.11068081
Pt      -0.00000053       1.62074569      24.58417386        2       0.00000000      -0.10580541       0.06554200       0.26745641
Pt       2.80721443       1.62074549      24.58417398        2       0.00000000       0.10952906       0.05889790       0.26758146
Pt       5.61442778       1.62074537      24.58417377        2       0.00000000       0.00674234      -0.56731707       0.28544295
Pt       1.40360637       4.05186439      24.58417390        2       0.00000000       0.00767644      -0.00401667      -0.08012207
Pt       4.21082088       4.05186403      24.58417379        2       0.00000000      -0.49458516       0.27799007       0.28575069
Pt       7.01803504       4.05186408      24.58417406        2       0.00000000       0.48799378       0.28934801       0.28558373
Pt       2.80721282       6.48298343      24.58417376        2       0.00000000      -0.00025903       0.00884078      -0.08038606
Pt       5.61442796       6.48298325      24.58417391        2       0.00000000      -0.00379991      -0.12445015       0.26745367
Pt       8.42164222       6.48298341      24.58417381        2       0.00000000      -0.00752180      -0.00482121      -0.08045091
Pt      -0.00880021      -0.00215220      26.89685378        1       0.00000000       0.01401359      -0.00493045      -0.00363341
Pt       2.81350936      -0.00652750      26.89688015        1       0.00000000      -0.00293087       0.01440271      -0.00371649
Pt       5.61472622      -0.01726978      26.89673880        1       0.00000000      -0.00946832       0.00156553      -0.00198178
Pt       1.40609427       2.43981464      26.89684173        1       0.00000000      -0.01098169      -0.00970412      -0.00374772
Pt       4.08771698       2.35775857      27.18118490        1       0.00000000      -0.00684674      -0.00281169      -0.00144224
Pt       7.14312517       2.36119187      27.18119221        1       0.00000000       0.00578404      -0.00447849      -0.00142158
Pt       2.79208295       4.87061686      26.89671083        1       0.00000000       0.00624672       0.00750098      -0.00206852
Pt       5.61245029       5.00552883      27.18119021        1       0.00000000       0.00084834       0.00736579      -0.00145788
Pt       8.43644819       4.87111043      26.89672855        1       0.00000000       0.00340706      -0.00896424      -0.00210522
C        5.61443107       3.24148779      27.90897704        0       1.00000000      -0.00005295       0.00004587       0.00193681
H        5.61442787       3.24149503      25.36173444        0       0.00000000      -0.00000278      -0.00000555      -0.01948919
