38
Lattice="8.421641763931781 0.0 0.0 4.2108208819658905 7.293355709136913 0.0 0.0 0.0 46.87624170604845" Properties=species:S:1:pos:R:3:tags:I:1:initial_magmoms:R:1:forces:R:3 charge=0 spin=0 energy=-197.9398286410165 free_energy=-197.9398286410165 stress="0.0070272344164550304 -1.0163536501295312e-07 4.8689464904327906e-08 -1.0163536501295312e-07 0.007027251645922661 -2.4066000037237245e-07 4.8689464904327906e-08 -2.4066000037237245e-07 -0.0010596464853733778" pbc="T T T"
Pt      -0.00000012       0.00000002      19.95723426        4       0.00000000       0.00671081      -0.00502860       0.01823648
Pt       2.80721404      -0.00000018      19.95723442        4       0.00000000      -0.00144417      -0.00889004      -0.02574738
Pt       5.61442782      -0.00000007      19.95723448        4       0.00000000      -0.00768145      -0.00322397       0.01826418
Pt       1.40360721       2.43111841      19.95723428        4       0.00000000      -0.00034769      -0.00449915       0.01460990
Pt       4.21082083       2.43111835      19.95723436        4       0.00000000       0.00404820       0.00194713       0.01473473
Pt       7.01803478       2.43111845      19.95723424        4       0.00000000       0.00097393       0.00825685       0.01818301
Pt       2.80721407       4.86223728      19.95723400        4       0.00000000      -0.00369694       0.00255070       0.01477566
Pt       5.61442803       4.86223733      19.95723419        4       0.00000000       0.00845041       0.00315674      -0.02566267
Pt       8.42164139       4.86223726      19.95723434        4       0.00000000      -0.00700853       0.00572768      -0.02574972
Pt       1.40360728       0.81037259      22.29206791        3       0.00000000       0.05976383      -0.04183714      -0.12929797
Pt       4.21082130       0.81037249      22.29206784        3       0.00000000      -0.06895994      -0.04273502      -0.13687696
Pt       7.01803471       0.81037256      22.29206781        3       0.00000000       0.00000077       0.00000420      -0.22390708
Pt       2.80721448       3.24149124      22.29206773        3       0.00000000      -0.00000595       0.00000139      -0.11068161
Pt       5.61442763       3.24149123      22.29206786        3       0.00000000       0.00628172       0.07273812      -0.12919319
Pt       8.42164156       3.24149129      22.29206804        3       0.00000000      -0.00261177       0.08114394      -0.13668440
Pt       4.21082092       5.67260997      22.29206793        3       0.00000000       0.07157487      -0.03839739      -0.13648728
Pt       7.01803487       5.67261037      22.29206776        3       0.00000000      -0.00000055      -0.00000614      -0.26884764
Pt       9.82524821       5.67261065      22.29206806        3       0.00000000      -0.06603458      -0.03090945      -0.12884659
Pt      -0.00000053       1.62074569      24.58417386        2       0.00000000       0.48798144       0.28933325       0.28558815
Pt       2.80721443       1.62074549      24.58417398        2       0.00000000       0.00766298      -0.00400958      -0.08011852
Pt       5.61442778       1.62074537      24.58417377        2       0.00000000      -0.49456212       0.27798083       0.28575143
Pt       1.40360637       4.05186439      24.58417390        2       0.00000000      -0.00750500      -0.00482072      -0.08045387
Pt       4.21082088       4.05186403      24.58417379        2       0.00000000      -0.00027657       0.00885295      -0.08038361
Pt       7.01803504       4.05186408      24.58417406        2       0.00000000      -0.00379788      -0.12444724       0.26744950
Pt       2.80721282       6.48298343      24.58417376        2       0.00000000       0.00675389      -0.56730962       0.28545001
Pt       5.61442796       6.48298325      24.58417391        2       0.00000000      -0.10581345       0.06554166       0.26745605
Pt       8.42164222       6.48298341      24.58417381        2       0.00000000       0.10952410       0.05888956       0.26757681
Pt       0.12508888      -0.06992463      27.18119426        1       0.00000000       0.00586574      -0.00454209      -0.00144851
Pt       2.80970185       0.00869714      26.89684039        1       0.00000000      -0.01099513      -0.00970895      -0.00374851
Pt       5.49132222      -0.07335948      27.18118523        1       0.00000000      -0.00685001      -0.00282779      -0.00143766
Pt       1.41841103       2.43998945      26.89672921        1       0.00000000       0.00342466      -0.00895073      -0.00210761
Pt       4.19569415       2.43949594      26.89671007        1       0.00000000       0.00622374       0.00751802      -0.00206465
Pt       7.01605637       2.57440625      27.18119171        1       0.00000000       0.00085127       0.00752577      -0.00150704
Pt       2.80751078       4.84497062      26.89673951        1       0.00000000      -0.00945938       0.00154642      -0.00199110
Pt       5.60562832       4.86008325      26.89684973        1       0.00000000       0.01400703      -0.00491615      -0.00362773
Pt       8.42793733       4.85570992      26.89687928        1       0.00000000      -0.00293860       0.01439195      -0.00371218
C        7.01803911       0.81037221      27.90897072        0       1.00000000      -0.00010770      -0.00004134       0.00203392
H        7.01803474       0.81037668      25.36174408        0       0.00000000      -0.00000212      -0.00000590      -0.01952610
