38
Lattice="8.421641763931781 0.0 0.0 4.2108208819658905 7.293355709136913 0.0 0.0 0.0 46.87624170604845" Properties=species:S:1:pos:R:3:tags:I:1:initial_magmoms:R:1:forces:R:3 charge=0 spin=0 energy=-192.90315795620205 free_energy=-192.90315795620205 stress="0.010137401521205902 -9.067571227205917e-08 7.439521887420142e-09 -9.067571227205917e-08 0.010137410834431648 4.4460690684644533e-10 7.439521887420142e-09 4.4460690684644533e-10 -0.00024294359900522977" pbc="T T T"
Pt      -0.00000012       0.00000002      19.95723426        4       0.00000000       0.00161552       0.00398157       0.01717529
Pt       2.80721404      -0.00000018      19.95723442        4       0.00000000      -0.00269113       0.00218765       0.01645778
Pt       5.61442782      -0.00000007      19.95723448        4       0.00000000      -0.00000068       0.00000439       0.01529385
Pt       1.40360721       2.43111841      19.95723428        4       0.00000000      -0.00000043      -0.00000001      -0.01067993
Pt       4.21082083       2.43111835      19.95723436        4       0.00000000      -0.00424855      -0.00058973       0.01717296
Pt       7.01803478       2.43111845      19.95723424        4       0.00000000       0.00323818       0.00123981       0.01647820
Pt       2.80721407       4.86223728      19.95723400        4       0.00000000      -0.00054885      -0.00342709       0.01650193
Pt       5.61442803       4.86223733      19.95723419        4       0.00000000      -0.00000219      -0.00000310       0.01379846
Pt       8.42164139       4.86223726      19.95723434        4       0.00000000       0.00263875      -0.00339530       0.01718078
Pt       1.40360728       0.81037259      22.29206791        3       0.00000000      -0.00102230       0.00571962      -0.04146331
Pt       4.21082130       0.81037249      22.29206784        3       0.00000000       0.00187623      -0.00285419      -0.05212844
Pt       7.01803471       0.81037256      22.29206781        3       0.00000000      -0.00340474      -0.00022371      -0.05213430
Pt       2.80721448       3.24149124      22.29206773        3       0.00000000      -0.00446371      -0.00370296      -0.04144927
Pt       5.61442763       3.24149123      22.29206786        3       0.00000000      -0.00046370       0.00110824      -0.05100485
Pt       8.42164156       3.24149129      22.29206804        3       0.00000000       0.00547962      -0.00200892      -0.04147269
Pt       4.21082092       5.67260997      22.29206793        3       0.00000000       0.00120122      -0.00012011      -0.05100754
Pt       7.01803487       5.67261037      22.29206776        3       0.00000000      -0.00074204      -0.00098526      -0.05102448
Pt       9.82524821       5.67261065      22.29206806        3       0.00000000       0.00153871       0.00307213      -0.05214181
Pt      -0.00000053       1.62074569      24.58417386        2       0.00000000       0.00113670       0.00466276       0.00825615
Pt       2.80721443       1.62074549      24.58417398        2       0.00000000      -0.00461371      -0.00139224       0.00822337
Pt       5.61442778       1.62074537      24.58417377        2       0.00000000       0.00621430      -0.00272828       0.03086489
Pt       1.40360637       4.05186439      24.58417390        2       0.00000000       0.00348846      -0.00329295       0.00812867
Pt       4.21082088       4.05186403      24.58417379        2       0.00000000      -0.00141335       0.00041750       0.02884877
Pt       7.01803504       4.05186408      24.58417406        2       0.00000000       0.00030925      -0.00148369       0.02887150
Pt       2.80721282       6.48298343      24.58417376        2       0.00000000      -0.00540756      -0.00398473       0.03085189
Pt       5.61442796       6.48298325      24.58417391        2       0.00000000       0.00110476       0.00104041       0.02894639
Pt       8.42164222       6.48298341      24.58417381        2       0.00000000      -0.00081556       0.00676695       0.03084623
Pt      -0.00658749       0.00838086      26.91596952        1       0.00000000      -0.00340181       0.00156105       0.01315071
Pt       2.81261730       0.00961510      26.91644791        1       0.00000000       0.00137259       0.00244274       0.01191875
Pt       5.61443023      -0.00000253      26.91690391        1       0.00000000       0.00000191      -0.00001055       0.01366508
Pt       1.40360398       2.43112046      26.91456661        1       0.00000000      -0.00000540       0.00001125       0.02313978
Pt       4.20686733       2.42120496      26.91597096        1       0.00000000       0.00027841      -0.00368365       0.01316267
Pt       7.02363442       2.42163137      26.91643179        1       0.00000000       0.00151437      -0.00237847       0.01190425
Pt       2.79620878       4.86211187      26.91641487        1       0.00000000      -0.00289728      -0.00007574       0.01199460
Pt       5.61442665       4.86223980      26.90652620        1       0.00000000      -0.00000140      -0.00000673       0.01440895
Pt       8.43218076       4.86377162      26.91593589        1       0.00000000       0.00313458       0.00213109       0.01327751
C        5.61442482       4.86223597      29.94594507        0       1.00000000      -0.00001226      -0.00000089       0.02505031
H        5.61443181       4.86223783      28.77175624        0       0.00000000       0.00001308       0.00000098      -0.04106312
