38
Lattice="8.421641763931781 0.0 0.0 4.2108208819658905 7.293355709136913 0.0 0.0 0.0 46.87624170604845" Properties=species:S:1:pos:R:3:tags:I:1:initial_magmoms:R:1:forces:R:3 charge=0 spin=0 energy=-192.90316177089932 free_energy=-192.90316177089932 stress="0.010137402452528477 -9.417182411652902e-08 4.95132157496414e-09 -9.417182411652902e-08 0.010137402452528477 -6.03435357238169e-10 4.95132157496414e-09 -6.03435357238169e-10 -0.00024295449838973582" pbc="T T T"
Pt      -0.00000012       0.00000002      19.95723426        4       0.00000000       0.00161537       0.00398167       0.01717525
Pt       2.80721404      -0.00000018      19.95723442        4       0.00000000      -0.00269109       0.00218760       0.01645755
Pt       5.61442782      -0.00000007      19.95723448        4       0.00000000      -0.00000053       0.00000437       0.01529391
Pt       1.40360721       2.43111841      19.95723428        4       0.00000000      -0.00000041       0.00000007      -0.01068017
Pt       4.21082083       2.43111835      19.95723436        4       0.00000000      -0.00424873      -0.00058969       0.01717306
Pt       7.01803478       2.43111845      19.95723424        4       0.00000000       0.00323829       0.00123979       0.01647826
Pt       2.80721407       4.86223728      19.95723400        4       0.00000000      -0.00054876      -0.00342718       0.01650207
Pt       5.61442803       4.86223733      19.95723419        4       0.00000000      -0.00000221      -0.00000310       0.01379854
Pt       8.42164139       4.86223726      19.95723434        4       0.00000000       0.00263868      -0.00339506       0.01718080
Pt       1.40360728       0.81037259      22.29206791        3       0.00000000      -0.00102280       0.00571914      -0.04146450
Pt       4.21082130       0.81037249      22.29206784        3       0.00000000       0.00187626      -0.00285444      -0.05212881
Pt       7.01803471       0.81037256      22.29206781        3       0.00000000      -0.00340513      -0.00022356      -0.05213375
Pt       2.80721448       3.24149124      22.29206773        3       0.00000000      -0.00446416      -0.00370284      -0.04144896
Pt       5.61442763       3.24149123      22.29206786        3       0.00000000      -0.00046358       0.00110804      -0.05100498
Pt       8.42164156       3.24149129      22.29206804        3       0.00000000       0.00547946      -0.00200915      -0.04147242
Pt       4.21082092       5.67260997      22.29206793        3       0.00000000       0.00120104      -0.00012003      -0.05100721
Pt       7.01803487       5.67261037      22.29206776        3       0.00000000      -0.00074213      -0.00098537      -0.05102468
Pt       9.82524821       5.67261065      22.29206806        3       0.00000000       0.00153826       0.00307212      -0.05214103
Pt      -0.00000053       1.62074569      24.58417386        2       0.00000000       0.00113695       0.00466241       0.00825664
Pt       2.80721443       1.62074549      24.58417398        2       0.00000000      -0.00461349      -0.00139019       0.00822088
Pt       5.61442778       1.62074537      24.58417377        2       0.00000000       0.00621466      -0.00272805       0.03086563
Pt       1.40360637       4.05186439      24.58417390        2       0.00000000       0.00348826      -0.00329264       0.00812823
Pt       4.21082088       4.05186403      24.58417379        2       0.00000000      -0.00141324       0.00041758       0.02884898
Pt       7.01803504       4.05186408      24.58417406        2       0.00000000       0.00030929      -0.00148421       0.02887171
Pt       2.80721282       6.48298343      24.58417376        2       0.00000000      -0.00540732      -0.00398481       0.03085183
Pt       5.61442796       6.48298325      24.58417391        2       0.00000000       0.00110350       0.00103968       0.02894404
Pt       8.42164222       6.48298341      24.58417381        2       0.00000000      -0.00081381       0.00676620       0.03084377
Pt      -0.00658734       0.00838065      26.91596947        1       0.00000000      -0.00340272       0.00156341       0.01314973
Pt       2.81261732       0.00961504      26.91644753        1       0.00000000       0.00137243       0.00244463       0.01192571
Pt       5.61443028      -0.00000252      26.91690364        1       0.00000000       0.00000254      -0.00001074       0.01366353
Pt       1.40360415       2.43112060      26.91456654        1       0.00000000      -0.00000599       0.00000998       0.02313815
Pt       4.20686740       2.42120521      26.91597105        1       0.00000000       0.00027869      -0.00368523       0.01316286
Pt       7.02363446       2.42163151      26.91643198        1       0.00000000       0.00151447      -0.00238031       0.01190402
Pt       2.79620908       4.86211189      26.91641471        1       0.00000000      -0.00289734      -0.00007490       0.01199486
Pt       5.61442641       4.86223985      26.90652664        1       0.00000000      -0.00000111      -0.00000692       0.01440503
Pt       8.43218060       4.86377162      26.91593608        1       0.00000000       0.00313456       0.00213143       0.01327734
C        5.61442484       4.86223501      29.94594424        0       1.00000000      -0.00001120      -0.00000307       0.02505515
H        5.61443144       4.86223839      28.77175566        0       0.00000000       0.00001292       0.00000352      -0.04106104
