38
Lattice="8.421641763931781 0.0 0.0 4.2108208819658905 7.293355709136913 0.0 0.0 0.0 46.87624170604845" Properties=species:S:1:pos:R:3:tags:I:1:initial_magmoms:R:1:forces:R:3 charge=0 spin=0 energy=-192.90323425014736 free_energy=-192.90323425014736 stress="0.01019021961838007 -1.0521650750661138e-07 1.2922366288137255e-08 -1.0521650750661138e-07 0.01019021961838007 2.812315003097865e-08 1.2922366288137255e-08 2.812315003097865e-08 -0.0001290226064156741" pbc="T T T"
Pt      -0.00000012       0.00000002      19.95723426        4       0.00000000      -0.00270297       0.00219105       0.01644130
Pt       2.80721404      -0.00000018      19.95723442        4       0.00000000      -0.00000188       0.00000285       0.01529254
Pt       5.61442782      -0.00000007      19.95723448        4       0.00000000       0.00152705       0.00405625       0.01718286
Pt       1.40360721       2.43111841      19.95723428        4       0.00000000      -0.00427028      -0.00070047       0.01718488
Pt       4.21082083       2.43111835      19.95723436        4       0.00000000       0.00325674       0.00125196       0.01645104
Pt       7.01803478       2.43111845      19.95723424        4       0.00000000      -0.00000033       0.00000132      -0.01063152
Pt       2.80721407       4.86223728      19.95723400        4       0.00000000       0.00000124      -0.00000347       0.01358809
Pt       5.61442803       4.86223733      19.95723419        4       0.00000000       0.00274076      -0.00335487       0.01719525
Pt       8.42164139       4.86223726      19.95723434        4       0.00000000      -0.00054795      -0.00344698       0.01647479
Pt       1.40360728       0.81037259      22.29206791        3       0.00000000       0.00227124      -0.00299215      -0.05267343
Pt       4.21082130       0.81037249      22.29206784        3       0.00000000      -0.00372363      -0.00049424      -0.05267594
Pt       7.01803471       0.81037256      22.29206781        3       0.00000000      -0.00098950       0.00527323      -0.04063845
Pt       2.80721448       3.24149124      22.29206773        3       0.00000000      -0.00040380       0.00102183      -0.05218919
Pt       5.61442763       3.24149123      22.29206786        3       0.00000000       0.00507463      -0.00181073      -0.04064665
Pt       8.42164156       3.24149129      22.29206804        3       0.00000000      -0.00407657      -0.00345833      -0.04062698
Pt       4.21082092       5.67260997      22.29206793        3       0.00000000      -0.00070592      -0.00087497      -0.05219600
Pt       7.01803487       5.67261037      22.29206776        3       0.00000000       0.00145025       0.00348987      -0.05266546
Pt       9.82524821       5.67261065      22.29206806        3       0.00000000       0.00110620      -0.00015476      -0.05217848
Pt      -0.00000053       1.62074569      24.58417386        2       0.00000000      -0.00775545       0.00074413       0.03067260
Pt       2.80721443       1.62074549      24.58417398        2       0.00000000       0.00623014      -0.00438158       0.04780906
Pt       5.61442778       1.62074537      24.58417377        2       0.00000000       0.00455789       0.00634129       0.03069768
Pt       1.40360637       4.05186439      24.58417390        2       0.00000000      -0.00990868      -0.00509851       0.02805875
Pt       4.21082088       4.05186403      24.58417379        2       0.00000000       0.00935890      -0.00604492       0.02809176
Pt       7.01803504       4.05186408      24.58417406        2       0.00000000       0.00320026      -0.00707089       0.03060993
Pt       2.80721282       6.48298343      24.58417376        2       0.00000000       0.00058143       0.01112822       0.02812595
Pt       5.61442796       6.48298325      24.58417391        2       0.00000000       0.00062278       0.00758742       0.04777436
Pt       8.42164222       6.48298341      24.58417381        2       0.00000000      -0.00689067      -0.00320860       0.04777487
Pt       0.00453432       0.00923012      26.91970111        1       0.00000000       0.00873135       0.01161975      -0.00209826
Pt       2.80721657       0.00000182      26.92090411        1       0.00000000      -0.00000622      -0.00000780      -0.00563779
Pt       5.60798765       0.00764425      26.91955162        1       0.00000000      -0.00834089       0.01182386      -0.00227919
Pt       1.40019993       2.42171168      26.91956432        1       0.00000000      -0.00607818      -0.01314328      -0.00230256
Pt       4.21654030       2.42258537      26.91968959        1       0.00000000       0.00569356      -0.01337134      -0.00210988
Pt       7.01802907       2.43111954      26.92174300        1       0.00000000       0.00000657      -0.00000114      -0.01017612
Pt       2.80721024       4.86223532      26.90105345        1       0.00000000      -0.00000305      -0.00000863       0.04236505
Pt       5.62426857       4.86400260      26.91955508        1       0.00000000       0.01442440       0.00131912      -0.00228369
Pt       8.41138525       4.86154231      26.91969254        1       0.00000000      -0.01443682       0.00175084      -0.00209594
C        2.80721553       4.86219259      29.94204353        0       1.00000000      -0.00002364      -0.00013122      -0.03603324
H        2.80723200       4.86229420      28.76467453        0       0.00000000       0.00003098       0.00015599       0.02034795
