38
Lattice="8.421641763931781 0.0 0.0 4.2108208819658905 7.293355709136913 0.0 0.0 0.0 46.87624170604845" Properties=species:S:1:pos:R:3:tags:I:1:initial_magmoms:R:1:forces:R:3 charge=0 spin=0 energy=-197.98929382045986 free_energy=-197.98929382045986 stress="0.0076825786381959915 4.165418795309961e-05 -3.899436705978587e-05 4.165418795309961e-05 0.007368031889200211 9.919542935676873e-05 -3.899436705978587e-05 9.919542935676873e-05 -0.0007291629444807768" pbc="T T T"
Pt      -0.00000012       0.00000002      19.95723426        4       0.00000000      -0.02106146      -0.00834122      -0.01379288
Pt       2.80721404      -0.00000018      19.95723442        4       0.00000000       0.00051139       0.00512547       0.01828964
Pt       5.61442782      -0.00000007      19.95723448        4       0.00000000       0.00700576      -0.01153907      -0.01387664
Pt       1.40360721       2.43111841      19.95723428        4       0.00000000      -0.00466723      -0.00004028       0.02830287
Pt       4.21082083       2.43111835      19.95723436        4       0.00000000       0.00406768      -0.00261847       0.02632573
Pt       7.01803478       2.43111845      19.95723424        4       0.00000000      -0.00085967       0.01023234      -0.01067645
Pt       2.80721407       4.86223728      19.95723400        4       0.00000000       0.00640003       0.02033569       0.00260184
Pt       5.61442803       4.86223733      19.95723419        4       0.00000000      -0.00122350      -0.00412708       0.00793331
Pt       8.42164139       4.86223726      19.95723434        4       0.00000000       0.00503359      -0.00070268       0.00878774
Pt       1.40360728       0.81037259      22.29206791        3       0.00000000      -0.07947539      -0.03656591      -0.14550492
Pt       4.21082130       0.81037249      22.29206784        3       0.00000000       0.06211126      -0.03090536      -0.12054069
Pt       7.01803471       0.81037256      22.29206781        3       0.00000000       0.00485247       0.00580524      -0.26154679
Pt       2.80721448       3.24149124      22.29206773        3       0.00000000       0.00128244       0.03947579      -0.01763238
Pt       5.61442763       3.24149123      22.29206786        3       0.00000000       0.01059533      -0.02344903      -0.06525928
Pt       8.42164156       3.24149129      22.29206804        3       0.00000000      -0.00871101      -0.02490779      -0.07354146
Pt       4.21082092       5.67260997      22.29206793        3       0.00000000      -0.01539786       0.04423336      -0.13642481
Pt       7.01803487       5.67261037      22.29206776        3       0.00000000      -0.00178825       0.00880978      -0.07593880
Pt       9.82524821       5.67261065      22.29206806        3       0.00000000       0.02534579       0.03115437      -0.11154645
Pt      -0.00000053       1.62074569      24.58417386        2       0.00000000       0.18753134       0.10372382       0.27642110
Pt       2.80721443       1.62074549      24.58417398        2       0.00000000       0.00266266       0.16237055      -0.16212562
Pt       5.61442778       1.62074537      24.58417377        2       0.00000000      -0.20313756       0.13607000       0.28168115
Pt       1.40360637       4.05186439      24.58417390        2       0.00000000       0.08299430      -0.09434865       0.20534070
Pt       4.21082088       4.05186403      24.58417379        2       0.00000000      -0.08606021      -0.13288622       0.24427098
Pt       7.01803504       4.05186408      24.58417406        2       0.00000000      -0.01203173      -0.02175446      -0.09487233
Pt       2.80721282       6.48298343      24.58417376        2       0.00000000      -0.01787509      -0.12194534       0.17629881
Pt       5.61442796       6.48298325      24.58417391        2       0.00000000       0.01477440       0.00800507       0.00584270
Pt       8.42164222       6.48298341      24.58417381        2       0.00000000      -0.01490751       0.03021038       0.00797555
Pt       0.00106319       0.00829628      26.90525658        1       0.00000000       0.00331727       0.01338499      -0.00096172
Pt       2.79230418      -0.11059404      27.02306358        1       0.00000000       0.00199533       0.01170889      -0.01404996
Pt       5.61079585       0.01806537      26.90563190        1       0.00000000       0.00175258      -0.00705890      -0.00569666
Pt       1.27881053       2.40736502      27.19101531        1       0.00000000       0.00492329      -0.01489559      -0.00363014
Pt       4.34538657       2.39847774      27.30999553        1       0.00000000       0.03609762      -0.02126138       0.00744531
Pt       7.01650626       2.44005006      26.89434033        1       0.00000000      -0.00854691      -0.03441203       0.00248466
Pt       2.79992076       4.99925701      27.02283286        1       0.00000000       0.00068308      -0.00179677       0.01759684
Pt       5.61848578       4.85862486      26.89715441        1       0.00000000       0.00491747      -0.01444509       0.00045510
Pt       8.40210177       4.87191520      26.89211065        1       0.00000000      -0.00847518      -0.00489722       0.00049872
C        2.79044050       3.33500195      27.93494369        0       1.00000000      -0.02540738      -0.00176081       0.00668700
H        2.95769302       1.53546774      26.32339475        0       0.00000000       0.04077109      -0.01598618       0.00237819
