38
Lattice="8.421641763931781 0.0 0.0 4.2108208819658905 7.293355709136913 0.0 0.0 0.0 46.87624170604845" Properties=species:S:1:pos:R:3:tags:I:1:initial_magmoms:R:1:forces:R:3 charge=0 spin=0 energy=-192.90315795620205 free_energy=-192.90315795620205 stress="0.010137409903109074 -9.542091561343113e-08 8.561699793574462e-09 -9.542091561343113e-08 0.010137411765754223 -1.3132526177628279e-09 8.561699793574462e-09 -1.3132526177628279e-09 -0.0002429165760986507" pbc="T T T"
Pt      -0.00000012       0.00000002      19.95723426        4       0.00000000       0.00000246      -0.00000196      -0.01068110
Pt       2.80721404      -0.00000018      19.95723442        4       0.00000000      -0.00425273      -0.00058874       0.01716335
Pt       5.61442782      -0.00000007      19.95723448        4       0.00000000       0.00323921       0.00124223       0.01646915
Pt       1.40360721       2.43111841      19.95723428        4       0.00000000      -0.00055099      -0.00342268       0.01650231
Pt       4.21082083       2.43111835      19.95723436        4       0.00000000       0.00000200       0.00000249       0.01379937
Pt       7.01803478       2.43111845      19.95723424        4       0.00000000       0.00263595      -0.00338963       0.01718127
Pt       2.80721407       4.86223728      19.95723400        4       0.00000000       0.00161491       0.00397920       0.01717637
Pt       5.61442803       4.86223733      19.95723419        4       0.00000000      -0.00269127       0.00218145       0.01646679
Pt       8.42164139       4.86223726      19.95723434        4       0.00000000       0.00000098      -0.00000380       0.01530237
Pt       1.40360728       0.81037259      22.29206791        3       0.00000000      -0.00445985      -0.00370183      -0.04144775
Pt       4.21082130       0.81037249      22.29206784        3       0.00000000      -0.00046795       0.00111433      -0.05100061
Pt       7.01803471       0.81037256      22.29206781        3       0.00000000       0.00547665      -0.00200605      -0.04146979
Pt       2.80721448       3.24149124      22.29206773        3       0.00000000       0.00119625      -0.00012063      -0.05100891
Pt       5.61442763       3.24149123      22.29206786        3       0.00000000      -0.00073691      -0.00097935      -0.05102881
Pt       8.42164156       3.24149129      22.29206804        3       0.00000000       0.00153599       0.00308433      -0.05214487
Pt       4.21082092       5.67260997      22.29206793        3       0.00000000      -0.00102134       0.00571883      -0.04146411
Pt       7.01803487       5.67261037      22.29206776        3       0.00000000       0.00187478      -0.00286746      -0.05212744
Pt       9.82524821       5.67261065      22.29206806        3       0.00000000      -0.00339965      -0.00023837      -0.05213431
Pt      -0.00000053       1.62074569      24.58417386        2       0.00000000       0.00348613      -0.00329117       0.00812922
Pt       2.80721443       1.62074549      24.58417398        2       0.00000000      -0.00141736       0.00041750       0.02885287
Pt       5.61442778       1.62074537      24.58417377        2       0.00000000       0.00031338      -0.00148234       0.02887822
Pt       1.40360637       4.05186439      24.58417390        2       0.00000000      -0.00541120      -0.00398236       0.03084722
Pt       4.21082088       4.05186403      24.58417379        2       0.00000000       0.00110818       0.00104491       0.02895156
Pt       7.01803504       4.05186408      24.58417406        2       0.00000000      -0.00081274       0.00677412       0.03083953
Pt       2.80721282       6.48298343      24.58417376        2       0.00000000       0.00114458       0.00465684       0.00825861
Pt       5.61442796       6.48298325      24.58417391        2       0.00000000      -0.00461144      -0.00139778       0.00822381
Pt       8.42164222       6.48298341      24.58417381        2       0.00000000       0.00620505      -0.00273491       0.03086780
Pt      -0.00000295       0.00000195      26.91456678        1       0.00000000      -0.00000462       0.00000820       0.02314065
Pt       2.80326028      -0.00991371      26.91597086        1       0.00000000       0.00027903      -0.00367925       0.01316173
Pt       5.62002758      -0.00948710      26.91643265        1       0.00000000       0.00151180      -0.00237556       0.01189738
Pt       1.39260176       2.43099321      26.91641511        1       0.00000000      -0.00289029      -0.00007641       0.01199560
Pt       4.21081948       2.43112138      26.90652874        1       0.00000000      -0.00000263      -0.00000763       0.01440828
Pt       7.02857446       2.43265285      26.91593587        1       0.00000000       0.00312674       0.00212960       0.01327755
Pt       2.80062640       4.87061851      26.91596952        1       0.00000000      -0.00339989       0.00156014       0.01314950
Pt       5.61983138       4.87185263      26.91644765        1       0.00000000       0.00136723       0.00244239       0.01191644
Pt       8.42164385       4.86223480      26.91690264        1       0.00000000       0.00000500      -0.00000899       0.01366977
C        4.21081290       2.43111597      29.94595124        0       1.00000000      -0.00002310      -0.00000263       0.02501223
H        4.21082949       2.43111931      28.77176026        0       0.00000000       0.00002759       0.00000302      -0.04103097
