38
Lattice="8.421641763931781 0.0 0.0 4.2108208819658905 7.293355709136913 0.0 0.0 0.0 46.87624170604845" Properties=species:S:1:pos:R:3:tags:I:1:initial_magmoms:R:1:forces:R:3 charge=0 spin=0 energy=-192.90323234279873 free_energy=-192.90323234279873 stress="0.010190202854573727 -1.0350274948223159e-07 -1.4800650482982292e-08 -1.0350274948223159e-07 0.010190201923251152 1.0967904806591378e-08 -1.4800650482982292e-08 1.0967904806591378e-08 -0.0001290204527322203" pbc="T T T"
Pt      -0.00000012       0.00000002      19.95723426        4       0.00000000       0.00325706       0.00124913       0.01645029
Pt       2.80721404      -0.00000018      19.95723442        4       0.00000000      -0.00000158       0.00000280      -0.01064094
Pt       5.61442782      -0.00000007      19.95723448        4       0.00000000      -0.00426939      -0.00069824       0.01717483
Pt       1.40360721       2.43111841      19.95723428        4       0.00000000       0.00274200      -0.00335027       0.01719628
Pt       4.21082083       2.43111835      19.95723436        4       0.00000000      -0.00054727      -0.00344036       0.01647570
Pt       7.01803478       2.43111845      19.95723424        4       0.00000000      -0.00000127       0.00000075       0.01358775
Pt       2.80721407       4.86223728      19.95723400        4       0.00000000       0.00000137      -0.00000348       0.01530235
Pt       5.61442803       4.86223733      19.95723419        4       0.00000000       0.00152507       0.00404963       0.01719179
Pt       8.42164139       4.86223726      19.95723434        4       0.00000000      -0.00270334       0.00218732       0.01644137
Pt       1.40360728       0.81037259      22.29206791        3       0.00000000       0.00506863      -0.00180783      -0.04064288
Pt       4.21082130       0.81037249      22.29206784        3       0.00000000      -0.00408148      -0.00345165      -0.04062455
Pt       7.01803471       0.81037256      22.29206781        3       0.00000000      -0.00039549       0.00102384      -0.05218687
Pt       2.80721448       3.24149124      22.29206773        3       0.00000000       0.00144562       0.00349758      -0.05266966
Pt       5.61442763       3.24149123      22.29206786        3       0.00000000       0.00110215      -0.00014388      -0.05218203
Pt       8.42164156       3.24149129      22.29206804        3       0.00000000      -0.00070059      -0.00087662      -0.05219822
Pt       4.21082092       5.67260997      22.29206793        3       0.00000000      -0.00372462      -0.00049931      -0.05267606
Pt       7.01803487       5.67261037      22.29206776        3       0.00000000      -0.00099361       0.00526310      -0.04063679
Pt       9.82524821       5.67261065      22.29206806        3       0.00000000       0.00228030      -0.00300648      -0.05267345
Pt      -0.00000053       1.62074569      24.58417386        2       0.00000000       0.00936371      -0.00605069       0.02808876
Pt       2.80721443       1.62074549      24.58417398        2       0.00000000       0.00319439      -0.00707211       0.03060665
Pt       5.61442778       1.62074537      24.58417377        2       0.00000000      -0.00990636      -0.00508614       0.02806053
Pt       1.40360637       4.05186439      24.58417390        2       0.00000000       0.00063049       0.00758841       0.04777555
Pt       4.21082088       4.05186403      24.58417379        2       0.00000000      -0.00688171      -0.00319536       0.04776808
Pt       7.01803504       4.05186408      24.58417406        2       0.00000000       0.00056836       0.01114224       0.02812209
Pt       2.80721282       6.48298343      24.58417376        2       0.00000000       0.00625182      -0.00439234       0.04780554
Pt       5.61442796       6.48298325      24.58417391        2       0.00000000       0.00455222       0.00633452       0.03069333
Pt       8.42164222       6.48298341      24.58417381        2       0.00000000      -0.00777040       0.00073448       0.03067599
Pt       0.00571955      -0.00853235      26.91968928        1       0.00000000       0.00569551      -0.01337121      -0.00211189
Pt       2.80720908       0.00000155      26.92174246        1       0.00000000       0.00000707      -0.00000077      -0.01017720
Pt       5.61102120      -0.00940556      26.91956317        1       0.00000000      -0.00607804      -0.01314569      -0.00229908
Pt       1.41344894       2.43288449      26.91955569        1       0.00000000       0.01442359       0.00132004      -0.00227569
Pt       4.20056559       2.43042419      26.91969106        1       0.00000000      -0.01443871       0.00175323      -0.00209577
Pt       7.01803402       2.43111918      26.90105408        1       0.00000000       0.00000634      -0.00000165       0.04237255
Pt       2.80721652       4.86223960      26.92090380        1       0.00000000      -0.00000281      -0.00000364      -0.00563817
Pt       5.60798817       4.86988195      26.91955061        1       0.00000000      -0.00834066       0.01182397      -0.00227398
Pt       8.42617646       4.87146889      26.91970200        1       0.00000000       0.00873414       0.01161892      -0.00209527
C        7.01806885       2.43109759      29.94204644        0       1.00000000       0.00007699      -0.00004932      -0.03607132
H        7.01800840       2.43113562      28.76467712        0       0.00000000      -0.00008939       0.00005698       0.02038065
