38
Lattice="8.421641763931781 0.0 0.0 4.2108208819658905 7.293355709136913 0.0 0.0 0.0 46.87624170604845" Properties=species:S:1:pos:R:3:tags:I:1:initial_magmoms:R:1:forces:R:3 charge=0 spin=0 energy=-197.98929382045986 free_energy=-197.98929382045986 stress="0.0076879533007740974 4.2451127228559926e-05 -3.769751128857024e-05 4.2451127228559926e-05 0.007381072733551264 9.434535604668781e-05 -3.769751128857024e-05 9.434535604668781e-05 -0.0007172316545620561" pbc="T T T"
Pt      -0.00000012       0.00000002      19.95723426        4       0.00000000       0.00502266      -0.00072464       0.00877633
Pt       2.80721404      -0.00000018      19.95723442        4       0.00000000       0.00639939       0.02018790       0.00280644
Pt       5.61442782      -0.00000007      19.95723448        4       0.00000000      -0.00118382      -0.00416650       0.00790112
Pt       1.40360721       2.43111841      19.95723428        4       0.00000000       0.00696792      -0.01151189      -0.01378637
Pt       4.21082083       2.43111835      19.95723436        4       0.00000000      -0.02101214      -0.00831518      -0.01369831
Pt       7.01803478       2.43111845      19.95723424        4       0.00000000       0.00052692       0.00510947       0.01821051
Pt       2.80721407       4.86223728      19.95723400        4       0.00000000      -0.00085653       0.01023158      -0.01069196
Pt       5.61442803       4.86223733      19.95723419        4       0.00000000      -0.00471005      -0.00006074       0.02824880
Pt       8.42164139       4.86223726      19.95723434        4       0.00000000       0.00410841      -0.00264591       0.02627395
Pt       1.40360728       0.81037259      22.29206791        3       0.00000000       0.02534663       0.03120847      -0.11148316
Pt       4.21082130       0.81037249      22.29206784        3       0.00000000      -0.01535398       0.04432588      -0.13642672
Pt       7.01803471       0.81037256      22.29206781        3       0.00000000      -0.00178879       0.00881386      -0.07604880
Pt       2.80721448       3.24149124      22.29206773        3       0.00000000       0.00486620       0.00580868      -0.26151803
Pt       5.61442763       3.24149123      22.29206786        3       0.00000000      -0.07923841      -0.03650901      -0.14534307
Pt       8.42164156       3.24149129      22.29206804        3       0.00000000       0.06198986      -0.03091681      -0.12042416
Pt       4.21082092       5.67260997      22.29206793        3       0.00000000      -0.00873371      -0.02493959      -0.07343106
Pt       7.01803487       5.67261037      22.29206776        3       0.00000000       0.00126370       0.03907404      -0.01737470
Pt       9.82524821       5.67261065      22.29206806        3       0.00000000       0.01065455      -0.02347865      -0.06511380
Pt      -0.00000053       1.62074569      24.58417386        2       0.00000000      -0.01446971       0.03036292       0.00740145
Pt       2.80721443       1.62074549      24.58417398        2       0.00000000      -0.01806073      -0.12250875       0.17769189
Pt       5.61442778       1.62074537      24.58417377        2       0.00000000       0.01429220       0.00813696       0.00502486
Pt       1.40360637       4.05186439      24.58417390        2       0.00000000      -0.20329621       0.13640310       0.28119081
Pt       4.21082088       4.05186403      24.58417379        2       0.00000000       0.18773185       0.10401356       0.27645421
Pt       7.01803504       4.05186408      24.58417406        2       0.00000000       0.00311060       0.16124903      -0.15156692
Pt       2.80721282       6.48298343      24.58417376        2       0.00000000      -0.01204658      -0.02192193      -0.09496241
Pt       5.61442796       6.48298325      24.58417391        2       0.00000000       0.08305619      -0.09422316       0.20609419
Pt       8.42164222       6.48298341      24.58417381        2       0.00000000      -0.08613155      -0.13254674       0.24497986
Pt      -0.01973507       0.00989706      26.89216587        1       0.00000000      -0.00707363      -0.00582394       0.00052942
Pt       2.79980707       0.13659128      27.02298429        1       0.00000000       0.00053150      -0.00787775       0.02138268
Pt       5.61865873      -0.00336289      26.89722973        1       0.00000000       0.00322246      -0.01543806       0.00047031
Pt       1.39957618       2.44978331      26.90562006        1       0.00000000       0.00508654      -0.01211360      -0.00584604
Pt       4.21208318       2.43976917      26.90521995        1       0.00000000       0.00069726       0.01005543      -0.00100161
Pt       7.00303792       2.32022810      27.02257319        1       0.00000000       0.00204516       0.01745349      -0.01583159
Pt       2.80544894       4.87110827      26.89443048        1       0.00000000      -0.00714689      -0.03350998       0.00225513
Pt       5.48905881       4.83847161      27.19112748        1       0.00000000       0.01534376      -0.00968984      -0.00088988
Pt       8.55656757       4.82953949      27.31022558        1       0.00000000       0.02795193      -0.01636902       0.01042531
C        7.00124557       5.76559094      27.93636676        0       1.00000000      -0.02803775       0.00264927      -0.00376700
H        7.16930745       3.96906976      26.32610533        0       0.00000000       0.03892484      -0.01979214      -0.00691181
