38
Lattice="8.421641763931781 0.0 0.0 4.2108208819658905 7.293355709136913 0.0 0.0 0.0 46.87624170604845" Properties=species:S:1:pos:R:3:tags:I:1:initial_magmoms:R:1:forces:R:3 charge=0 spin=0 energy=-197.98725295742275 free_energy=-197.98725295742275 stress="0.007596779149025679 6.240233051357791e-05 -2.575028884166386e-05 6.240233051357791e-05 0.007321306969970465 8.702267950866371e-05 -2.575028884166386e-05 8.702267950866371e-05 -0.0007541889208368957" pbc="T T T"
Pt      -0.00000012       0.00000002      19.95723426        4       0.00000000       0.00572586       0.02243323       0.00190742
Pt       2.80721404      -0.00000018      19.95723442        4       0.00000000      -0.00185707      -0.00186208       0.00838416
Pt       5.61442782      -0.00000007      19.95723448        4       0.00000000       0.00449888       0.00063278       0.00903819
Pt       1.40360721       2.43111841      19.95723428        4       0.00000000      -0.01895065      -0.00702929      -0.01318209
Pt       4.21082083       2.43111835      19.95723436        4       0.00000000      -0.00001192       0.00619686       0.01795385
Pt       7.01803478       2.43111845      19.95723424        4       0.00000000       0.00806243      -0.01095346      -0.01370753
Pt       2.80721407       4.86223728      19.95723400        4       0.00000000      -0.00528752       0.00064482       0.02833067
Pt       5.61442803       4.86223733      19.95723419        4       0.00000000       0.00339959      -0.00130686       0.02703873
Pt       8.42164139       4.86223726      19.95723434        4       0.00000000      -0.00096216       0.01156898      -0.01067166
Pt       1.40360728       0.81037259      22.29206791        3       0.00000000      -0.01635418       0.04444879      -0.13282044
Pt       4.21082130       0.81037249      22.29206784        3       0.00000000      -0.00142896       0.01328081      -0.07441226
Pt       7.01803471       0.81037256      22.29206781        3       0.00000000       0.02413034       0.03386759      -0.11588582
Pt       2.80721448       3.24149124      22.29206773        3       0.00000000      -0.07552579      -0.03038158      -0.13693418
Pt       5.61442763       3.24149123      22.29206786        3       0.00000000       0.06351531      -0.02711337      -0.12161735
Pt       8.42164156       3.24149129      22.29206804        3       0.00000000       0.00387418       0.00845469      -0.25847071
Pt       4.21082092       5.67260997      22.29206793        3       0.00000000       0.00113999       0.04512259      -0.02347578
Pt       7.01803487       5.67261037      22.29206776        3       0.00000000       0.00914013      -0.02036604      -0.06966197
Pt       9.82524821       5.67261065      22.29206806        3       0.00000000      -0.01020811      -0.02086493      -0.07482094
Pt      -0.00000053       1.62074569      24.58417386        2       0.00000000      -0.00686752      -0.12573506       0.16942605
Pt       2.80721443       1.62074549      24.58417398        2       0.00000000       0.02230128      -0.00446043       0.01021289
Pt       5.61442778       1.62074537      24.58417377        2       0.00000000      -0.02568595       0.01523796       0.01084842
Pt       1.40360637       4.05186439      24.58417390        2       0.00000000       0.18929438       0.08531524       0.27482426
Pt       4.21082088       4.05186403      24.58417379        2       0.00000000       0.00413930       0.14988445      -0.18235183
Pt       7.01803504       4.05186408      24.58417406        2       0.00000000      -0.20018379       0.11202395       0.29617089
Pt       2.80721282       6.48298343      24.58417376        2       0.00000000       0.08000074      -0.10312809       0.18974280
Pt       5.61442796       6.48298325      24.58417391        2       0.00000000      -0.08034637      -0.13294744       0.22239302
Pt       8.42164222       6.48298341      24.58417381        2       0.00000000      -0.00509252      -0.03563515      -0.07456581
Pt      -0.00118623       0.11731536      27.01612002        1       0.00000000       0.01727497      -0.01016461       0.03112392
Pt       2.81644227      -0.01877616      26.89877244        1       0.00000000       0.01437643      -0.03319437      -0.00764609
Pt       5.60281032      -0.00929070      26.89598095        1       0.00000000      -0.03814957      -0.01192966      -0.00758150
Pt       1.41641163       2.42004792      26.90905813        1       0.00000000      -0.02814042       0.00755065      -0.00181554
Pt       4.20075546       2.30316462      27.03001236        1       0.00000000       0.01384322      -0.02466195      -0.01025580
Pt       7.01300577       2.41629644      26.90478523        1       0.00000000       0.00699906       0.04738186      -0.00079374
Pt       2.68062954       4.82133387      27.19447953        1       0.00000000       0.03925961      -0.00539660       0.01787378
Pt       5.74991068       4.80635927      27.27800687        1       0.00000000       0.04039403      -0.00818344       0.00600028
Pt       8.42444271       4.83758163      26.89489536        1       0.00000000      -0.02847839       0.01176912      -0.00449774
C        4.20507315       5.74369609      27.92474970        0       1.00000000      -0.03646202       0.01200745       0.01861411
H        4.30802406       3.94209833      26.32558365        0       0.00000000       0.02862329      -0.01250713      -0.00471459
