38
Lattice="8.421641763931781 0.0 0.0 4.2108208819658905 7.293355709136913 0.0 0.0 0.0 46.87624170604845" Properties=species:S:1:pos:R:3:tags:I:1:initial_magmoms:R:1:forces:R:3 charge=0 spin=0 energy=-197.50797057827236 free_energy=-197.50797057827236 stress="0.00900774821639061 -1.2112803915442782e-07 2.238519769548475e-08 -1.2112803915442782e-07 0.00900853332132101 3.409762143746775e-07 2.238519769548475e-08 3.409762143746775e-07 -0.0009218614432029426" pbc="T T T"
Pt      -0.00000012       0.00000002      19.95723426        4       0.00000000      -0.00034995      -0.00608987       0.02200723
Pt       2.80721404      -0.00000018      19.95723442        4       0.00000000       0.00820839      -0.00357961       0.01930809
Pt       5.61442782      -0.00000007      19.95723448        4       0.00000000      -0.00717971      -0.00528951       0.01924645
Pt       1.40360721       2.43111841      19.95723428        4       0.00000000       0.00544483       0.00269504       0.02208930
Pt       4.21082083       2.43111835      19.95723436        4       0.00000000       0.00285868       0.02436003      -0.03719084
Pt       7.01803478       2.43111845      19.95723424        4       0.00000000      -0.00509563       0.00339392       0.02224275
Pt       2.80721407       4.86223728      19.95723400        4       0.00000000       0.01969423      -0.01468040      -0.03729839
Pt       5.61442803       4.86223733      19.95723419        4       0.00000000      -0.02255362      -0.00972186      -0.03708440
Pt       8.42164139       4.86223726      19.95723434        4       0.00000000      -0.00103196       0.00887339       0.01952160
Pt       1.40360728       0.81037259      22.29206791        3       0.00000000       0.02523329      -0.00821103      -0.01658666
Pt       4.21082130       0.81037249      22.29206784        3       0.00000000       0.00021072       0.10279851      -0.15199496
Pt       7.01803471       0.81037256      22.29206781        3       0.00000000      -0.01978028      -0.01769623      -0.01651044
Pt       2.80721448       3.24149124      22.29206773        3       0.00000000       0.04313329       0.02420714      -0.19458833
Pt       5.61442763       3.24149123      22.29206786        3       0.00000000      -0.04262110       0.02516899      -0.19446181
Pt       8.42164156       3.24149129      22.29206804        3       0.00000000      -0.00545162       0.02593624      -0.01600377
Pt       4.21082092       5.67260997      22.29206793        3       0.00000000      -0.00051729      -0.04934805      -0.19474857
Pt       7.01803487       5.67261037      22.29206776        3       0.00000000      -0.08925920      -0.05117188      -0.15166524
Pt       9.82524821       5.67261065      22.29206806        3       0.00000000       0.08904646      -0.05168485      -0.15173183
Pt      -0.00000053       1.62074569      24.58417386        2       0.00000000       0.00002013      -0.00003291      -0.01992607
Pt       2.80721443       1.62074549      24.58417398        2       0.00000000       0.02178033      -0.25450325       0.31632566
Pt       5.61442778       1.62074537      24.58417377        2       0.00000000      -0.02614216      -0.25519025       0.31799838
Pt       1.40360637       4.05186439      24.58417390        2       0.00000000      -0.20775425       0.15028974       0.31756088
Pt       4.21082088       4.05186403      24.58417379        2       0.00000000       0.00000780      -0.00005906      -0.24122949
Pt       7.01803504       4.05186408      24.58417406        2       0.00000000       0.20947415       0.14624181       0.31621575
Pt       2.80721282       6.48298343      24.58417376        2       0.00000000      -0.23117757       0.10833286       0.31645665
Pt       5.61442796       6.48298325      24.58417391        2       0.00000000       0.23384969       0.10497890       0.31793854
Pt       8.42164222       6.48298341      24.58417381        2       0.00000000      -0.00001707      -0.00036746      -0.66416180
Pt       0.00108529       0.00377633      26.90036151        1       0.00000000      -0.00543269      -0.04676130       0.00946138
Pt       2.71743766       0.05394918      27.29313490        1       0.00000000      -0.01119339       0.01363709      -0.00186395
Pt       5.70617108       0.05060333      27.29317659        1       0.00000000       0.01735728       0.00302533      -0.00191153
Pt       1.39986854       2.43008486      26.90033711        1       0.00000000       0.04300971       0.01846787       0.00964124
Pt       4.21142012       2.45499524      26.89810277        1       0.00000000       0.00033030       0.00488758       0.00826346
Pt       7.02071558       2.42822101      26.90033039        1       0.00000000      -0.03750141       0.02811999       0.00964660
Pt       2.82755554       4.84976529      26.89801719        1       0.00000000       0.00426343      -0.00299039       0.00837450
Pt       5.59348118       4.85082852      26.89800644        1       0.00000000      -0.00468668      -0.00233019       0.00839593
Pt       8.41971238       4.75721937      27.29312302        1       0.00000000      -0.00613595      -0.01506443      -0.00155822
C        8.42165178       6.48285020      28.17381036        0       1.00000000      -0.00003701      -0.00142458       0.01497002
H        8.42163618       6.48374027      26.17345011        0       0.00000000      -0.00000403       0.00078265       0.03485202
