38
Lattice="8.421641763931781 0.0 0.0 4.2108208819658905 7.293355709136913 0.0 0.0 0.0 46.87624170604845" Properties=species:S:1:pos:R:3:tags:I:1:initial_magmoms:R:1:forces:R:3 charge=0 spin=0 energy=-192.90323234279873 free_energy=-192.90323234279873 stress="0.010190236382186413 -1.0609623046775596e-07 -6.445015632294826e-10 -1.0609623046775596e-07 0.010190163739025593 -1.4766538924959605e-07 -6.445015632294826e-10 -1.4766538924959605e-07 -0.00012902966409455985" pbc="T T T"
Pt      -0.00000012       0.00000002      19.95723426        4       0.00000000      -0.00270314       0.00219161       0.01644179
Pt       2.80721404      -0.00000018      19.95723442        4       0.00000000      -0.00000208       0.00000202       0.01529256
Pt       5.61442782      -0.00000007      19.95723448        4       0.00000000       0.00152753       0.00405671       0.01718409
Pt       1.40360721       2.43111841      19.95723428        4       0.00000000      -0.00427050      -0.00070115       0.01718424
Pt       4.21082083       2.43111835      19.95723436        4       0.00000000       0.00325744       0.00125199       0.01645171
Pt       7.01803478       2.43111845      19.95723424        4       0.00000000      -0.00000100      -0.00000124      -0.01063182
Pt       2.80721407       4.86223728      19.95723400        4       0.00000000       0.00000184      -0.00000380       0.01358813
Pt       5.61442803       4.86223733      19.95723419        4       0.00000000       0.00273999      -0.00335406       0.01719478
Pt       8.42164139       4.86223726      19.95723434        4       0.00000000      -0.00054732      -0.00344575       0.01647338
Pt       1.40360728       0.81037259      22.29206791        3       0.00000000       0.00227010      -0.00299524      -0.05267210
Pt       4.21082130       0.81037249      22.29206784        3       0.00000000      -0.00372551      -0.00049815      -0.05267359
Pt       7.01803471       0.81037256      22.29206781        3       0.00000000      -0.00098991       0.00527137      -0.04063380
Pt       2.80721448       3.24149124      22.29206773        3       0.00000000      -0.00040351       0.00101941      -0.05219256
Pt       5.61442763       3.24149123      22.29206786        3       0.00000000       0.00507454      -0.00181249      -0.04064857
Pt       8.42164156       3.24149129      22.29206804        3       0.00000000      -0.00407567      -0.00345911      -0.04062982
Pt       4.21082092       5.67260997      22.29206793        3       0.00000000      -0.00070613      -0.00087803      -0.05219404
Pt       7.01803487       5.67261037      22.29206776        3       0.00000000       0.00144936       0.00348613      -0.05266849
Pt       9.82524821       5.67261065      22.29206806        3       0.00000000       0.00110480      -0.00015782      -0.05217798
Pt      -0.00000053       1.62074569      24.58417386        2       0.00000000      -0.00776935       0.00072395       0.03066799
Pt       2.80721443       1.62074549      24.58417398        2       0.00000000       0.00623334      -0.00438425       0.04778100
Pt       5.61442778       1.62074537      24.58417377        2       0.00000000       0.00456822       0.00632365       0.03069606
Pt       1.40360637       4.05186439      24.58417390        2       0.00000000      -0.00989834      -0.00508326       0.02805271
Pt       4.21082088       4.05186403      24.58417379        2       0.00000000       0.00934647      -0.00603165       0.02809619
Pt       7.01803504       4.05186408      24.58417406        2       0.00000000       0.00319803      -0.00707057       0.03061187
Pt       2.80721282       6.48298343      24.58417376        2       0.00000000       0.00058026       0.01117455       0.02810789
Pt       5.61442796       6.48298325      24.58417391        2       0.00000000       0.00061377       0.00760785       0.04778707
Pt       8.42164222       6.48298341      24.58417381        2       0.00000000      -0.00687546      -0.00319007       0.04778638
Pt       0.00453480       0.00924066      26.91970916        1       0.00000000       0.00872297       0.01162364      -0.00207991
Pt       2.80721625       0.00000813      26.92090477        1       0.00000000      -0.00000540       0.00000490      -0.00563747
Pt       5.60798660       0.00765473      26.91955966        1       0.00000000      -0.00833460       0.01182900      -0.00226484
Pt       1.40020295       2.42172152      26.91955629        1       0.00000000      -0.00607730      -0.01314018      -0.00231106
Pt       4.21653727       2.42259454      26.91968346        1       0.00000000       0.00569469      -0.01336972      -0.00212854
Pt       7.01802899       2.43112653      26.92174365        1       0.00000000       0.00000324       0.00001092      -0.01017523
Pt       2.80721089       4.86226026      26.90105116        1       0.00000000       0.00000302       0.00004387       0.04238093
Pt       5.62426923       4.86400919      26.91955565        1       0.00000000       0.01442683       0.00132564      -0.00228068
Pt       8.41138479       4.86154892      26.91969139        1       0.00000000      -0.01443792       0.00176038      -0.00209446
C        2.80722098       4.86240056      29.94203936        0       1.00000000      -0.00000607       0.00059091      -0.03607225
H        2.80722666       4.86194337      28.76466984        0       0.00000000       0.00001279      -0.00072196       0.02038824
