38
Lattice="8.421641763931781 0.0 0.0 4.2108208819658905 7.293355709136913 0.0 0.0 0.0 46.87624170604845" Properties=species:S:1:pos:R:3:tags:I:1:initial_magmoms:R:1:forces:R:3 charge=0 spin=0 energy=-197.5080888338876 free_energy=-197.5080888338876 stress="0.009057399816811085 -1.373494455947366e-07 1.1009667844064097e-08 -1.373494455947366e-07 0.009057380259037018 4.558186716963064e-08 1.1009667844064097e-08 4.558186716963064e-08 -0.0008546210592612624" pbc="T T T"
Pt      -0.00000012       0.00000002      19.95723426        4       0.00000000      -0.00029624      -0.00597904       0.02191381
Pt       2.80721404      -0.00000018      19.95723442        4       0.00000000       0.00846997      -0.00372695       0.01888600
Pt       5.61442782      -0.00000007      19.95723448        4       0.00000000      -0.00743905      -0.00543991       0.01882872
Pt       1.40360721       2.43111841      19.95723428        4       0.00000000       0.00533200       0.00268685       0.02200327
Pt       4.21082083       2.43111835      19.95723436        4       0.00000000       0.00291590       0.02441124      -0.03720757
Pt       7.01803478       2.43111845      19.95723424        4       0.00000000      -0.00503623       0.00329333       0.02215645
Pt       2.80721407       4.86223728      19.95723400        4       0.00000000       0.01967686      -0.01473888      -0.03725666
Pt       5.61442803       4.86223733      19.95723419        4       0.00000000      -0.02259075      -0.00967617      -0.03704398
Pt       8.42164139       4.86223726      19.95723434        4       0.00000000      -0.00103014       0.00916801       0.01908763
Pt       1.40360728       0.81037259      22.29206791        3       0.00000000       0.02475636      -0.00803512      -0.01724789
Pt       4.21082130       0.81037249      22.29206784        3       0.00000000       0.00009440       0.10270674      -0.14903195
Pt       7.01803471       0.81037256      22.29206781        3       0.00000000      -0.01938585      -0.01737241      -0.01717348
Pt       2.80721448       3.24149124      22.29206773        3       0.00000000       0.04260683       0.02395237      -0.19712684
Pt       5.61442763       3.24149123      22.29206786        3       0.00000000      -0.04215034       0.02481799      -0.19699457
Pt       8.42164156       3.24149129      22.29206804        3       0.00000000      -0.00536550       0.02541383      -0.01668902
Pt       4.21082092       5.67260997      22.29206793        3       0.00000000      -0.00045582      -0.04877236      -0.19726719
Pt       7.01803487       5.67261037      22.29206776        3       0.00000000      -0.08907626      -0.05121589      -0.14867559
Pt       9.82524821       5.67261065      22.29206806        3       0.00000000       0.08897714      -0.05150488      -0.14873235
Pt      -0.00000053       1.62074569      24.58417386        2       0.00000000       0.00001174      -0.00001090      -0.01356677
Pt       2.80721443       1.62074549      24.58417398        2       0.00000000       0.02799897      -0.25853860       0.31634134
Pt       5.61442778       1.62074537      24.58417377        2       0.00000000      -0.03101451      -0.25980136       0.31786487
Pt       1.40360637       4.05186439      24.58417390        2       0.00000000      -0.20915768       0.15680102       0.31733570
Pt       4.21082088       4.05186403      24.58417379        2       0.00000000      -0.00000787       0.00002719      -0.21586433
Pt       7.01803504       4.05186408      24.58417406        2       0.00000000       0.20970786       0.15361302       0.31615660
Pt       2.80721282       6.48298343      24.58417376        2       0.00000000      -0.23772927       0.10491783       0.31645456
Pt       5.61442796       6.48298325      24.58417391        2       0.00000000       0.24020471       0.10299551       0.31781754
Pt       8.42164222       6.48298341      24.58417381        2       0.00000000      -0.00000155      -0.00000971      -0.59258884
Pt       0.00031119      -0.00207714      26.89637698        1       0.00000000      -0.00239313      -0.01880080       0.01886070
Pt       2.71855916       0.05309434      27.29849586        1       0.00000000      -0.02505411       0.02126942      -0.01024823
Pt       5.70473979       0.05023209      27.29850241        1       0.00000000       0.03094347       0.01107327      -0.01024980
Pt       1.40525046       2.43242699      26.89637640        1       0.00000000       0.01759020       0.00717093       0.01896763
Pt       4.21262201       2.45091813      26.90115517        1       0.00000000      -0.00285796       0.03321056      -0.00317618
Pt       7.01609600       2.43188533      26.89637274        1       0.00000000      -0.01505678       0.01163998       0.01897781
Pt       2.82346245       4.85078442      26.90119093        1       0.00000000       0.03010413      -0.01429598      -0.00337328
Pt       5.59637627       4.85389799      26.90118353        1       0.00000000      -0.02739448      -0.01894010      -0.00335382
Pt       8.41999071       4.75890807      27.29850159        1       0.00000000      -0.00589652      -0.03233408      -0.01024866
C        8.42164262       6.48298017      28.18220076        0       1.00000000       0.00001102       0.00002557       0.01094458
H        8.42162900       6.48298001      26.17950529        0       0.00000000      -0.00001168      -0.00000151      -0.02948032
