38
Lattice="8.421641763931781 0.0 0.0 4.2108208819658905 7.293355709136913 0.0 0.0 0.0 46.87624170604845" Properties=species:S:1:pos:R:3:tags:I:1:initial_magmoms:R:1:forces:R:3 charge=0 spin=0 energy=-197.50797057827236 free_energy=-197.50797057827236 stress="0.009007605724036694 -1.5203303860289452e-07 5.061069430212228e-08 -1.5203303860289452e-07 0.009008408524096012 3.458584671989229e-07 5.061069430212228e-08 3.458584671989229e-07 -0.000922232458833605" pbc="T T T"
Pt      -0.00000012       0.00000002      19.95723426        4       0.00000000      -0.00717781      -0.00529342       0.01925692
Pt       2.80721404      -0.00000018      19.95723442        4       0.00000000      -0.00035427      -0.00608670       0.02199996
Pt       5.61442782      -0.00000007      19.95723448        4       0.00000000       0.00821053      -0.00357909       0.01931057
Pt       1.40360721       2.43111841      19.95723428        4       0.00000000      -0.00509577       0.00339473       0.02224546
Pt       4.21082083       2.43111835      19.95723436        4       0.00000000       0.00544803       0.00269510       0.02209031
Pt       7.01803478       2.43111845      19.95723424        4       0.00000000       0.00285495       0.02435879      -0.03719195
Pt       2.80721407       4.86223728      19.95723400        4       0.00000000      -0.00103244       0.00887482       0.01952406
Pt       5.61442803       4.86223733      19.95723419        4       0.00000000       0.01969067      -0.01467916      -0.03729805
Pt       8.42164139       4.86223726      19.95723434        4       0.00000000      -0.02254886      -0.00972311      -0.03708611
Pt       1.40360728       0.81037259      22.29206791        3       0.00000000      -0.01978619      -0.01769745      -0.01650936
Pt       4.21082130       0.81037249      22.29206784        3       0.00000000       0.02523605      -0.00820853      -0.01658973
Pt       7.01803471       0.81037256      22.29206781        3       0.00000000       0.00021355       0.10279457      -0.15199460
Pt       2.80721448       3.24149124      22.29206773        3       0.00000000      -0.00546090       0.02593877      -0.01600535
Pt       5.61442763       3.24149123      22.29206786        3       0.00000000       0.04314003       0.02420688      -0.19457845
Pt       8.42164156       3.24149129      22.29206804        3       0.00000000      -0.04261737       0.02516687      -0.19444001
Pt       4.21082092       5.67260997      22.29206793        3       0.00000000       0.08903793      -0.05167058      -0.15173608
Pt       7.01803487       5.67261037      22.29206776        3       0.00000000      -0.00051732      -0.04935434      -0.19473247
Pt       9.82524821       5.67261065      22.29206806        3       0.00000000      -0.08924931      -0.05117729      -0.15166846
Pt      -0.00000053       1.62074569      24.58417386        2       0.00000000      -0.02612194      -0.25516957       0.31797647
Pt       2.80721443       1.62074549      24.58417398        2       0.00000000       0.00000518      -0.00003176      -0.01988505
Pt       5.61442778       1.62074537      24.58417377        2       0.00000000       0.02177399      -0.25447914       0.31631285
Pt       1.40360637       4.05186439      24.58417390        2       0.00000000       0.20947050       0.14620094       0.31619477
Pt       4.21082088       4.05186403      24.58417379        2       0.00000000      -0.20774941       0.15026356       0.31752789
Pt       7.01803504       4.05186408      24.58417406        2       0.00000000       0.00000799      -0.00006411      -0.24129257
Pt       2.80721282       6.48298343      24.58417376        2       0.00000000      -0.00001088      -0.00035709      -0.66471922
Pt       5.61442796       6.48298325      24.58417391        2       0.00000000      -0.23115873       0.10834724       0.31642830
Pt       8.42164222       6.48298341      24.58417381        2       0.00000000       0.23381509       0.10498609       0.31792200
Pt       0.09171830       0.05059299      27.29310708        1       0.00000000       0.01742114       0.00306225      -0.00183206
Pt       2.80829387       0.00376695      26.90037047        1       0.00000000      -0.00543331      -0.04668951       0.00945345
Pt       5.52465552       0.05394577      27.29308549        1       0.00000000      -0.01112066       0.01360640      -0.00174041
Pt       1.40628019       2.42822422      26.90033880        1       0.00000000      -0.03745279       0.02809369       0.00962974
Pt       4.20708668       2.43009026      26.90033915        1       0.00000000       0.04296456       0.01843874       0.00964902
Pt       7.01863959       2.45500412      26.89810287        1       0.00000000       0.00030132       0.00486584       0.00827101
Pt       2.80527792       4.75723924      27.29305737        1       0.00000000      -0.00612924      -0.01504129      -0.00144126
Pt       5.63477389       4.84976104      26.89801297        1       0.00000000       0.00424682      -0.00298359       0.00839732
Pt       8.40068954       4.85083211      26.89800204        1       0.00000000      -0.00468125      -0.00233815       0.00841796
C       11.22886564       6.48285305      28.17381571        0       1.00000000      -0.00014537      -0.00143964       0.01484873
H       11.22886360       6.48372550      26.17342078        0       0.00000000       0.00000525       0.00076833       0.03528442
