38
Lattice="8.421641763931781 0.0 0.0 4.2108208819658905 7.293355709136913 0.0 0.0 0.0 46.87624170604845" Properties=species:S:1:pos:R:3:tags:I:1:initial_magmoms:R:1:forces:R:3 charge=0 spin=0 energy=-197.50797057827236 free_energy=-197.50797057827236 stress="0.009007594548165798 -1.391206154721658e-07 3.3932586518403696e-08 -1.391206154721658e-07 0.009008406661450863 3.4783815294758824e-07 3.3932586518403696e-08 3.4783815294758824e-07 -0.0009222685475833714" pbc="T T T"
Pt      -0.00000012       0.00000002      19.95723426        4       0.00000000       0.00821264      -0.00358347       0.01931948
Pt       2.80721404      -0.00000018      19.95723442        4       0.00000000      -0.00718175      -0.00529061       0.01924783
Pt       5.61442782      -0.00000007      19.95723448        4       0.00000000      -0.00035287      -0.00608645       0.02200066
Pt       1.40360721       2.43111841      19.95723428        4       0.00000000       0.00285522       0.02435901      -0.03718987
Pt       4.21082083       2.43111835      19.95723436        4       0.00000000      -0.00509270       0.00339578       0.02224491
Pt       7.01803478       2.43111845      19.95723424        4       0.00000000       0.00544459       0.00269487       0.02209019
Pt       2.80721407       4.86223728      19.95723400        4       0.00000000      -0.02254918      -0.00972240      -0.03708459
Pt       5.61442803       4.86223733      19.95723419        4       0.00000000      -0.00103502       0.00887486       0.01952348
Pt       8.42164139       4.86223726      19.95723434        4       0.00000000       0.01969399      -0.01468069      -0.03730045
Pt       1.40360728       0.81037259      22.29206791        3       0.00000000       0.00020919       0.10279657      -0.15199883
Pt       4.21082130       0.81037249      22.29206784        3       0.00000000      -0.01978529      -0.01769287      -0.01651137
Pt       7.01803471       0.81037256      22.29206781        3       0.00000000       0.02523949      -0.00821192      -0.01658939
Pt       2.80721448       3.24149124      22.29206773        3       0.00000000      -0.04262817       0.02516646      -0.19443609
Pt       5.61442763       3.24149123      22.29206786        3       0.00000000      -0.00545268       0.02593720      -0.01600491
Pt       8.42164156       3.24149129      22.29206804        3       0.00000000       0.04314164       0.02420668      -0.19457415
Pt       4.21082092       5.67260997      22.29206793        3       0.00000000      -0.08925922      -0.05116435      -0.15166897
Pt       7.01803487       5.67261037      22.29206776        3       0.00000000       0.08903736      -0.05167922      -0.15173133
Pt       9.82524821       5.67261065      22.29206806        3       0.00000000      -0.00050981      -0.04936040      -0.19473611
Pt      -0.00000053       1.62074569      24.58417386        2       0.00000000       0.02176923      -0.25447959       0.31630561
Pt       2.80721443       1.62074549      24.58417398        2       0.00000000      -0.02612891      -0.25516587       0.31797096
Pt       5.61442778       1.62074537      24.58417377        2       0.00000000       0.00002044      -0.00002569      -0.01989437
Pt       1.40360637       4.05186439      24.58417390        2       0.00000000       0.00001398      -0.00006853      -0.24129756
Pt       4.21082088       4.05186403      24.58417379        2       0.00000000       0.20947181       0.14621250       0.31619611
Pt       7.01803504       4.05186408      24.58417406        2       0.00000000      -0.20775650       0.15026662       0.31753734
Pt       2.80721282       6.48298343      24.58417376        2       0.00000000       0.23383634       0.10498044       0.31791040
Pt       5.61442796       6.48298325      24.58417391        2       0.00000000      -0.00001429      -0.00037152      -0.66478360
Pt       8.42164222       6.48298341      24.58417381        2       0.00000000      -0.23117001       0.10833776       0.31643379
Pt      -0.08976212       0.05394095      27.29306919        1       0.00000000      -0.01116359       0.01361869      -0.00173867
Pt       2.89893838       0.05059082      27.29310901        1       0.00000000       0.01738353       0.00304148      -0.00181878
Pt       5.61550999       0.00376909      26.90036642        1       0.00000000      -0.00542162      -0.04671080       0.00946745
Pt       1.40421084       2.45500161      26.89810206        1       0.00000000       0.00031612       0.00487445       0.00827340
Pt       4.21349784       2.42822170      26.90033463        1       0.00000000      -0.03746287       0.02810069       0.00964385
Pt       7.01430295       2.43008863      26.90034229        1       0.00000000       0.04296738       0.01843677       0.00964045
Pt       2.78626268       4.85082789      26.89800167        1       0.00000000      -0.00467931      -0.00233311       0.00841995
Pt       5.61249585       4.75723190      27.29306785        1       0.00000000      -0.00613416      -0.01500937      -0.00144338
Pt       8.44198668       4.84975904      26.89801399        1       0.00000000       0.00425406      -0.00298040       0.00839526
C        5.61443894       6.48285158      28.17381392        0       1.00000000      -0.00008523      -0.00146715       0.01482795
H        5.61442469       6.48374437      26.17341399        0       0.00000000      -0.00000369       0.00078360       0.03535318
