38
Lattice="8.421641763931781 0.0 0.0 4.2108208819658905 7.293355709136913 0.0 0.0 0.0 46.87624170604845" Properties=species:S:1:pos:R:3:tags:I:1:initial_magmoms:R:1:forces:R:3 charge=0 spin=0 energy=-197.5080831118417 free_energy=-197.5080831118417 stress="0.009057472459971905 -1.3056965997293446e-07 1.4600713971191226e-09 -1.3056965997293446e-07 0.009057424031198025 4.5418929062179814e-08 1.4600713971191226e-09 4.5418929062179814e-08 -0.0008545011514797807" pbc="T T T"
Pt      -0.00000012       0.00000002      19.95723426        4       0.00000000      -0.00743728      -0.00544427       0.01883742
Pt       2.80721404      -0.00000018      19.95723442        4       0.00000000      -0.00029958      -0.00597549       0.02190562
Pt       5.61442782      -0.00000007      19.95723448        4       0.00000000       0.00847173      -0.00372641       0.01888644
Pt       1.40360721       2.43111841      19.95723428        4       0.00000000      -0.00503586       0.00329333       0.02215791
Pt       4.21082083       2.43111835      19.95723436        4       0.00000000       0.00533492       0.00268772       0.02200337
Pt       7.01803478       2.43111845      19.95723424        4       0.00000000       0.00291272       0.02441114      -0.03720764
Pt       2.80721407       4.86223728      19.95723400        4       0.00000000      -0.00103032       0.00916935       0.01908850
Pt       5.61442803       4.86223733      19.95723419        4       0.00000000       0.01967411      -0.01473923      -0.03725655
Pt       8.42164139       4.86223726      19.95723434        4       0.00000000      -0.02258834      -0.00967750      -0.03704366
Pt       1.40360728       0.81037259      22.29206791        3       0.00000000      -0.01939048      -0.01737262      -0.01717293
Pt       4.21082130       0.81037249      22.29206784        3       0.00000000       0.02475755      -0.00803120      -0.01724913
Pt       7.01803471       0.81037256      22.29206781        3       0.00000000       0.00009775       0.10270404      -0.14903398
Pt       2.80721448       3.24149124      22.29206773        3       0.00000000      -0.00537695       0.02541425      -0.01668719
Pt       5.61442763       3.24149123      22.29206786        3       0.00000000       0.04261620       0.02395050      -0.19712721
Pt       8.42164156       3.24149129      22.29206804        3       0.00000000      -0.04214785       0.02481987      -0.19699240
Pt       4.21082092       5.67260997      22.29206793        3       0.00000000       0.08896812      -0.05149073      -0.14873400
Pt       7.01803487       5.67261037      22.29206776        3       0.00000000      -0.00045767      -0.04877974      -0.19726060
Pt       9.82524821       5.67261065      22.29206806        3       0.00000000      -0.08906718      -0.05122131      -0.14868104
Pt      -0.00000053       1.62074569      24.58417386        2       0.00000000      -0.03101450      -0.25980785       0.31787494
Pt       2.80721443       1.62074549      24.58417398        2       0.00000000       0.00000369      -0.00000729      -0.01355964
Pt       5.61442778       1.62074537      24.58417377        2       0.00000000       0.02800901      -0.25853765       0.31635287
Pt       1.40360637       4.05186439      24.58417390        2       0.00000000       0.20971808       0.15360776       0.31616315
Pt       4.21082088       4.05186403      24.58417379        2       0.00000000      -0.20916465       0.15681098       0.31734979
Pt       7.01803504       4.05186408      24.58417406        2       0.00000000      -0.00001096       0.00002545      -0.21585095
Pt       2.80721282       6.48298343      24.58417376        2       0.00000000       0.00001890      -0.00001074      -0.59253740
Pt       5.61442796       6.48298325      24.58417391        2       0.00000000      -0.23774676       0.10492173       0.31646436
Pt       8.42164222       6.48298341      24.58417381        2       0.00000000       0.24020046       0.10299212       0.31783307
Pt       0.09031869       0.05023591      27.29851055        1       0.00000000       0.03089693       0.01104531      -0.01026087
Pt       2.80752471      -0.00207519      26.89638164        1       0.00000000      -0.00238923      -0.01881217       0.01884346
Pt       5.52576783       0.05309726      27.29850974        1       0.00000000      -0.02503367       0.02126145      -0.01026961
Pt       1.40166958       2.43188441      26.89637624        1       0.00000000      -0.01506593       0.01164792       0.01895904
Pt       4.21246313       2.43242684      26.89637967        1       0.00000000       0.01760046       0.00717067       0.01895156
Pt       7.01983564       2.45091858      26.90115752        1       0.00000000      -0.00285568       0.03320123      -0.00318255
Pt       2.80556362       4.75890262      27.29851262        1       0.00000000      -0.00589740      -0.03231229      -0.01027211
Pt       5.63067712       4.85078441      26.90119275        1       0.00000000       0.03009673      -0.01429112      -0.00337889
Pt       8.40359018       4.85389792      26.90118519        1       0.00000000      -0.02738665      -0.01893459      -0.00335850
C       11.22885580       6.48297995      28.18219610        0       1.00000000       0.00003252       0.00003974       0.01094713
H       11.22884078       6.48297825      26.17950352        0       0.00000000      -0.00001298      -0.00000212      -0.02950160
