38
Lattice="8.421641763931781 0.0 0.0 4.2108208819658905 7.293355709136913 0.0 0.0 0.0 46.87624170604845" Properties=species:S:1:pos:R:3:tags:I:1:initial_magmoms:R:1:forces:R:3 charge=0 spin=0 energy=-197.5080831118417 free_energy=-197.5080831118417 stress="0.009057397022843361 -1.337812989277154e-07 4.2410746026178e-09 -1.337812989277154e-07 0.009057346731424332 4.601652037194981e-08 4.2410746026178e-09 4.601652037194981e-08 -0.0008546500466763973" pbc="T T T"
Pt      -0.00000012       0.00000002      19.95723426        4       0.00000000      -0.02258687      -0.00967347      -0.03704404
Pt       2.80721404      -0.00000018      19.95723442        4       0.00000000      -0.00103353       0.00917517       0.01907840
Pt       5.61442782      -0.00000007      19.95723448        4       0.00000000       0.01967547      -0.01473190      -0.03726646
Pt       1.40360721       2.43111841      19.95723428        4       0.00000000       0.00847094      -0.00372862       0.01889581
Pt       4.21082083       2.43111835      19.95723436        4       0.00000000      -0.00743691      -0.00544150       0.01883824
Pt       7.01803478       2.43111845      19.95723424        4       0.00000000      -0.00029932      -0.00597719       0.02191430
Pt       2.80721407       4.86223728      19.95723400        4       0.00000000       0.00291487       0.02440534      -0.03720736
Pt       5.61442803       4.86223733      19.95723419        4       0.00000000      -0.00503703       0.00328894       0.02215596
Pt       8.42164139       4.86223726      19.95723434        4       0.00000000       0.00533426       0.00268092       0.02200195
Pt       1.40360728       0.81037259      22.29206791        3       0.00000000      -0.08907571      -0.05120538      -0.14867584
Pt       4.21082130       0.81037249      22.29206784        3       0.00000000       0.08896780      -0.05148476      -0.14873013
Pt       7.01803471       0.81037256      22.29206781        3       0.00000000      -0.00045208      -0.04877030      -0.19726501
Pt       2.80721448       3.24149124      22.29206773        3       0.00000000       0.00008837       0.10270091      -0.14903145
Pt       5.61442763       3.24149123      22.29206786        3       0.00000000      -0.01938483      -0.01737603      -0.01717646
Pt       8.42164156       3.24149129      22.29206804        3       0.00000000       0.02476336      -0.00803727      -0.01725169
Pt       4.21082092       5.67260997      22.29206793        3       0.00000000      -0.04215576       0.02482058      -0.19699557
Pt       7.01803487       5.67261037      22.29206776        3       0.00000000      -0.00537212       0.02540679      -0.01668398
Pt       9.82524821       5.67261065      22.29206806        3       0.00000000       0.04262082       0.02393919      -0.19712676
Pt      -0.00000053       1.62074569      24.58417386        2       0.00000000       0.24021398       0.10299857       0.31781146
Pt       2.80721443       1.62074549      24.58417398        2       0.00000000       0.00000163      -0.00000226      -0.59257013
Pt       5.61442778       1.62074537      24.58417377        2       0.00000000      -0.23774184       0.10493150       0.31644869
Pt       1.40360637       4.05186439      24.58417390        2       0.00000000       0.02801326      -0.25854686       0.31633317
Pt       4.21082088       4.05186403      24.58417379        2       0.00000000      -0.03101651      -0.25980228       0.31786057
Pt       7.01803504       4.05186408      24.58417406        2       0.00000000       0.00000518      -0.00000679      -0.01356998
Pt       2.80721282       6.48298343      24.58417376        2       0.00000000       0.00000470       0.00001334      -0.21586980
Pt       5.61442796       6.48298325      24.58417391        2       0.00000000       0.20970955       0.15360783       0.31615138
Pt       8.42164222       6.48298341      24.58417381        2       0.00000000      -0.20917588       0.15679972       0.31733656
Pt      -0.01805109      -0.00833766      26.90118267        1       0.00000000      -0.02740033      -0.01894823      -0.00334807
Pt       2.80556322      -0.10332645      27.29850000        1       0.00000000      -0.00589478      -0.03235674      -0.01025001
Pt       5.63067457      -0.01145201      26.90119071        1       0.00000000       0.03011356      -0.01430053      -0.00336370
Pt       1.31495451       2.48421140      27.29849222        1       0.00000000      -0.02507124       0.02128134      -0.01025001
Pt       4.30113202       2.48135038      27.29849907        1       0.00000000       0.03093677       0.01106884      -0.01024022
Pt       7.01834589       2.42904022      26.89637511        1       0.00000000      -0.00239150      -0.01879457       0.01887066
Pt       2.80901479       4.88203555      26.90115475        1       0.00000000      -0.00285723       0.03322003      -0.00317668
Pt       5.61248877       4.86300448      26.89637002        1       0.00000000      -0.01505296       0.01163850       0.01898479
Pt       8.42328606       4.86354598      26.89637312        1       0.00000000       0.01758260       0.00717032       0.01897787
C        2.80721448       1.62074305      28.18220295        0       1.00000000       0.00003166       0.00003806       0.01095052
H        2.80719988       1.62074186      26.17950819        0       0.00000000      -0.00001262      -0.00000141      -0.02951697
