38
Lattice="8.421641763931781 0.0 0.0 4.2108208819658905 7.293355709136913 0.0 0.0 0.0 46.87624170604845" Properties=species:S:1:pos:R:3:tags:I:1:initial_magmoms:R:1:forces:R:3 charge=0 spin=0 energy=-197.50796867092373 free_energy=-197.50796867092373 stress="0.009007961489260197 -1.5223142213471874e-07 4.485782056917742e-08 -1.5223142213471874e-07 0.009008779190480709 3.55826188069841e-07 4.485782056917742e-08 3.55826188069841e-07 -0.0009212499717250466" pbc="T T T"
Pt      -0.00000012       0.00000002      19.95723426        4       0.00000000      -0.00509160       0.00339088       0.02224076
Pt       2.80721404      -0.00000018      19.95723442        4       0.00000000       0.00544160       0.00269638       0.02207702
Pt       5.61442782      -0.00000007      19.95723448        4       0.00000000       0.00285779       0.02436479      -0.03719943
Pt       1.40360721       2.43111841      19.95723428        4       0.00000000      -0.00103470       0.00887910       0.01952026
Pt       4.21082083       2.43111835      19.95723436        4       0.00000000       0.01969647      -0.01467740      -0.03729712
Pt       7.01803478       2.43111845      19.95723424        4       0.00000000      -0.02255646      -0.00971813      -0.03708620
Pt       2.80721407       4.86223728      19.95723400        4       0.00000000      -0.00717815      -0.00529636       0.01925374
Pt       5.61442803       4.86223733      19.95723419        4       0.00000000      -0.00035282      -0.00609089       0.02200598
Pt       8.42164139       4.86223726      19.95723434        4       0.00000000       0.00821180      -0.00358718       0.01931570
Pt       1.40360728       0.81037259      22.29206791        3       0.00000000      -0.00545823       0.02593544      -0.01599589
Pt       4.21082130       0.81037249      22.29206784        3       0.00000000       0.04314121       0.02421674      -0.19461480
Pt       7.01803471       0.81037256      22.29206781        3       0.00000000      -0.04262292       0.02517316      -0.19447805
Pt       2.80721448       3.24149124      22.29206773        3       0.00000000       0.08903424      -0.05167220      -0.15173684
Pt       5.61442763       3.24149123      22.29206786        3       0.00000000      -0.00051210      -0.04935385      -0.19477816
Pt       8.42164156       3.24149129      22.29206804        3       0.00000000      -0.08925597      -0.05116597      -0.15166970
Pt       4.21082092       5.67260997      22.29206793        3       0.00000000      -0.01978042      -0.01769627      -0.01650619
Pt       7.01803487       5.67261037      22.29206776        3       0.00000000       0.02523185      -0.00821779      -0.01658236
Pt       9.82524821       5.67261065      22.29206806        3       0.00000000       0.00021989       0.10278252      -0.15199909
Pt      -0.00000053       1.62074569      24.58417386        2       0.00000000       0.20950022       0.14629799       0.31625417
Pt       2.80721443       1.62074549      24.58417398        2       0.00000000      -0.20778963       0.15034541       0.31760558
Pt       5.61442778       1.62074537      24.58417377        2       0.00000000       0.00001074      -0.00005944      -0.24108684
Pt       1.40360637       4.05186439      24.58417390        2       0.00000000      -0.00002578      -0.00037153      -0.66338557
Pt       4.21082088       4.05186403      24.58417379        2       0.00000000      -0.23124105       0.10833192       0.31648302
Pt       7.01803504       4.05186408      24.58417406        2       0.00000000       0.23391069       0.10497365       0.31799099
Pt       2.80721282       6.48298343      24.58417376        2       0.00000000      -0.02616878      -0.25523984       0.31804100
Pt       5.61442796       6.48298325      24.58417391        2       0.00000000       0.00000977      -0.00003664      -0.01997999
Pt       8.42164222       6.48298341      24.58417381        2       0.00000000       0.02181591      -0.25455582       0.31636533
Pt       0.00268824      -0.00290276      26.90032205        1       0.00000000      -0.03758854       0.02814627       0.00963687
Pt       2.80346489      -0.00104047      26.90032821        1       0.00000000       0.04307906       0.01852140       0.00964139
Pt       5.61502128       0.02386042      26.89811365        1       0.00000000       0.00033331       0.00494368       0.00821683
Pt       1.40167353       2.32605785      27.29324029        1       0.00000000      -0.00613344      -0.01499275      -0.00172977
Pt       4.23114631       2.41865864      26.89802276        1       0.00000000       0.00431029      -0.00304143       0.00833857
Pt       6.99710303       2.41971433      26.89801408        1       0.00000000      -0.00474682      -0.00234805       0.00835788
Pt       2.89897623       4.91285587      27.29327661        1       0.00000000       0.01740225       0.00306174      -0.00210631
Pt       5.61550720       4.86602160      26.90035371        1       0.00000000      -0.00542822      -0.04684222       0.00945424
Pt       8.33182269       4.91620293      27.29324979        1       0.00000000      -0.01112783       0.01359112      -0.00202502
C        9.82525656       4.05173232      28.17379140        0       1.00000000      -0.00013725      -0.00147513       0.01514601
H        9.82527411       4.05262833      26.17348366        0       0.00000000       0.00002373       0.00078686       0.03431220
