38
Lattice="8.421641763931781 0.0 0.0 4.2108208819658905 7.293355709136913 0.0 0.0 0.0 46.87624170604845" Properties=species:S:1:pos:R:3:tags:I:1:initial_magmoms:R:1:forces:R:3 charge=0 spin=0 energy=-197.50848174770596 free_energy=-197.50848174770596 stress="0.009098652750253677 -1.4696459516017057e-07 -1.3488576477982406e-08 -1.4696459516017057e-07 0.009098597802221775 7.156448589284992e-08 -1.3488576477982406e-08 7.156448589284992e-08 -0.0007911089342087507" pbc="T T T"
Pt      -0.00000012       0.00000002      19.95723426        4       0.00000000      -0.00099360       0.00929616       0.01955898
Pt       2.80721404      -0.00000018      19.95723442        4       0.00000000       0.01975580      -0.01461303      -0.03710590
Pt       5.61442782      -0.00000007      19.95723448        4       0.00000000      -0.02252421      -0.00979907      -0.03688908
Pt       1.40360721       2.43111841      19.95723428        4       0.00000000      -0.00756921      -0.00547126       0.01931244
Pt       4.21082083       2.43111835      19.95723436        4       0.00000000      -0.00025838      -0.00617739       0.02226724
Pt       7.01803478       2.43111845      19.95723424        4       0.00000000       0.00856053      -0.00382191       0.01936640
Pt       2.80721407       4.86223728      19.95723400        4       0.00000000      -0.00522715       0.00335770       0.02250687
Pt       5.61442803       4.86223733      19.95723419        4       0.00000000       0.00548771       0.00281595       0.02235140
Pt       8.42164139       4.86223726      19.95723434        4       0.00000000       0.00276966       0.02441523      -0.03705340
Pt       1.40360728       0.81037259      22.29206791        3       0.00000000       0.08843474      -0.05135036      -0.15111648
Pt       4.21082130       0.81037249      22.29206784        3       0.00000000      -0.00040148      -0.04899132      -0.19458286
Pt       7.01803471       0.81037256      22.29206781        3       0.00000000      -0.08869223      -0.05080600      -0.15105808
Pt       2.80721448       3.24149124      22.29206773        3       0.00000000      -0.01907265      -0.01720703      -0.01857563
Pt       5.61442763       3.24149123      22.29206786        3       0.00000000       0.02445287      -0.00784962      -0.01864465
Pt       8.42164156       3.24149129      22.29206804        3       0.00000000       0.00025338       0.10217501      -0.15140429
Pt       4.21082092       5.67260997      22.29206793        3       0.00000000      -0.00538423       0.02505624      -0.01807123
Pt       7.01803487       5.67261037      22.29206776        3       0.00000000       0.04278188       0.02410834      -0.19442862
Pt       9.82524821       5.67261065      22.29206806        3       0.00000000      -0.04237617       0.02487469      -0.19430120
Pt      -0.00000053       1.62074569      24.58417386        2       0.00000000       0.00004278       0.00003530      -0.64005488
Pt       2.80721443       1.62074549      24.58417398        2       0.00000000      -0.22792774       0.10952864       0.32903078
Pt       5.61442778       1.62074537      24.58417377        2       0.00000000       0.23082298       0.10526027       0.33138788
Pt       1.40360637       4.05186439      24.58417390        2       0.00000000      -0.02441781      -0.25275582       0.33159849
Pt       4.21082088       4.05186403      24.58417379        2       0.00000000       0.00000017       0.00004376       0.02688389
Pt       7.01803504       4.05186408      24.58417406        2       0.00000000       0.01913055      -0.25230139       0.32897809
Pt       2.80721282       6.48298343      24.58417376        2       0.00000000       0.20880629       0.14276506       0.32872805
Pt       5.61442796       6.48298325      24.58417391        2       0.00000000      -0.20641696       0.14749968       0.33100507
Pt       8.42164222       6.48298341      24.58417381        2       0.00000000      -0.00001190      -0.00004216      -0.23461297
Pt      -0.00411690      -0.10429336      27.29537702        1       0.00000000       0.00258421      -0.00281570      -0.00406017
Pt       2.83074145      -0.01344460      26.90275732        1       0.00000000      -0.01671610       0.00444400      -0.00139661
Pt       5.59102125      -0.01364761      26.90274477        1       0.00000000       0.01218465       0.01222029      -0.00135362
Pt       1.49603279       2.47971772      27.29538745        1       0.00000000       0.00098720       0.00352864      -0.00402760
Pt       4.21162057       2.42517365      26.90733862        1       0.00000000       0.00214084       0.00739705      -0.01674533
Pt       6.92978062       2.48685366      27.29538127        1       0.00000000      -0.00355437      -0.00091560      -0.00397870
Pt       2.80167108       4.86456217      26.90736537        1       0.00000000       0.00537296      -0.00552183      -0.01676200
Pt       5.61920098       4.86586918      26.90738271        1       0.00000000      -0.00749859      -0.00180540      -0.01678783
Pt       8.42148752       4.88933670      26.90279468        1       0.00000000       0.00451075      -0.01666618      -0.00141270
C        8.42166965       1.62075284      28.18020106        0       1.00000000       0.00003053       0.00014795      -0.00916927
H        8.42158105       1.62068341      26.17534229        0       0.00000000      -0.00006775      -0.00005904       0.02061770
