38
Lattice="8.421641763931781 0.0 0.0 4.2108208819658905 7.293355709136913 0.0 0.0 0.0 46.87624170604845" Properties=species:S:1:pos:R:3:tags:I:1:initial_magmoms:R:1:forces:R:3 charge=0 spin=0 energy=-197.989848858912 free_energy=-197.989848858912 stress="0.00748199550434947 -0.0001550375745864585 -6.820428825449198e-05 -0.0001550375745864585 0.007568645756691694 -8.913226338336244e-05 -6.820428825449198e-05 -8.913226338336244e-05 -0.0007387585355900228" pbc="T T T"
Pt      -0.00000012       0.00000002      19.95723426        4       0.00000000       0.00019745       0.00484873       0.02636742
Pt       2.80721404      -0.00000018      19.95723442        4       0.00000000      -0.00474995      -0.00205327       0.01815389
Pt       5.61442782      -0.00000007      19.95723448        4       0.00000000       0.00414437       0.00098976       0.00781143
Pt       1.40360721       2.43111841      19.95723428        4       0.00000000       0.00656263       0.01156879      -0.01390772
Pt       4.21082083       2.43111835      19.95723436        4       0.00000000      -0.00197318       0.00470021       0.00889906
Pt       7.01803478       2.43111845      19.95723424        4       0.00000000      -0.00833402      -0.00592253      -0.01054827
Pt       2.80721407       4.86223728      19.95723400        4       0.00000000      -0.02102551      -0.00468886       0.00240468
Pt       5.61442803       4.86223733      19.95723419        4       0.00000000       0.00223675      -0.00399231       0.02842278
Pt       8.42164139       4.86223726      19.95723434        4       0.00000000       0.01808871      -0.01431594      -0.01408944
Pt       1.40360728       0.81037259      22.29206791        3       0.00000000      -0.00435149       0.06854761      -0.12004072
Pt       4.21082130       0.81037249      22.29206784        3       0.00000000      -0.00676437      -0.00600693      -0.07579809
Pt       7.01803471       0.81037256      22.29206781        3       0.00000000       0.01454944       0.02074430      -0.06519269
Pt       2.80721448       3.24149124      22.29206773        3       0.00000000      -0.03948408       0.00657563      -0.11094098
Pt       5.61442763       3.24149123      22.29206786        3       0.00000000       0.02567890       0.00506172      -0.07329491
Pt       8.42164156       3.24149129      22.29206804        3       0.00000000      -0.00739657       0.00144547      -0.26117492
Pt       4.21082092       5.67260997      22.29206793        3       0.00000000      -0.03537885      -0.01885692      -0.01797418
Pt       7.01803487       5.67261037      22.29206776        3       0.00000000       0.07196800      -0.05117895      -0.14700757
Pt       9.82524821       5.67261065      22.29206806        3       0.00000000      -0.03094688      -0.03539289      -0.13720402
Pt      -0.00000053       1.62074569      24.58417386        2       0.00000000      -0.01627784      -0.24277782       0.28104928
Pt       2.80721443       1.62074549      24.58417398        2       0.00000000      -0.01806285      -0.02858613       0.00906026
Pt       5.61442778       1.62074537      24.58417377        2       0.00000000       0.02572463      -0.00004574      -0.09668583
Pt       1.40360637       4.05186439      24.58417390        2       0.00000000       0.11447739       0.04510481       0.17489116
Pt       4.21082088       4.05186403      24.58417379        2       0.00000000       0.03928971       0.11894189       0.20235886
Pt       7.01803504       4.05186408      24.58417406        2       0.00000000      -0.18162011       0.10994081       0.27501702
Pt       2.80721282       6.48298343      24.58417376        2       0.00000000       0.15915610      -0.00795217       0.24305768
Pt       5.61442796       6.48298325      24.58417391        2       0.00000000      -0.14229961      -0.08023341      -0.16963975
Pt       8.42164222       6.48298341      24.58417381        2       0.00000000      -0.01432951       0.01009674       0.00790845
Pt      -0.03890068       0.13454755      27.31240933        1       0.00000000       0.00666047       0.02512600       0.01358518
Pt       2.91146860       0.04179059      27.02466567        1       0.00000000      -0.01198981      -0.00412728      -0.01587394
Pt       5.61785177       0.00559435      26.89668227        1       0.00000000       0.00306878       0.00973502       0.00184633
Pt       1.39037732       2.41957646      26.90553440        1       0.00000000       0.00479651       0.00203516      -0.00493005
Pt       4.21309434       2.40903591      26.89152481        1       0.00000000       0.00568468      -0.00598301       0.00191460
Pt       7.01098290       2.42510130      26.89475702        1       0.00000000       0.03622679       0.01230357       0.00156950
Pt       2.69239678       4.78738233      27.02263502        1       0.00000000       0.00494799       0.00286517       0.01838252
Pt       5.69765732       4.76584707      27.18708833        1       0.00000000       0.00635297       0.01930134      -0.00016501
Pt       8.41436842       4.85902372      26.90508744        1       0.00000000      -0.01345169      -0.00263835      -0.00060636
C        4.13948448       5.61074033      27.93360474        0       1.00000000       0.01847209      -0.01109145      -0.00053571
H        5.61166073       6.66657535      26.31950484        0       0.00000000      -0.00984775       0.04591097       0.01290979
