38
Lattice="8.421641763931781 0.0 0.0 4.2108208819658905 7.293355709136913 0.0 0.0 0.0 46.87624170604845" Properties=species:S:1:pos:R:3:tags:I:1:initial_magmoms:R:1:forces:R:3 charge=0 spin=0 energy=-197.93990684231045 free_energy=-197.93990684231045 stress="0.0070245033130049706 3.414265847823117e-08 1.6753283205162006e-07 3.414265847823117e-08 0.00702094379812479 1.0219509931630455e-06 1.6753283205162006e-07 1.0219509931630455e-06 -0.0010912525467574596" pbc="T T T"
Pt      -0.00000012       0.00000002      19.95723426        4       0.00000000      -0.00347793       0.00262701       0.01469591
Pt       2.80721404      -0.00000018      19.95723442        4       0.00000000       0.00841729       0.00311361      -0.02581889
Pt       5.61442782      -0.00000007      19.95723448        4       0.00000000      -0.00695760       0.00571775      -0.02591030
Pt       1.40360721       2.43111841      19.95723428        4       0.00000000       0.00667915      -0.00515904       0.01826490
Pt       4.21082083       2.43111835      19.95723436        4       0.00000000      -0.00145723      -0.00883755      -0.02590351
Pt       7.01803478       2.43111845      19.95723424        4       0.00000000      -0.00777363      -0.00315604       0.01830357
Pt       2.80721407       4.86223728      19.95723400        4       0.00000000      -0.00052676      -0.00437225       0.01452015
Pt       5.61442803       4.86223733      19.95723419        4       0.00000000       0.00400641       0.00169337       0.01464718
Pt       8.42164139       4.86223726      19.95723434        4       0.00000000       0.00109664       0.00827406       0.01820109
Pt       1.40360728       0.81037259      22.29206791        3       0.00000000       0.07184097      -0.03859043      -0.13561317
Pt       4.21082130       0.81037249      22.29206784        3       0.00000000      -0.00000041       0.00000491      -0.26908186
Pt       7.01803471       0.81037256      22.29206781        3       0.00000000      -0.06604421      -0.03103356      -0.12910935
Pt       2.80721448       3.24149124      22.29206773        3       0.00000000       0.05983046      -0.04182782      -0.12953214
Pt       5.61442763       3.24149123      22.29206786        3       0.00000000      -0.06922891      -0.04293973      -0.13596110
Pt       8.42164156       3.24149129      22.29206804        3       0.00000000      -0.00000041      -0.00004108      -0.22471362
Pt       4.21082092       5.67260997      22.29206793        3       0.00000000      -0.00000886      -0.00003536      -0.11084110
Pt       7.01803487       5.67261037      22.29206776        3       0.00000000       0.00620174       0.07273500      -0.12942524
Pt       9.82524821       5.67261065      22.29206806        3       0.00000000      -0.00263360       0.08139585      -0.13576907
Pt      -0.00000053       1.62074569      24.58417386        2       0.00000000       0.00713749      -0.57452005       0.27909672
Pt       2.80721443       1.62074549      24.58417398        2       0.00000000      -0.10936948       0.06514559       0.26216978
Pt       5.61442778       1.62074537      24.58417377        2       0.00000000       0.11081688       0.06252573       0.26220945
Pt       1.40360637       4.05186439      24.58417390        2       0.00000000       0.49407700       0.29336005       0.27941722
Pt       4.21082088       4.05186403      24.58417379        2       0.00000000       0.01003096      -0.00454017      -0.08808339
Pt       7.01803504       4.05186408      24.58417406        2       0.00000000      -0.50104523       0.28132811       0.27953592
Pt       2.80721282       6.48298343      24.58417376        2       0.00000000      -0.00920760      -0.00634315      -0.08841119
Pt       5.61442796       6.48298325      24.58417391        2       0.00000000      -0.00088078       0.01134299      -0.08832300
Pt       8.42164222       6.48298341      24.58417381        2       0.00000000      -0.00148322      -0.12722477       0.26230422
Pt      -0.00294267      -0.01708503      26.89440321        1       0.00000000       0.00185082       0.00262885       0.00618830
Pt       2.80086493      -0.00372583      26.89475221        1       0.00000000       0.00180553       0.00618051       0.00408992
Pt       5.62103027      -0.00336513      26.89476024        1       0.00000000      -0.00610496      -0.00121389       0.00407259
Pt       1.52771468       2.35989752      27.18029053        1       0.00000000      -0.01614880       0.00523813       0.00793861
Pt       4.21062153       2.43883746      26.89478314        1       0.00000000       0.00424896      -0.00488136       0.00393968
Pt       6.89409162       2.35966302      27.18030339        1       0.00000000       0.01350471       0.01103641       0.00811830
Pt       2.82374686       4.86855310      26.89436642        1       0.00000000      -0.00318628       0.00014562       0.00612691
Pt       5.60090635       4.87369030      26.89436660        1       0.00000000       0.00143868      -0.00287147       0.00612662
Pt       8.42154125       5.00560586      27.18021732        1       0.00000000       0.00309451      -0.01283251       0.00662810
C        8.42169664       3.24199040      27.91222890        0       1.00000000      -0.00055775      -0.00414472      -0.02857490
H        8.42162956       3.24142161      25.35835586        0       0.00000000       0.00001555       0.00007124      -0.00552342
