38
Lattice="8.421641763931781 0.0 0.0 4.2108208819658905 7.293355709136913 0.0 0.0 0.0 46.87624170604845" Properties=species:S:1:pos:R:3:tags:I:1:initial_magmoms:R:1:forces:R:3 charge=0 spin=0 energy=-197.98585296352627 free_energy=-197.98585296352627 stress="0.007506902329623699 -0.00017157789261545986 -6.715706695104018e-05 -0.00017157789261545986 0.007612223271280527 -5.343610609997995e-05 -6.715706695104018e-05 -5.343610609997995e-05 -0.0006812221836298704" pbc="T T T"
Pt      -0.00000012       0.00000002      19.95723426        4       0.00000000       0.00341534       0.00021746       0.00818104
Pt       2.80721404      -0.00000018      19.95723442        4       0.00000000      -0.00026506       0.00366764       0.02681700
Pt       5.61442782      -0.00000007      19.95723448        4       0.00000000      -0.00544403      -0.00330903       0.01824013
Pt       1.40360721       2.43111841      19.95723428        4       0.00000000      -0.00920828      -0.00592756      -0.01014143
Pt       4.21082083       2.43111835      19.95723436        4       0.00000000       0.00443987       0.01558790      -0.01429481
Pt       7.01803478       2.43111845      19.95723424        4       0.00000000      -0.00231895       0.00426537       0.00854192
Pt       2.80721407       4.86223728      19.95723400        4       0.00000000       0.01420451      -0.01154510      -0.01344992
Pt       5.61442803       4.86223733      19.95723419        4       0.00000000      -0.02127754      -0.00557061       0.00347923
Pt       8.42164139       4.86223726      19.95723434        4       0.00000000       0.00268827      -0.00511781       0.02798885
Pt       1.40360728       0.81037259      22.29206791        3       0.00000000       0.01497111       0.02053782      -0.06749082
Pt       4.21082130       0.81037249      22.29206784        3       0.00000000      -0.00714713       0.07508860      -0.12944825
Pt       7.01803471       0.81037256      22.29206781        3       0.00000000      -0.01047456      -0.00653549      -0.07846308
Pt       2.80721448       3.24149124      22.29206773        3       0.00000000      -0.00727984      -0.00090735      -0.26158884
Pt       5.61442763       3.24149123      22.29206786        3       0.00000000      -0.04264422       0.00261835      -0.11852258
Pt       8.42164156       3.24149129      22.29206804        3       0.00000000       0.02510092       0.00134697      -0.07141114
Pt       4.21082092       5.67260997      22.29206793        3       0.00000000      -0.02808020      -0.03548848      -0.12909815
Pt       7.01803487       5.67261037      22.29206776        3       0.00000000      -0.03725880      -0.01951826      -0.01794187
Pt       9.82524821       5.67261065      22.29206806        3       0.00000000       0.06238974      -0.04612171      -0.13132523
Pt      -0.00000053       1.62074569      24.58417386        2       0.00000000       0.03111289       0.01990104      -0.08721334
Pt       2.80721443       1.62074549      24.58417398        2       0.00000000      -0.00122017      -0.24212274       0.28596523
Pt       5.61442778       1.62074537      24.58417377        2       0.00000000      -0.00529809      -0.02020623       0.00281443
Pt       1.40360637       4.05186439      24.58417390        2       0.00000000      -0.19493367       0.12240975       0.28610530
Pt       4.21082088       4.05186403      24.58417379        2       0.00000000       0.12593780       0.06035167       0.19768682
Pt       7.01803504       4.05186408      24.58417406        2       0.00000000       0.04940005       0.12703800       0.23308681
Pt       2.80721282       6.48298343      24.58417376        2       0.00000000      -0.00475658       0.00699864       0.00133913
Pt       5.61442796       6.48298325      24.58417391        2       0.00000000       0.15341721      -0.02196646       0.23815356
Pt       8.42164222       6.48298341      24.58417381        2       0.00000000      -0.14029141      -0.07490403      -0.17453758
Pt       0.00577776       0.01891743      26.89560913        1       0.00000000       0.01713295      -0.00494066       0.00225560
Pt       2.78121030       0.13194941      27.26585339        1       0.00000000      -0.02116851      -0.01303570       0.00105740
Pt       5.72185170       0.05884458      27.01446363        1       0.00000000       0.00582715      -0.01004690       0.00156598
Pt       1.42099195       2.44133859      26.89456616        1       0.00000000      -0.01527394      -0.01523250       0.00472215
Pt       4.21164521       2.42078388      26.90492063        1       0.00000000       0.00468694       0.03134203      -0.00739336
Pt       7.03451294       2.41758154      26.89592625        1       0.00000000       0.00225047       0.02263462      -0.00600127
Pt       2.80189464       4.86762398      26.90569150        1       0.00000000       0.01352054      -0.00362462      -0.00139529
Pt       5.50222936       4.79559360      27.03477760        1       0.00000000       0.00404353       0.00153529      -0.01570428
Pt       8.51454023       4.77169239      27.23580530        1       0.00000000       0.00823568      -0.01453494      -0.01564008
C        6.94366747       5.62649379      27.94555374        0       1.00000000      -0.00072960       0.02703868      -0.00033800
H        8.48121635       6.54043397      26.33006961        0       0.00000000       0.01229553       0.01807659       0.00339835
