38
Lattice="8.421641763931781 0.0 0.0 4.2108208819658905 7.293355709136913 0.0 0.0 0.0 46.87624170604845" Properties=species:S:1:pos:R:3:tags:I:1:initial_magmoms:R:1:forces:R:3 charge=0 spin=0 energy=-197.9390847750497 free_energy=-197.9390847750497 stress="0.007025780621916056 -1.1473695593622324e-07 1.4822976623918294e-08 -1.1473695593622324e-07 0.00702514685690403 -1.49975321050988e-08 1.4822976623918294e-08 -1.49975321050988e-08 -0.001019385177642107" pbc="T T T"
Pt      -0.00000012       0.00000002      19.95723426        4       0.00000000      -0.00367518       0.00242020       0.01480609
Pt       2.80721404      -0.00000018      19.95723442        4       0.00000000       0.00891989       0.00343689      -0.02549660
Pt       5.61442782      -0.00000007      19.95723448        4       0.00000000      -0.00748375       0.00600389      -0.02558375
Pt       1.40360721       2.43111841      19.95723428        4       0.00000000       0.00607346      -0.00489570       0.01775616
Pt       4.21082083       2.43111835      19.95723436        4       0.00000000      -0.00143664      -0.00943259      -0.02556664
Pt       7.01803478       2.43111845      19.95723424        4       0.00000000      -0.00725152      -0.00274256       0.01779225
Pt       2.80721407       4.86223728      19.95723400        4       0.00000000      -0.00024109      -0.00441969       0.01463622
Pt       5.61442803       4.86223733      19.95723419        4       0.00000000       0.00392016       0.00199196       0.01476003
Pt       8.42164139       4.86223726      19.95723434        4       0.00000000       0.00117991       0.00763613       0.01769798
Pt       1.40360728       0.81037259      22.29206791        3       0.00000000       0.07216084      -0.03877717      -0.13892765
Pt       4.21082130       0.81037249      22.29206784        3       0.00000000       0.00000098       0.00001344      -0.26968691
Pt       7.01803471       0.81037256      22.29206781        3       0.00000000      -0.06632780      -0.03133109      -0.13138151
Pt       2.80721448       3.24149124      22.29206773        3       0.00000000       0.06027769      -0.04186936      -0.13186984
Pt       5.61442763       3.24149123      22.29206786        3       0.00000000      -0.06958098      -0.04305881      -0.13934156
Pt       8.42164156       3.24149129      22.29206804        3       0.00000000       0.00000557       0.00000212      -0.22161888
Pt       4.21082092       5.67260997      22.29206793        3       0.00000000      -0.00000114      -0.00000077      -0.10852358
Pt       7.01803487       5.67261037      22.29206776        3       0.00000000       0.00604773       0.07319982      -0.13173410
Pt       9.82524821       5.67261065      22.29206806        3       0.00000000      -0.00257005       0.08182454      -0.13914225
Pt      -0.00000053       1.62074569      24.58417386        2       0.00000000       0.00637792      -0.56879836       0.29055867
Pt       2.80721443       1.62074549      24.58417398        2       0.00000000      -0.10558156       0.06367403       0.27894822
Pt       5.61442778       1.62074537      24.58417377        2       0.00000000       0.10783223       0.05959493       0.27899963
Pt       1.40360637       4.05186439      24.58417390        2       0.00000000       0.48943275       0.28974363       0.29067025
Pt       4.21082088       4.05186403      24.58417379        2       0.00000000       0.00868304       0.00058113      -0.07332555
Pt       7.01803504       4.05186408      24.58417406        2       0.00000000      -0.49566281       0.27905101       0.29083610
Pt       2.80721282       6.48298343      24.58417376        2       0.00000000      -0.00403205      -0.00794749      -0.07366798
Pt       5.61442796       6.48298325      24.58417391        2       0.00000000      -0.00473554       0.00743516      -0.07354888
Pt       8.42164222       6.48298341      24.58417381        2       0.00000000      -0.00237467      -0.12334245       0.27895969
Pt      -0.00065798      -0.01116715      26.89732763        1       0.00000000      -0.00464312      -0.03171898      -0.00596098
Pt       2.79509095      -0.00578193      26.89844456        1       0.00000000       0.02762708       0.01331660      -0.01466527
Pt       5.62548112      -0.00759283      26.89842804        1       0.00000000      -0.02544668       0.01706626      -0.01463387
Pt       1.53040213       2.35990505      27.19008484        1       0.00000000       0.02530625      -0.01897074      -0.02213209
Pt       4.21184302       2.44449194      26.89838004        1       0.00000000      -0.00219668      -0.03058461      -0.01464602
Pt       6.89294246       2.35690863      27.19007011        1       0.00000000      -0.02894295      -0.01248029      -0.02208075
Pt       2.81719982       4.86725071      26.89727944        1       0.00000000       0.02985394       0.01179867      -0.00597721
Pt       5.60508048       4.86839149      26.89729330        1       0.00000000      -0.02512579       0.01997534      -0.00601659
Pt       8.41990138       5.00762101      27.19010347        1       0.00000000       0.00370730       0.03264371      -0.02255210
C        8.42163039       3.24152414      27.90602481        0       1.00000000      -0.00010015      -0.00102879       0.03416064
H        8.42164105       3.24149370      25.35766341        0       0.00000000       0.00000320      -0.00001012      -0.00250133
