38
Lattice="8.421641763931781 0.0 0.0 4.2108208819658905 7.293355709136913 0.0 0.0 0.0 46.87624170604845" Properties=species:S:1:pos:R:3:tags:I:1:initial_magmoms:R:1:forces:R:3 charge=0 spin=0 energy=-198.0461633272958 free_energy=-198.0461633272958 stress="0.007378945592790842 0.0003122187335975468 -7.125762931536883e-05 0.0003122187335975468 0.007968790829181671 1.8227301552542485e-05 -7.125762931536883e-05 1.8227301552542485e-05 -0.0007651218329556286" pbc="T T T"
Pt      -0.00000012       0.00000002      19.95723426        4       0.00000000      -0.00413389       0.00960008      -0.01289360
Pt       2.80721404      -0.00000018      19.95723442        4       0.00000000       0.00015814       0.00728891       0.02501592
Pt       5.61442782      -0.00000007      19.95723448        4       0.00000000       0.00671380      -0.00083147       0.01965550
Pt       1.40360721       2.43111841      19.95723428        4       0.00000000       0.00704886       0.00044769       0.01090637
Pt       4.21082083       2.43111835      19.95723436        4       0.00000000       0.00636995       0.01333224       0.00085973
Pt       7.01803478       2.43111845      19.95723424        4       0.00000000      -0.00085464      -0.00404252       0.00952491
Pt       2.80721407       4.86223728      19.95723400        4       0.00000000      -0.00649019      -0.00667923      -0.01132813
Pt       5.61442803       4.86223733      19.95723419        4       0.00000000      -0.03425093      -0.01268430      -0.01517369
Pt       8.42164139       4.86223726      19.95723434        4       0.00000000       0.00231634       0.00427840       0.01452252
Pt       1.40360728       0.81037259      22.29206791        3       0.00000000      -0.00385722      -0.02636896      -0.07773421
Pt       4.21082130       0.81037249      22.29206784        3       0.00000000      -0.00107331       0.02209525       0.01650468
Pt       7.01803471       0.81037256      22.29206781        3       0.00000000       0.00885809      -0.01131104      -0.05307370
Pt       2.80721448       3.24149124      22.29206773        3       0.00000000       0.02879411       0.03070937      -0.09155458
Pt       5.61442763       3.24149123      22.29206786        3       0.00000000      -0.00523571       0.07389892      -0.18507625
Pt       8.42164156       3.24149129      22.29206804        3       0.00000000      -0.01153986       0.01160781      -0.08055393
Pt       4.21082092       5.67260997      22.29206793        3       0.00000000       0.01279913       0.00386461      -0.27274996
Pt       7.01803487       5.67261037      22.29206776        3       0.00000000      -0.10009161      -0.04977780      -0.20317408
Pt       9.82524821       5.67261065      22.29206806        3       0.00000000       0.03719109      -0.01120390      -0.07923546
Pt      -0.00000053       1.62074569      24.58417386        2       0.00000000      -0.06989879      -0.03797859      -0.09923836
Pt       2.80721443       1.62074549      24.58417398        2       0.00000000       0.08865825      -0.06817424       0.15822579
Pt       5.61442778       1.62074537      24.58417377        2       0.00000000      -0.06739120      -0.16408505       0.24477655
Pt       1.40360637       4.05186439      24.58417390        2       0.00000000       0.01483983      -0.01831814      -0.04645046
Pt       4.21082088       4.05186403      24.58417379        2       0.00000000      -0.03382721      -0.13285607       0.12880121
Pt       7.01803504       4.05186408      24.58417406        2       0.00000000       0.01923247      -0.05471399       0.01830514
Pt       2.80721282       6.48298343      24.58417376        2       0.00000000      -0.13026360       0.11238042       0.17347606
Pt       5.61442796       6.48298325      24.58417391        2       0.00000000       0.11311214       0.04484285       0.17521326
Pt       8.42164222       6.48298341      24.58417381        2       0.00000000       0.10344160       0.20978841       0.20712683
Pt      -0.01809746      -0.01314940      26.87989139        1       0.00000000       0.00958314      -0.02703308       0.01074049
Pt       2.67990358      -0.05805790      27.07133948        1       0.00000000       0.00201006       0.00855824       0.02269599
Pt       5.82838232      -0.11908266      27.59091325        1       0.00000000      -0.02811658      -0.01822841      -0.02055505
Pt       1.35202608       2.43201840      26.88323473        1       0.00000000       0.00998454       0.01800233       0.00823894
Pt       4.20048273       2.51577468      27.00776598        1       0.00000000      -0.00419321       0.01092538      -0.00288201
Pt       7.00216942       2.37922429      26.90689482        1       0.00000000      -0.00343737       0.02643111       0.00201171
Pt       2.81820494       4.83139704      26.91700071        1       0.00000000      -0.00866407       0.04223975      -0.00258082
Pt       5.60885072       4.84089490      26.90160639        1       0.00000000      -0.01193989      -0.01308400      -0.01250766
Pt       8.38935045       4.80506405      26.96860139        1       0.00000000       0.01743806       0.01389631       0.02596322
C        4.18850996       0.81247595      27.85461032        0       1.00000000       0.01134007      -0.01632643      -0.00824027
H        4.92221891      -0.97365033      26.23338301        0       0.00000000       0.02536962       0.00950926       0.00243726
