38
Lattice="8.421641763931781 0.0 0.0 4.2108208819658905 7.293355709136913 0.0 0.0 0.0 46.87624170604845" Properties=species:S:1:pos:R:3:tags:I:1:initial_magmoms:R:1:forces:R:3 charge=0 spin=0 energy=-197.93952346523525 free_energy=-197.93952346523525 stress="0.007036892231553793 -1.5390455700980965e-06 -1.1943601521124947e-06 -1.5390455700980965e-06 0.007045455276966095 -3.3619892292335862e-06 -1.1943601521124947e-06 -3.3619892292335862e-06 -0.0010360475862398744" pbc="T T T"
Pt      -0.00000012       0.00000002      19.95723426        4       0.00000000       0.00845273       0.00311164      -0.02559647
Pt       2.80721404      -0.00000018      19.95723442        4       0.00000000      -0.00698502       0.00575432      -0.02566098
Pt       5.61442782      -0.00000007      19.95723448        4       0.00000000      -0.00376727       0.00257855       0.01477038
Pt       1.40360721       2.43111841      19.95723428        4       0.00000000      -0.00148151      -0.00889825      -0.02558205
Pt       4.21082083       2.43111835      19.95723436        4       0.00000000      -0.00765668      -0.00316556       0.01826575
Pt       7.01803478       2.43111845      19.95723424        4       0.00000000       0.00664268      -0.00504834       0.01822643
Pt       2.80721407       4.86223728      19.95723400        4       0.00000000       0.00411112       0.00201877       0.01474727
Pt       5.61442803       4.86223733      19.95723419        4       0.00000000       0.00101124       0.00821555       0.01815858
Pt       8.42164139       4.86223726      19.95723434        4       0.00000000      -0.00033133      -0.00455765       0.01463891
Pt       1.40360728       0.81037259      22.29206791        3       0.00000000      -0.00003635      -0.00007549      -0.27012450
Pt       4.21082130       0.81037249      22.29206784        3       0.00000000      -0.06679170      -0.03084675      -0.12893738
Pt       7.01803471       0.81037256      22.29206781        3       0.00000000       0.07189840      -0.03847675      -0.13669686
Pt       2.80721448       3.24149124      22.29206773        3       0.00000000      -0.06915049      -0.04290480      -0.13709287
Pt       5.61442763       3.24149123      22.29206786        3       0.00000000       0.00001033       0.00004702      -0.22581211
Pt       8.42164156       3.24149129      22.29206804        3       0.00000000       0.06006932      -0.04245900      -0.12943399
Pt       4.21082092       5.67260997      22.29206793        3       0.00000000       0.00668865       0.07337041      -0.12935318
Pt       7.01803487       5.67261037      22.29206776        3       0.00000000      -0.00267995       0.08139467      -0.13698214
Pt       9.82524821       5.67261065      22.29206806        3       0.00000000       0.00000740      -0.00001097      -0.10972972
Pt      -0.00000053       1.62074569      24.58417386        2       0.00000000      -0.10867415       0.06837480       0.26651308
Pt       2.80721443       1.62074549      24.58417398        2       0.00000000       0.11371746       0.05968010       0.26682344
Pt       5.61442778       1.62074537      24.58417377        2       0.00000000       0.00688442      -0.57243907       0.29366076
Pt       1.40360637       4.05186439      24.58417390        2       0.00000000       0.00797467      -0.00106778      -0.07608870
Pt       4.21082088       4.05186403      24.58417379        2       0.00000000      -0.49880958       0.28022909       0.29417577
Pt       7.01803504       4.05186408      24.58417406        2       0.00000000       0.49187502       0.29172185       0.29390946
Pt       2.80721282       6.48298343      24.58417376        2       0.00000000      -0.00287912       0.00765057      -0.07620890
Pt       5.61442796       6.48298325      24.58417391        2       0.00000000      -0.00520972      -0.12812637       0.26577547
Pt       8.42164222       6.48298341      24.58417381        2       0.00000000      -0.00501351      -0.00634771      -0.07644971
Pt      -0.00942414      -0.00035671      26.89458299        1       0.00000000       0.01541571      -0.01270382       0.00146849
Pt       2.81203634      -0.00817672      26.89444882        1       0.00000000       0.00509713       0.02274531       0.00174987
Pt       5.61378730      -0.01986500      26.90068002        1       0.00000000      -0.00852120       0.01498110      -0.01291116
Pt       1.40802618       2.43925588      26.89428151        1       0.00000000      -0.01923871      -0.00678755       0.00196927
Pt       4.08931373       2.35751300      27.18466954        1       0.00000000      -0.03564472      -0.01958506      -0.01686976
Pt       7.14265206       2.36247818      27.18463335        1       0.00000000       0.02904008      -0.01613512      -0.01448592
Pt       2.79033885       4.87268183      26.90062585        1       0.00000000       0.01725809      -0.00059625      -0.01269549
Pt       5.61144256       5.00494675      27.18454900        1       0.00000000       0.00050598       0.01897422      -0.00988356
Pt       8.43907835       4.87154354      26.90050268        1       0.00000000      -0.00889941      -0.01492783      -0.01233747
C        5.61421680       3.24094560      27.91130254        0       1.00000000       0.00500987       0.01398105       0.01809957
H        5.61439511       3.24139361      25.36082972        0       0.00000000       0.00009990       0.00033120      -0.01401978
