38
Lattice="8.421641763931781 0.0 0.0 4.2108208819658905 7.293355709136913 0.0 0.0 0.0 46.87624170604845" Properties=species:S:1:pos:R:3:tags:I:1:initial_magmoms:R:1:forces:R:3 charge=0 spin=0 energy=-197.93952155788662 free_energy=-197.93952155788662 stress="0.007036866154521704 -1.7570657746546203e-06 -1.3571615227192524e-06 -1.7570657746546203e-06 0.007045619655400515 -3.43351484843879e-06 -1.3571615227192524e-06 -3.43351484843879e-06 -0.0010359748266637325" pbc="T T T"
Pt      -0.00000012       0.00000002      19.95723426        4       0.00000000      -0.00147856      -0.00890156      -0.02558193
Pt       2.80721404      -0.00000018      19.95723442        4       0.00000000      -0.00766070      -0.00316399       0.01825548
Pt       5.61442782      -0.00000007      19.95723448        4       0.00000000       0.00664345      -0.00504645       0.01821708
Pt       1.40360721       2.43111841      19.95723428        4       0.00000000       0.00410927       0.00202359       0.01474722
Pt       4.21082083       2.43111835      19.95723436        4       0.00000000       0.00101509       0.00822064       0.01815841
Pt       7.01803478       2.43111845      19.95723424        4       0.00000000      -0.00033411      -0.00455172       0.01463976
Pt       2.80721407       4.86223728      19.95723400        4       0.00000000       0.00845194       0.00310918      -0.02559738
Pt       5.61442803       4.86223733      19.95723419        4       0.00000000      -0.00698636       0.00574877      -0.02564931
Pt       8.42164139       4.86223726      19.95723434        4       0.00000000      -0.00376473       0.00257049       0.01477895
Pt       1.40360728       0.81037259      22.29206791        3       0.00000000      -0.06914683      -0.04290342      -0.13708925
Pt       4.21082130       0.81037249      22.29206784        3       0.00000000       0.00000739       0.00005450      -0.22580718
Pt       7.01803471       0.81037256      22.29206781        3       0.00000000       0.06006790      -0.04245654      -0.12943396
Pt       2.80721448       3.24149124      22.29206773        3       0.00000000       0.00668343       0.07337242      -0.12935989
Pt       5.61442763       3.24149123      22.29206786        3       0.00000000      -0.00267421       0.08140129      -0.13699070
Pt       8.42164156       3.24149129      22.29206804        3       0.00000000       0.00000462       0.00000053      -0.10972907
Pt       4.21082092       5.67260997      22.29206793        3       0.00000000      -0.00003992      -0.00007814      -0.27012458
Pt       7.01803487       5.67261037      22.29206776        3       0.00000000      -0.06679279      -0.03086089      -0.12893705
Pt       9.82524821       5.67261065      22.29206806        3       0.00000000       0.07190637      -0.03849258      -0.13670050
Pt      -0.00000053       1.62074569      24.58417386        2       0.00000000       0.00797622      -0.00106845      -0.07608834
Pt       2.80721443       1.62074549      24.58417398        2       0.00000000      -0.49881193       0.28022072       0.29419780
Pt       5.61442778       1.62074537      24.58417377        2       0.00000000       0.49186647       0.29171869       0.29394224
Pt       1.40360637       4.05186439      24.58417390        2       0.00000000      -0.00288274       0.00765376      -0.07622617
Pt       4.21082088       4.05186403      24.58417379        2       0.00000000      -0.00520304      -0.12811694       0.26577920
Pt       7.01803504       4.05186408      24.58417406        2       0.00000000      -0.00501114      -0.00633897      -0.07646165
Pt       2.80721282       6.48298343      24.58417376        2       0.00000000      -0.10866325       0.06836475       0.26651156
Pt       5.61442796       6.48298325      24.58417391        2       0.00000000       0.11372697       0.05968473       0.26687115
Pt       8.42164222       6.48298341      24.58417381        2       0.00000000       0.00687043      -0.57244074       0.29367810
Pt       0.00441159       0.00814427      26.89428256        1       0.00000000      -0.01911440      -0.00681877       0.00195368
Pt       2.68572451      -0.07359962      27.18468916        1       0.00000000      -0.03620952      -0.01988199      -0.01710924
Pt       5.73905939      -0.06864779      27.18464738        1       0.00000000       0.02870235      -0.01591808      -0.01438431
Pt       1.38672835       2.44156477      26.90062721        1       0.00000000       0.01728026      -0.00062381      -0.01269692
Pt       4.20782904       2.57384087      27.18456510        1       0.00000000       0.00057734       0.01869961      -0.00982686
Pt       7.03547511       2.44042688      26.90050367        1       0.00000000      -0.00894893      -0.01494871      -0.01232905
Pt       2.79778297       4.86187422      26.89458268        1       0.00000000       0.01543962      -0.01267146       0.00146827
Pt       5.61925618       4.85405846      26.89444905        1       0.00000000       0.00508638       0.02279229       0.00173727
Pt       8.42100031       4.84236816      26.90067737        1       0.00000000      -0.00852455       0.01501247      -0.01289901
C        4.21058344       0.80981502      27.91130593        0       1.00000000       0.00572345       0.01429792       0.01809982
H        4.21078699       0.81027477      25.36083189        0       0.00000000       0.00010864       0.00033659      -0.01401374
