38
Lattice="8.421641763931781 0.0 0.0 4.2108208819658905 7.293355709136913 0.0 0.0 0.0 46.87624170604845" Properties=species:S:1:pos:R:3:tags:I:1:initial_magmoms:R:1:forces:R:3 charge=0 spin=0 energy=-197.98579192837002 free_energy=-197.98579192837002 stress="0.007734229788184166 3.326960722915828e-05 -1.7577634935150854e-05 3.326960722915828e-05 0.007408644072711468 8.308672113344073e-05 -1.7577634935150854e-05 8.308672113344073e-05 -0.0006747989100404084" pbc="T T T"
Pt      -0.00000012       0.00000002      19.95723426        4       0.00000000       0.01137773      -0.01160969      -0.01432309
Pt       2.80721404      -0.00000018      19.95723442        4       0.00000000      -0.01717820      -0.00640711      -0.01327486
Pt       5.61442782      -0.00000007      19.95723448        4       0.00000000      -0.00020296       0.00632779       0.01842667
Pt       1.40360721       2.43111841      19.95723428        4       0.00000000      -0.00049884       0.01104411      -0.01039058
Pt       4.21082083       2.43111835      19.95723436        4       0.00000000      -0.00573404       0.00025465       0.02792484
Pt       7.01803478       2.43111845      19.95723424        4       0.00000000       0.00329580      -0.00157022       0.02673670
Pt       2.80721407       4.86223728      19.95723400        4       0.00000000       0.00498226      -0.00007302       0.00850295
Pt       5.61442803       4.86223733      19.95723419        4       0.00000000       0.00578751       0.02101813       0.00340748
Pt       8.42164139       4.86223726      19.95723434        4       0.00000000      -0.00162563      -0.00299187       0.00833327
Pt       1.40360728       0.81037259      22.29206791        3       0.00000000       0.00274234       0.00693836      -0.26225561
Pt       4.21082130       0.81037249      22.29206784        3       0.00000000      -0.07110765      -0.03123702      -0.13122022
Pt       7.01803471       0.81037256      22.29206781        3       0.00000000       0.06906284      -0.03167626      -0.12988527
Pt       2.80721448       3.24149124      22.29206773        3       0.00000000      -0.01140315      -0.02242437      -0.07168598
Pt       5.61442763       3.24149123      22.29206786        3       0.00000000       0.00173701       0.04150908      -0.01725830
Pt       8.42164156       3.24149129      22.29206804        3       0.00000000       0.01023515      -0.02336332      -0.06742808
Pt       4.21082092       5.67260997      22.29206793        3       0.00000000       0.02363382       0.03616799      -0.11891574
Pt       7.01803487       5.67261037      22.29206776        3       0.00000000      -0.01683794       0.04230026      -0.12892643
Pt       9.82524821       5.67261065      22.29206806        3       0.00000000      -0.00046468       0.01235687      -0.07832779
Pt      -0.00000053       1.62074569      24.58417386        2       0.00000000      -0.20965302       0.12116083       0.28835389
Pt       2.80721443       1.62074549      24.58417398        2       0.00000000       0.20446564       0.10724542       0.29033914
Pt       5.61442778       1.62074537      24.58417377        2       0.00000000       0.00515710       0.15957916      -0.16802451
Pt       1.40360637       4.05186439      24.58417390        2       0.00000000       0.00170436      -0.03674583      -0.08912731
Pt       4.21082088       4.05186403      24.58417379        2       0.00000000       0.08468179      -0.10805795       0.23357467
Pt       7.01803504       4.05186408      24.58417406        2       0.00000000      -0.09560259      -0.12356977       0.23855899
Pt       2.80721282       6.48298343      24.58417376        2       0.00000000      -0.01456530       0.01560178       0.00312441
Pt       5.61442796       6.48298325      24.58417391        2       0.00000000      -0.01076527      -0.14040634       0.19636866
Pt       8.42164222       6.48298341      24.58417381        2       0.00000000       0.00824359       0.00187523       0.00142242
Pt      -0.00781707       0.00287705      26.90541875        1       0.00000000       0.02000110      -0.01331257      -0.00850829
Pt       2.81316992       0.00000483      26.90618592        1       0.00000000      -0.00479371      -0.00098479      -0.00274480
Pt       5.61188335      -0.12044650      27.01389168        1       0.00000000      -0.01199971      -0.00379785       0.00103893
Pt       1.40367658       2.41255088      26.89411811        1       0.00000000      -0.00423564       0.01419004       0.00371345
Pt       4.08493986       2.39625324      27.23941224        1       0.00000000      -0.03128656      -0.01768702      -0.02520604
Pt       7.14666683       2.38710142      27.26823489        1       0.00000000      -0.01087943       0.02518820       0.00099459
Pt       2.78673749       4.85502920      26.89570962        1       0.00000000       0.01845672      -0.01155500      -0.00543662
Pt       5.61261436       4.98926083      27.03366374        1       0.00000000       0.00119604       0.00932409      -0.01636601
Pt       8.43536585       4.84854413      26.89523551        1       0.00000000      -0.01309138      -0.01276209       0.00329792
C        5.61078577       3.32706499      27.94698395        0       1.00000000       0.04528823      -0.01163732       0.00531788
H        5.63300250       1.54295706      26.33083914        0       0.00000000       0.00987669      -0.02021250      -0.00013136
