38
Lattice="8.421641763931781 0.0 0.0 4.2108208819658905 7.293355709136913 0.0 0.0 0.0 46.87624170604845" Properties=species:S:1:pos:R:3:tags:I:1:initial_magmoms:R:1:forces:R:3 charge=0 spin=0 energy=-197.50847984035732 free_energy=-197.50847984035732 stress="0.00909860897809267 -1.4889802457673795e-07 -1.781840275327795e-08 -1.4889802457673795e-07 0.00909856241196394 8.349947933083968e-08 -1.781840275327795e-08 8.349947933083968e-08 -0.0007910483982414007" pbc="T T T"
Pt      -0.00000012       0.00000002      19.95723426        4       0.00000000       0.00856348      -0.00382364       0.01936585
Pt       2.80721404      -0.00000018      19.95723442        4       0.00000000      -0.00757006      -0.00546989       0.01930251
Pt       5.61442782      -0.00000007      19.95723448        4       0.00000000      -0.00026066      -0.00617573       0.02225785
Pt       1.40360721       2.43111841      19.95723428        4       0.00000000       0.00276728       0.02442109      -0.03705212
Pt       4.21082083       2.43111835      19.95723436        4       0.00000000      -0.00522581       0.00336269       0.02250670
Pt       7.01803478       2.43111845      19.95723424        4       0.00000000       0.00548805       0.00282007       0.02235157
Pt       2.80721407       4.86223728      19.95723400        4       0.00000000      -0.02252315      -0.00980580      -0.03687861
Pt       5.61442803       4.86223733      19.95723419        4       0.00000000      -0.00099719       0.00929341       0.01955949
Pt       8.42164139       4.86223726      19.95723434        4       0.00000000       0.01975873      -0.01461977      -0.03709631
Pt       1.40360728       0.81037259      22.29206791        3       0.00000000       0.00024613       0.10217706      -0.15140206
Pt       4.21082130       0.81037249      22.29206784        3       0.00000000      -0.01906709      -0.01720176      -0.01857299
Pt       7.01803471       0.81037256      22.29206781        3       0.00000000       0.02445173      -0.00784622      -0.01864182
Pt       2.80721448       3.24149124      22.29206773        3       0.00000000      -0.04239007       0.02488756      -0.19430682
Pt       5.61442763       3.24149123      22.29206786        3       0.00000000      -0.00537976       0.02505397      -0.01807345
Pt       8.42164156       3.24149129      22.29206804        3       0.00000000       0.04278745       0.02411546      -0.19443448
Pt       4.21082092       5.67260997      22.29206793        3       0.00000000      -0.08869597      -0.05080705      -0.15106000
Pt       7.01803487       5.67261037      22.29206776        3       0.00000000       0.08843498      -0.05135943      -0.15111610
Pt       9.82524821       5.67261065      22.29206806        3       0.00000000      -0.00039201      -0.04900714      -0.19457927
Pt      -0.00000053       1.62074569      24.58417386        2       0.00000000       0.01913754      -0.25229400       0.32898822
Pt       2.80721443       1.62074549      24.58417398        2       0.00000000      -0.02443077      -0.25273934       0.33161327
Pt       5.61442778       1.62074537      24.58417377        2       0.00000000       0.00000113       0.00004576       0.02688804
Pt       1.40360637       4.05186439      24.58417390        2       0.00000000       0.00000137      -0.00004001      -0.23456943
Pt       4.21082088       4.05186403      24.58417379        2       0.00000000       0.20878556       0.14276975       0.32873413
Pt       7.01803504       4.05186408      24.58417406        2       0.00000000      -0.20640747       0.14750090       0.33101314
Pt       2.80721282       6.48298343      24.58417376        2       0.00000000       0.23082636       0.10524283       0.33139339
Pt       5.61442796       6.48298325      24.58417391        2       0.00000000       0.00003724       0.00003518      -0.64003366
Pt       8.42164222       6.48298341      24.58417381        2       0.00000000      -0.22792262       0.10951492       0.32904312
Pt      -0.08825530       0.05573525      27.29537843        1       0.00000000      -0.00361275      -0.00087896      -0.00400101
Pt       2.89964063       0.04860047      27.29538680        1       0.00000000       0.00103963       0.00355260      -0.00404592
Pt       5.61522820      -0.00594016      26.90734362        1       0.00000000       0.00213169       0.00737186      -0.01675805
Pt       1.40345208       2.45821286      26.90279971        1       0.00000000       0.00451201      -0.01661957      -0.00144285
Pt       4.20528167       2.43344173      26.90737133        1       0.00000000       0.00534874      -0.00551324      -0.01677941
Pt       7.02280325       2.43474928      26.90738777        1       0.00000000      -0.00747047      -0.00179811      -0.01680532
Pt       2.78381271       4.84859140      26.90274829        1       0.00000000       0.01213418       0.01219686      -0.00137890
Pt       5.61031044       4.75794158      27.29537595        1       0.00000000       0.00259031      -0.00283776      -0.00406080
Pt       8.44516481       4.84879583      26.90276330        1       0.00000000      -0.01667329       0.00442073      -0.00142487
C        5.61445469       6.48299251      28.18018733        0       1.00000000       0.00003945       0.00011853      -0.00907894
H        5.61436975       6.48291727      26.17534471        0       0.00000000      -0.00006398      -0.00006369       0.02057543
