38
Lattice="8.421641763931781 0.0 0.0 4.2108208819658905 7.293355709136913 0.0 0.0 0.0 46.87624170604845" Properties=species:S:1:pos:R:3:tags:I:1:initial_magmoms:R:1:forces:R:3 charge=0 spin=0 energy=-192.90323425014736 free_energy=-192.90323425014736 stress="0.01019021961838007 -9.203632345133883e-08 -7.13097421112252e-08 -9.203632345133883e-08 0.010190192610025406 -3.6459855579096256e-08 -7.13097421112252e-08 -3.6459855579096256e-08 -0.00012901834270451218" pbc="T T T"
Pt      -0.00000012       0.00000002      19.95723426        4       0.00000000       0.00000185      -0.00000113       0.01530138
Pt       2.80721404      -0.00000018      19.95723442        4       0.00000000       0.00152534       0.00405623       0.01718297
Pt       5.61442782      -0.00000007      19.95723448        4       0.00000000      -0.00270478       0.00219525       0.01643267
Pt       1.40360721       2.43111841      19.95723428        4       0.00000000       0.00325474       0.00125105       0.01645208
Pt       4.21082083       2.43111835      19.95723436        4       0.00000000       0.00000165       0.00000110      -0.01063106
Pt       7.01803478       2.43111845      19.95723424        4       0.00000000      -0.00427038      -0.00070067       0.01718345
Pt       2.80721407       4.86223728      19.95723400        4       0.00000000       0.00274369      -0.00335459       0.01719624
Pt       5.61442803       4.86223733      19.95723419        4       0.00000000      -0.00055092      -0.00344542       0.01647453
Pt       8.42164139       4.86223726      19.95723434        4       0.00000000       0.00000149      -0.00000495       0.01358713
Pt       1.40360728       0.81037259      22.29206791        3       0.00000000      -0.00372709      -0.00049932      -0.05267449
Pt       4.21082130       0.81037249      22.29206784        3       0.00000000      -0.00099308       0.00527565      -0.04063714
Pt       7.01803471       0.81037256      22.29206781        3       0.00000000       0.00227306      -0.00299262      -0.05267409
Pt       2.80721448       3.24149124      22.29206773        3       0.00000000       0.00506501      -0.00180940      -0.04064340
Pt       5.61442763       3.24149123      22.29206786        3       0.00000000      -0.00407763      -0.00345901      -0.04063039
Pt       8.42164156       3.24149129      22.29206804        3       0.00000000      -0.00039427       0.00102021      -0.05218996
Pt       4.21082092       5.67260997      22.29206793        3       0.00000000       0.00144905       0.00349755      -0.05266861
Pt       7.01803487       5.67261037      22.29206776        3       0.00000000       0.00109524      -0.00015160      -0.05217815
Pt       9.82524821       5.67261065      22.29206806        3       0.00000000      -0.00069830      -0.00088961      -0.05219375
Pt      -0.00000053       1.62074569      24.58417386        2       0.00000000       0.00625162      -0.00438757       0.04779806
Pt       2.80721443       1.62074549      24.58417398        2       0.00000000       0.00455044       0.00633906       0.03069314
Pt       5.61442778       1.62074537      24.58417377        2       0.00000000      -0.00776389       0.00073666       0.03067428
Pt       1.40360637       4.05186439      24.58417390        2       0.00000000       0.00937327      -0.00605217       0.02808609
Pt       4.21082088       4.05186403      24.58417379        2       0.00000000       0.00319026      -0.00706970       0.03060860
Pt       7.01803504       4.05186408      24.58417406        2       0.00000000      -0.00989724      -0.00507860       0.02806454
Pt       2.80721282       6.48298343      24.58417376        2       0.00000000       0.00063451       0.00758548       0.04779068
Pt       5.61442796       6.48298325      24.58417391        2       0.00000000      -0.00687812      -0.00319214       0.04776393
Pt       8.42164222       6.48298341      24.58417381        2       0.00000000       0.00056484       0.01114768       0.02812172
Pt       0.00000461       0.00000479      26.92090388        1       0.00000000       0.00000014      -0.00000162      -0.00563883
Pt       2.80077622       0.00764772      26.91955177        1       0.00000000      -0.00833526       0.01182529      -0.00227620
Pt       5.61896519       0.00923610      26.91970702        1       0.00000000       0.00873253       0.01162048      -0.00208702
Pt       1.40932826       2.42258906      26.91968861        1       0.00000000       0.00569988      -0.01336859      -0.00211371
Pt       4.21081806       2.43112276      26.92174320        1       0.00000000       0.00001008       0.00000353      -0.01017565
Pt       7.01463164       2.42171669      26.91955905        1       0.00000000      -0.00607578      -0.01314580      -0.00230814
Pt       2.81705945       4.86400522      26.91955884        1       0.00000000       0.01442530       0.00132118      -0.00227351
Pt       5.60417547       4.86154572      26.91968779        1       0.00000000      -0.01443633       0.00175735      -0.00210059
Pt       8.42164879       4.86224591      26.90105406        1       0.00000000       0.00002159       0.00001061       0.04236458
C        8.42174214       4.86227246      29.94204316        0       1.00000000       0.00030549       0.00015619      -0.03606920
H        8.42150473       4.86215120      28.76467361        0       0.00000000      -0.00036783      -0.00019594       0.02038760
