38
Lattice="8.421641763931781 0.0 0.0 4.2108208819658905 7.293355709136913 0.0 0.0 0.0 46.87624170604845" Properties=species:S:1:pos:R:3:tags:I:1:initial_magmoms:R:1:forces:R:3 charge=0 spin=0 energy=-197.93952155788662 free_energy=-197.93952155788662 stress="0.007036843802779913 -1.6579089106016909e-06 -1.2918818583784741e-06 -1.6579089106016909e-06 0.007045617327094078 -3.4344473078817828e-06 -1.2918818583784741e-06 -3.4344473078817828e-06 -0.0010359794832766056" pbc="T T T"
Pt      -0.00000012       0.00000002      19.95723426        4       0.00000000      -0.00376426       0.00257395       0.01477905
Pt       2.80721404      -0.00000018      19.95723442        4       0.00000000       0.00844881       0.00311532      -0.02560691
Pt       5.61442782      -0.00000007      19.95723448        4       0.00000000      -0.00698394       0.00575538      -0.02565958
Pt       1.40360721       2.43111841      19.95723428        4       0.00000000       0.00664325      -0.00504846       0.01822728
Pt       4.21082083       2.43111835      19.95723436        4       0.00000000      -0.00147874      -0.00889843      -0.02558131
Pt       7.01803478       2.43111845      19.95723424        4       0.00000000      -0.00765961      -0.00316597       0.01826503
Pt       2.80721407       4.86223728      19.95723400        4       0.00000000      -0.00033117      -0.00455678       0.01464038
Pt       5.61442803       4.86223733      19.95723419        4       0.00000000       0.00410820       0.00201878       0.01474625
Pt       8.42164139       4.86223726      19.95723434        4       0.00000000       0.00101439       0.00821404       0.01815754
Pt       1.40360728       0.81037259      22.29206791        3       0.00000000       0.07189424      -0.03847847      -0.13669826
Pt       4.21082130       0.81037249      22.29206784        3       0.00000000      -0.00003772      -0.00007363      -0.27012530
Pt       7.01803471       0.81037256      22.29206781        3       0.00000000      -0.06678897      -0.03085126      -0.12894051
Pt       2.80721448       3.24149124      22.29206773        3       0.00000000       0.06005708      -0.04245722      -0.12943076
Pt       5.61442763       3.24149123      22.29206786        3       0.00000000      -0.06914073      -0.04290589      -0.13709351
Pt       8.42164156       3.24149129      22.29206804        3       0.00000000       0.00001210       0.00004807      -0.22581016
Pt       4.21082092       5.67260997      22.29206793        3       0.00000000      -0.00000133       0.00000179      -0.10972805
Pt       7.01803487       5.67261037      22.29206776        3       0.00000000       0.00668771       0.07336283      -0.12935556
Pt       9.82524821       5.67261065      22.29206806        3       0.00000000      -0.00267054       0.08138893      -0.13698748
Pt      -0.00000053       1.62074569      24.58417386        2       0.00000000       0.00688498      -0.57243228       0.29366484
Pt       2.80721443       1.62074549      24.58417398        2       0.00000000      -0.10868055       0.06838053       0.26652125
Pt       5.61442778       1.62074537      24.58417377        2       0.00000000       0.11372694       0.05968937       0.26686230
Pt       1.40360637       4.05186439      24.58417390        2       0.00000000       0.49187860       0.29170841       0.29392275
Pt       4.21082088       4.05186403      24.58417379        2       0.00000000       0.00796919      -0.00106081      -0.07607403
Pt       7.01803504       4.05186408      24.58417406        2       0.00000000      -0.49881575       0.28022316       0.29418668
Pt       2.80721282       6.48298343      24.58417376        2       0.00000000      -0.00499469      -0.00634707      -0.07644771
Pt       5.61442796       6.48298325      24.58417391        2       0.00000000      -0.00289474       0.00765591      -0.07620987
Pt       8.42164222       6.48298341      24.58417381        2       0.00000000      -0.00521353      -0.12812045       0.26578072
Pt      -0.00064151      -0.01986061      26.90067784        1       0.00000000      -0.00852560       0.01497144      -0.01291083
Pt       2.79778530      -0.00035755      26.89458409        1       0.00000000       0.01542758      -0.01268138       0.00146266
Pt       5.61925240      -0.00817683      26.89445375        1       0.00000000       0.00510000       0.02279020       0.00173456
Pt       1.52822994       2.36247663      27.18464110        1       0.00000000       0.02891431      -0.01603468      -0.01444911
Pt       4.21523631       2.43926332      26.89428669        1       0.00000000      -0.01917643      -0.00680758       0.00194777
Pt       6.89653781       2.35751885      27.18468117        1       0.00000000      -0.03600584      -0.01977146      -0.01701798
Pt       2.82464801       4.87154480      26.90050418        1       0.00000000      -0.00890325      -0.01492994      -0.01234126
Pt       5.59755328       4.87268331      26.90062759        1       0.00000000       0.01724965      -0.00060213      -0.01270170
Pt       8.41865119       5.00496075      27.18455364        1       0.00000000       0.00054408       0.01867639      -0.00979900
C        8.42141572       3.24093536      27.91130376        0       1.00000000       0.00539893       0.01431981       0.01809015
H        8.42160662       3.24139519      25.36083140        0       0.00000000       0.00010745       0.00032965      -0.01401985
