38
Lattice="8.421641763931781 0.0 0.0 4.2108208819658905 7.293355709136913 0.0 0.0 0.0 46.87624170604845" Properties=species:S:1:pos:R:3:tags:I:1:initial_magmoms:R:1:forces:R:3 charge=0 spin=0 energy=-197.50844741543057 free_energy=-197.50844741543057 stress="0.00910701509565115 -3.3798133358686755e-07 8.85940707462396e-08 -3.3798133358686755e-07 0.00910804234445095 5.450651201499568e-07 8.85940707462396e-08 5.450651201499568e-07 -0.0007797330035828054" pbc="T T T"
Pt      -0.00000012       0.00000002      19.95723426        4       0.00000000      -0.00520281       0.00341207       0.02253321
Pt       2.80721404      -0.00000018      19.95723442        4       0.00000000       0.00553347       0.00276383       0.02236898
Pt       5.61442782      -0.00000007      19.95723448        4       0.00000000       0.00272586       0.02447789      -0.03709704
Pt       1.40360721       2.43111841      19.95723428        4       0.00000000      -0.00104746       0.00932577       0.01956419
Pt       4.21082083       2.43111835      19.95723436        4       0.00000000       0.01979624      -0.01459231      -0.03709409
Pt       7.01803478       2.43111845      19.95723424        4       0.00000000      -0.02247527      -0.00981937      -0.03681305
Pt       2.80721407       4.86223728      19.95723400        4       0.00000000      -0.00756856      -0.00554023       0.01934098
Pt       5.61442803       4.86223733      19.95723419        4       0.00000000      -0.00033821      -0.00618577       0.02228881
Pt       8.42164139       4.86223726      19.95723434        4       0.00000000       0.00861471      -0.00379309       0.01937143
Pt       1.40360728       0.81037259      22.29206791        3       0.00000000      -0.00527478       0.02496095      -0.01836286
Pt       4.21082130       0.81037249      22.29206784        3       0.00000000       0.04259563       0.02395309      -0.19426261
Pt       7.01803471       0.81037256      22.29206781        3       0.00000000      -0.04216696       0.02480972      -0.19412425
Pt       2.80721448       3.24149124      22.29206773        3       0.00000000       0.08832172      -0.05135218      -0.15098326
Pt       5.61442763       3.24149123      22.29206786        3       0.00000000      -0.00044316      -0.04877138      -0.19441977
Pt       8.42164156       3.24149129      22.29206804        3       0.00000000      -0.08860391      -0.05071530      -0.15094031
Pt       4.21082092       5.67260997      22.29206793        3       0.00000000      -0.01906728      -0.01708165      -0.01881519
Pt       7.01803487       5.67261037      22.29206776        3       0.00000000       0.02430923      -0.00792948      -0.01889992
Pt       9.82524821       5.67261065      22.29206806        3       0.00000000       0.00030181       0.10213488      -0.15129559
Pt      -0.00000053       1.62074569      24.58417386        2       0.00000000       0.20730469       0.14188211       0.33085868
Pt       2.80721443       1.62074549      24.58417398        2       0.00000000      -0.20564735       0.14756286       0.33018264
Pt       5.61442778       1.62074537      24.58417377        2       0.00000000      -0.00002672      -0.00007127      -0.22959091
Pt       1.40360637       4.05186439      24.58417390        2       0.00000000       0.00050927       0.00056021      -0.64363962
Pt       4.21082088       4.05186403      24.58417379        2       0.00000000      -0.22665064       0.10879678       0.33175236
Pt       7.01803504       4.05186408      24.58417406        2       0.00000000       0.23038976       0.10480016       0.33043352
Pt       2.80721282       6.48298343      24.58417376        2       0.00000000      -0.02471991      -0.25231132       0.33128247
Pt       5.61442796       6.48298325      24.58417391        2       0.00000000      -0.00005332       0.00004647       0.02966119
Pt       8.42164222       6.48298341      24.58417381        2       0.00000000       0.01936812      -0.25071713       0.33148667
Pt      -0.00664650       0.00189409      26.90767315        1       0.00000000       0.01158724      -0.00117419      -0.01783608
Pt       2.81209204       0.00504725      26.90763699        1       0.00000000      -0.00615919      -0.01006977      -0.01769785
Pt       5.61565340       0.02687989      26.90393472        1       0.00000000      -0.00070452      -0.01356754      -0.00521022
Pt       1.39942654       2.32704461      27.29439425        1       0.00000000      -0.00009761       0.00436953       0.00015780
Pt       4.23355130       2.41673431      26.90385238        1       0.00000000      -0.01157261       0.00753931      -0.00502673
Pt       6.99420554       2.41880663      26.90377321        1       0.00000000       0.01222456       0.00601728      -0.00469985
Pt       2.89963745       4.91076705      27.29449321        1       0.00000000      -0.00092796      -0.00113991      -0.00151709
Pt       5.61652149       4.85557698      26.90764550        1       0.00000000      -0.00641983       0.01075752      -0.01780218
Pt       8.33363303       4.91809646      27.29444045        1       0.00000000       0.00276398      -0.00083809      -0.00060382
C        9.82543138       4.05214758      28.18088152        0       1.00000000      -0.00027464      -0.00121797      -0.01796687
H        9.82436315       4.05068511      26.17529632        0       0.00000000      -0.00090363      -0.00128240       0.02341616
