38
Lattice="8.421641763931781 0.0 0.0 4.2108208819658905 7.293355709136913 0.0 0.0 0.0 46.87624170604845" Properties=species:S:1:pos:R:3:tags:I:1:initial_magmoms:R:1:forces:R:3 charge=0 spin=0 energy=-197.50797630031826 free_energy=-197.50797630031826 stress="0.009007828310132027 -1.4406961668100848e-07 5.002731029435381e-08 -1.4406961668100848e-07 0.009008639492094517 3.587798573789769e-07 5.002731029435381e-08 3.587798573789769e-07 -0.0009220499778166413" pbc="T T T"
Pt      -0.00000012       0.00000002      19.95723426        4       0.00000000       0.01969543      -0.01467736      -0.03730039
Pt       2.80721404      -0.00000018      19.95723442        4       0.00000000      -0.02255222      -0.00971643      -0.03709619
Pt       5.61442782      -0.00000007      19.95723448        4       0.00000000      -0.00103339       0.00888264       0.01951526
Pt       1.40360721       2.43111841      19.95723428        4       0.00000000      -0.00035343      -0.00608756       0.02201088
Pt       4.21082083       2.43111835      19.95723436        4       0.00000000       0.00821321      -0.00358183       0.01932081
Pt       7.01803478       2.43111845      19.95723424        4       0.00000000      -0.00718208      -0.00529228       0.01925805
Pt       2.80721407       4.86223728      19.95723400        4       0.00000000       0.00544613       0.00268968       0.02209082
Pt       5.61442803       4.86223733      19.95723419        4       0.00000000       0.00285356       0.02435408      -0.03719088
Pt       8.42164139       4.86223726      19.95723434        4       0.00000000      -0.00509219       0.00338906       0.02224424
Pt       1.40360728       0.81037259      22.29206791        3       0.00000000      -0.00052017      -0.04934058      -0.19473240
Pt       4.21082130       0.81037249      22.29206784        3       0.00000000      -0.08925654      -0.05115812      -0.15166800
Pt       7.01803471       0.81037256      22.29206781        3       0.00000000       0.08904202      -0.05167035      -0.15173793
Pt       2.80721448       3.24149124      22.29206773        3       0.00000000       0.02523095      -0.00821415      -0.01658862
Pt       5.61442763       3.24149123      22.29206786        3       0.00000000       0.00021457       0.10279191      -0.15200365
Pt       8.42164156       3.24149129      22.29206804        3       0.00000000      -0.01978051      -0.01769884      -0.01651116
Pt       4.21082092       5.67260997      22.29206793        3       0.00000000       0.04313165       0.02420476      -0.19457103
Pt       7.01803487       5.67261037      22.29206776        3       0.00000000      -0.04261762       0.02516019      -0.19443403
Pt       9.82524821       5.67261065      22.29206806        3       0.00000000      -0.00544655       0.02592621      -0.01599980
Pt      -0.00000053       1.62074569      24.58417386        2       0.00000000      -0.23112002       0.10834826       0.31644502
Pt       2.80721443       1.62074549      24.58417398        2       0.00000000       0.23379044       0.10499515       0.31792286
Pt       5.61442778       1.62074537      24.58417377        2       0.00000000      -0.00001837      -0.00036894      -0.66495878
Pt       1.40360637       4.05186439      24.58417390        2       0.00000000       0.00002000      -0.00003789      -0.01977938
Pt       4.21082088       4.05186403      24.58417379        2       0.00000000       0.02174908      -0.25445160       0.31632081
Pt       7.01803504       4.05186408      24.58417406        2       0.00000000      -0.02610712      -0.25514057       0.31797290
Pt       2.80721282       6.48298343      24.58417376        2       0.00000000      -0.20773143       0.15022998       0.31753889
Pt       5.61442796       6.48298325      24.58417391        2       0.00000000       0.00000759      -0.00006539      -0.24117707
Pt       8.42164222       6.48298341      24.58417381        2       0.00000000       0.20944777       0.14617576       0.31622165
Pt       0.02031918      -0.01246916      26.89802050        1       0.00000000       0.00442167      -0.00306533       0.00834900
Pt       2.78628163      -0.01139003      26.89800959        1       0.00000000      -0.00483238      -0.00244303       0.00836875
Pt       5.61248924      -0.10500787      27.29305082        1       0.00000000      -0.00612898      -0.01484920      -0.00134987
Pt       1.40469028       2.43486734      26.90038709        1       0.00000000      -0.00544417      -0.04659956       0.00938725
Pt       4.12105591       2.48506030      27.29306049        1       0.00000000      -0.01101481       0.01354744      -0.00164944
Pt       7.10975355       2.48170271      27.29308375        1       0.00000000       0.01729454       0.00298762      -0.00172722
Pt       2.80349733       4.86121736      26.90035703        1       0.00000000       0.04288067       0.01837301       0.00958407
Pt       5.61503934       4.88609756      26.89811002        1       0.00000000       0.00028429       0.00504565       0.00822625
Pt       8.42429836       4.85934752      26.90035399        1       0.00000000      -0.03736122       0.02805388       0.00957179
C        5.61444007       1.62061211      28.17382946        0       1.00000000      -0.00012663      -0.00149203       0.01459750
H        5.61442751       1.62151833      26.17340196        0       0.00000000      -0.00000387       0.00079578       0.03552890
