38
Lattice="8.421641763931781 0.0 0.0 4.2108208819658905 7.293355709136913 0.0 0.0 0.0 46.87624170604845" Properties=species:S:1:pos:R:3:tags:I:1:initial_magmoms:R:1:forces:R:3 charge=0 spin=0 energy=-197.93952346523525 free_energy=-197.93952346523525 stress="0.0070369429886341095 -1.539478262202465e-06 -1.1953748071391601e-06 -1.539478262202465e-06 0.007045445963740349 -3.339977638461278e-06 -1.1953748071391601e-06 -3.339977638461278e-06 -0.0010360352462157607" pbc="T T T"
Pt      -0.00000012       0.00000002      19.95723426        4       0.00000000       0.00845293       0.00311159      -0.02559645
Pt       2.80721404      -0.00000018      19.95723442        4       0.00000000      -0.00698505       0.00575452      -0.02566055
Pt       5.61442782      -0.00000007      19.95723448        4       0.00000000      -0.00376709       0.00257845       0.01477080
Pt       1.40360721       2.43111841      19.95723428        4       0.00000000      -0.00148130      -0.00889822      -0.02558210
Pt       4.21082083       2.43111835      19.95723436        4       0.00000000      -0.00765705      -0.00316542       0.01826547
Pt       7.01803478       2.43111845      19.95723424        4       0.00000000       0.00664275      -0.00504863       0.01822673
Pt       2.80721407       4.86223728      19.95723400        4       0.00000000       0.00411119       0.00201853       0.01474752
Pt       5.61442803       4.86223733      19.95723419        4       0.00000000       0.00101099       0.00821544       0.01815854
Pt       8.42164139       4.86223726      19.95723434        4       0.00000000      -0.00033135      -0.00455764       0.01463876
Pt       1.40360728       0.81037259      22.29206791        3       0.00000000      -0.00003661      -0.00007519      -0.27012497
Pt       4.21082130       0.81037249      22.29206784        3       0.00000000      -0.06679184      -0.03084665      -0.12893757
Pt       7.01803471       0.81037256      22.29206781        3       0.00000000       0.07189750      -0.03847618      -0.13669536
Pt       2.80721448       3.24149124      22.29206773        3       0.00000000      -0.06915041      -0.04290487      -0.13709220
Pt       5.61442763       3.24149123      22.29206786        3       0.00000000       0.00001016       0.00004677      -0.22580990
Pt       8.42164156       3.24149129      22.29206804        3       0.00000000       0.06006983      -0.04245942      -0.12943494
Pt       4.21082092       5.67260997      22.29206793        3       0.00000000       0.00668841       0.07337026      -0.12935282
Pt       7.01803487       5.67261037      22.29206776        3       0.00000000      -0.00268003       0.08139493      -0.13698252
Pt       9.82524821       5.67261065      22.29206806        3       0.00000000       0.00000705      -0.00001093      -0.10972928
Pt      -0.00000053       1.62074569      24.58417386        2       0.00000000      -0.10867334       0.06837466       0.26651347
Pt       2.80721443       1.62074549      24.58417398        2       0.00000000       0.11371716       0.05968068       0.26682392
Pt       5.61442778       1.62074537      24.58417377        2       0.00000000       0.00688429      -0.57242233       0.29366937
Pt       1.40360637       4.05186439      24.58417390        2       0.00000000       0.00797472      -0.00106893      -0.07609087
Pt       4.21082088       4.05186403      24.58417379        2       0.00000000      -0.49879533       0.28022191       0.29418361
Pt       7.01803504       4.05186408      24.58417406        2       0.00000000       0.49186176       0.29171532       0.29391792
Pt       2.80721282       6.48298343      24.58417376        2       0.00000000      -0.00287749       0.00765074      -0.07621100
Pt       5.61442796       6.48298325      24.58417391        2       0.00000000      -0.00520889      -0.12812786       0.26578334
Pt       8.42164222       6.48298341      24.58417381        2       0.00000000      -0.00501427      -0.00634705      -0.07645275
Pt      -0.00942535      -0.00035713      26.89458229        1       0.00000000       0.01542656      -0.01270888       0.00146687
Pt       2.81203857      -0.00817610      26.89444829        1       0.00000000       0.00508097       0.02273258       0.00174775
Pt       5.61378760      -0.01986699      26.90067966        1       0.00000000      -0.00852142       0.01499747      -0.01290904
Pt       1.40802675       2.43925750      26.89428167        1       0.00000000      -0.01923460      -0.00679352       0.00196944
Pt       4.08931299       2.35751188      27.18467139        1       0.00000000      -0.03562342      -0.01957575      -0.01686713
Pt       7.14265337       2.36247839      27.18463514        1       0.00000000       0.02901868      -0.01613166      -0.01448113
Pt       2.79033764       4.87268269      26.90062454        1       0.00000000       0.01726642      -0.00060259      -0.01269429
Pt       5.61144214       5.00494362      27.18455375        1       0.00000000       0.00051054       0.01907181      -0.00992126
Pt       8.43908023       4.87154472      26.90050252        1       0.00000000      -0.00891306      -0.01493482      -0.01233610
C        5.61421673       3.24094871      27.91130323        0       1.00000000       0.00501074       0.01389050       0.01811929
H        5.61439520       3.24139383      25.36083525        0       0.00000000       0.00009974       0.00033030      -0.01404045
