38
Lattice="8.421641763931781 0.0 0.0 4.2108208819658905 7.293355709136913 0.0 0.0 0.0 46.87624170604845" Properties=species:S:1:pos:R:3:tags:I:1:initial_magmoms:R:1:forces:R:3 charge=0 spin=0 energy=-197.93983054836514 free_energy=-197.93983054836514 stress="0.007027185056358576 -1.2763325685227755e-07 3.798797365561768e-08 -1.2763325685227755e-07 0.007027294486761093 -2.7677023695105163e-07 3.798797365561768e-08 -2.7677023695105163e-07 -0.0010596776846796274" pbc="T T T"
Pt      -0.00000012       0.00000002      19.95723426        4       0.00000000      -0.00700793       0.00573148      -0.02574970
Pt       2.80721404      -0.00000018      19.95723442        4       0.00000000      -0.00369998       0.00255700       0.01476576
Pt       5.61442782      -0.00000007      19.95723448        4       0.00000000       0.00845215       0.00316367      -0.02567251
Pt       1.40360721       2.43111841      19.95723428        4       0.00000000      -0.00768185      -0.00322646       0.01827455
Pt       4.21082083       2.43111835      19.95723436        4       0.00000000       0.00671032      -0.00502577       0.01823714
Pt       7.01803478       2.43111845      19.95723424        4       0.00000000      -0.00144326      -0.00889205      -0.02573738
Pt       2.80721407       4.86223728      19.95723400        4       0.00000000       0.00097632       0.00825206       0.01818316
Pt       5.61442803       4.86223733      19.95723419        4       0.00000000      -0.00034906      -0.00450375       0.01460916
Pt       8.42164139       4.86223726      19.95723434        4       0.00000000       0.00404793       0.00194110       0.01473374
Pt       1.40360728       0.81037259      22.29206791        3       0.00000000      -0.06604373      -0.03089432      -0.12884401
Pt       4.21082130       0.81037249      22.29206784        3       0.00000000       0.07157572      -0.03839261      -0.13648652
Pt       7.01803471       0.81037256      22.29206781        3       0.00000000       0.00000263       0.00000273      -0.26885045
Pt       2.80721448       3.24149124      22.29206773        3       0.00000000      -0.00000824       0.00000281      -0.22390081
Pt       5.61442763       3.24149123      22.29206786        3       0.00000000       0.05976848      -0.04184026      -0.12930256
Pt       8.42164156       3.24149129      22.29206804        3       0.00000000      -0.06895412      -0.04274067      -0.13687991
Pt       4.21082092       5.67260997      22.29206793        3       0.00000000      -0.00261705       0.08114412      -0.13668187
Pt       7.01803487       5.67261037      22.29206776        3       0.00000000      -0.00000173      -0.00000652      -0.11067732
Pt       9.82524821       5.67261065      22.29206806        3       0.00000000       0.00628611       0.07272667      -0.12918976
Pt      -0.00000053       1.62074569      24.58417386        2       0.00000000       0.10954311       0.05889588       0.26756993
Pt       2.80721443       1.62074549      24.58417398        2       0.00000000       0.00673265      -0.56726825       0.28545061
Pt       5.61442778       1.62074537      24.58417377        2       0.00000000      -0.10581130       0.06555241       0.26744378
Pt       1.40360637       4.05186439      24.58417390        2       0.00000000      -0.49453071       0.27795345       0.28575218
Pt       4.21082088       4.05186403      24.58417379        2       0.00000000       0.48794988       0.28932279       0.28559241
Pt       7.01803504       4.05186408      24.58417406        2       0.00000000       0.00767000      -0.00400154      -0.08011744
Pt       2.80721282       6.48298343      24.58417376        2       0.00000000      -0.00378507      -0.12446053       0.26742983
Pt       5.61442796       6.48298325      24.58417391        2       0.00000000      -0.00751213      -0.00482012      -0.08045253
Pt       8.42164222       6.48298341      24.58417381        2       0.00000000      -0.00028882       0.00883879      -0.08038638
Pt       0.00628725      -0.00652869      26.89687495        1       0.00000000      -0.00289334       0.01442298      -0.00370497
Pt       2.80751092      -0.01726397      26.89673878        1       0.00000000      -0.00946899       0.00152266      -0.00198809
Pt       5.60562580      -0.00215280      26.89684757        1       0.00000000       0.01401348      -0.00492363      -0.00360885
Pt       1.28050447       2.35775603      27.18118385        1       0.00000000      -0.00695017      -0.00286249      -0.00146637
Pt       4.33590909       2.36119314      27.18119150        1       0.00000000       0.00588655      -0.00453427      -0.00144584
Pt       7.02052224       2.43981721      26.89683582        1       0.00000000      -0.01098237      -0.00970640      -0.00373402
Pt       2.80523793       5.00552942      27.18118967        1       0.00000000       0.00083304       0.00737906      -0.00145110
Pt       5.62922985       4.87110762      26.89672710        1       0.00000000       0.00344545      -0.00894363      -0.00210471
Pt       8.40652423       4.87061387      26.89671134        1       0.00000000       0.00618621       0.00751675      -0.00207127
C        2.80721556       3.24148388      27.90896892        0       1.00000000      -0.00004840       0.00012040       0.00202934
H        2.80721275       3.24149456      25.36175272        0       0.00000000      -0.00000189      -0.00000369      -0.01956723
