38
Lattice="8.421641763931781 0.0 0.0 4.2108208819658905 7.293355709136913 0.0 0.0 0.0 46.87624170604845" Properties=species:S:1:pos:R:3:tags:I:1:initial_magmoms:R:1:forces:R:3 charge=0 spin=0 energy=-192.90342498501064 free_energy=-192.90342498501064 stress="0.010173268616199493 -9.389605537535317e-08 6.215524095409819e-09 -9.389605537535317e-08 0.010173273272812366 -3.1247300302794656e-09 6.215524095409819e-09 -3.1247300302794656e-09 -0.00016927251999732107" pbc="T T T"
Pt      -0.00000012       0.00000002      19.95723426        4       0.00000000       0.00000199      -0.00000046       0.01525772
Pt       2.80721404      -0.00000018      19.95723442        4       0.00000000       0.00165767       0.00412385       0.01722260
Pt       5.61442782      -0.00000007      19.95723448        4       0.00000000      -0.00275475       0.00231043       0.01648053
Pt       1.40360721       2.43111841      19.95723428        4       0.00000000       0.00337768       0.00123590       0.01650125
Pt       4.21082083       2.43111835      19.95723436        4       0.00000000       0.00000252       0.00000123      -0.01117957
Pt       7.01803478       2.43111845      19.95723424        4       0.00000000      -0.00439548      -0.00061928       0.01722705
Pt       2.80721407       4.86223728      19.95723400        4       0.00000000       0.00273595      -0.00350340       0.01723661
Pt       5.61442803       4.86223733      19.95723419        4       0.00000000      -0.00062569      -0.00354526       0.01652364
Pt       8.42164139       4.86223726      19.95723434        4       0.00000000       0.00000150      -0.00000422       0.01381182
Pt       1.40360728       0.81037259      22.29206791        3       0.00000000      -0.00352028      -0.00031738      -0.05268360
Pt       4.21082130       0.81037249      22.29206784        3       0.00000000      -0.00098565       0.00575553      -0.04118317
Pt       7.01803471       0.81037256      22.29206781        3       0.00000000       0.00201441      -0.00290527      -0.05267982
Pt       2.80721448       3.24149124      22.29206773        3       0.00000000       0.00547808      -0.00205537      -0.04119328
Pt       5.61442763       3.24149123      22.29206786        3       0.00000000      -0.00449890      -0.00368924      -0.04117322
Pt       8.42164156       3.24149129      22.29206804        3       0.00000000      -0.00041910       0.00108813      -0.05159741
Pt       4.21082092       5.67260997      22.29206793        3       0.00000000       0.00150397       0.00322792      -0.05268783
Pt       7.01803487       5.67261037      22.29206776        3       0.00000000       0.00116260      -0.00015676      -0.05159177
Pt       9.82524821       5.67261065      22.29206806        3       0.00000000      -0.00073782      -0.00094365      -0.05161450
Pt      -0.00000053       1.62074569      24.58417386        2       0.00000000       0.00588785      -0.00126327       0.04079679
Pt       2.80721443       1.62074549      24.58417398        2       0.00000000       0.00243750       0.00535185       0.01950103
Pt       5.61442778       1.62074537      24.58417377        2       0.00000000      -0.00585543      -0.00060121       0.01946281
Pt       1.40360637       4.05186439      24.58417390        2       0.00000000       0.00288725      -0.00249962       0.03840575
Pt       4.21082088       4.05186403      24.58417379        2       0.00000000       0.00342087      -0.00475824       0.01938643
Pt       7.01803504       4.05186408      24.58417406        2       0.00000000      -0.00358156      -0.00128462       0.03838077
Pt       2.80721282       6.48298343      24.58417376        2       0.00000000      -0.00190114       0.00573064       0.04077929
Pt       5.61442796       6.48298325      24.58417391        2       0.00000000      -0.00398458      -0.00443666       0.04078918
Pt       8.42164222       6.48298341      24.58417381        2       0.00000000       0.00069479       0.00375789       0.03847418
Pt       0.00000124      -0.00000236      26.91834546        1       0.00000000       0.00001199      -0.00000944       0.00809535
Pt       2.80010339       0.00949118      26.91885525        1       0.00000000      -0.00026832      -0.00358660       0.00077054
Pt       5.62036442       0.01041554      26.91898198        1       0.00000000      -0.00200293      -0.00143526       0.00106567
Pt       1.40964048       2.42076803      26.91896710        1       0.00000000      -0.00017890       0.00248780       0.00104096
Pt       4.21082001       2.43112042      26.91804282        1       0.00000000      -0.00001237       0.00000781       0.00909457
Pt       7.01337738       2.42019823      26.91885512        1       0.00000000       0.00318471       0.00159210       0.00079022
Pt       2.81898223       4.86366633      26.91883163        1       0.00000000      -0.00290977       0.00199916       0.00086329
Pt       5.60245740       4.86217206      26.91895706        1       0.00000000       0.00217525      -0.00105552       0.00110579
Pt       8.42164137       4.86223753      26.90598084        1       0.00000000      -0.00000174       0.00000029      -0.00328386
C        8.42164122       4.86223740      29.93871657        0       1.00000000      -0.00000289       0.00000175      -0.01284399
H        8.42164140       4.86223701      28.76194189        0       0.00000000       0.00000077      -0.00000130       0.01464797
