38
Lattice="8.421641763931781 0.0 0.0 4.2108208819658905 7.293355709136913 0.0 0.0 0.0 46.87624170604845" Properties=species:S:1:pos:R:3:tags:I:1:initial_magmoms:R:1:forces:R:3 charge=0 spin=0 energy=-197.98943877895596 free_energy=-197.98943877895596 stress="0.00768543453887105 3.779554754146375e-05 -4.192354026599787e-05 3.779554754146375e-05 0.007365727797150612 0.00010388100054115057 -4.192354026599787e-05 0.00010388100054115057 -0.000733681779820472" pbc="T T T"
Pt      -0.00000012       0.00000002      19.95723426        4       0.00000000       0.00638931       0.02049667       0.00245283
Pt       2.80721404      -0.00000018      19.95723442        4       0.00000000      -0.00121859      -0.00411192       0.00791548
Pt       5.61442782      -0.00000007      19.95723448        4       0.00000000       0.00501903      -0.00070149       0.00877078
Pt       1.40360721       2.43111841      19.95723428        4       0.00000000      -0.02120443      -0.00837865      -0.01380299
Pt       4.21082083       2.43111835      19.95723436        4       0.00000000       0.00054289       0.00514133       0.01834963
Pt       7.01803478       2.43111845      19.95723424        4       0.00000000       0.00696461      -0.01155469      -0.01395134
Pt       2.80721407       4.86223728      19.95723400        4       0.00000000      -0.00462006      -0.00000261       0.02834229
Pt       5.61442803       4.86223733      19.95723419        4       0.00000000       0.00406054      -0.00261481       0.02634047
Pt       8.42164139       4.86223726      19.95723434        4       0.00000000      -0.00087118       0.01018961      -0.01064696
Pt       1.40360728       0.81037259      22.29206791        3       0.00000000      -0.01534395       0.04420144      -0.13647534
Pt       4.21082130       0.81037249      22.29206784        3       0.00000000      -0.00179971       0.00881413      -0.07591027
Pt       7.01803471       0.81037256      22.29206781        3       0.00000000       0.02530735       0.03103961      -0.11141057
Pt       2.80721448       3.24149124      22.29206773        3       0.00000000      -0.07961678      -0.03660053      -0.14590573
Pt       5.61442763       3.24149123      22.29206786        3       0.00000000       0.06195635      -0.03078320      -0.12045822
Pt       8.42164156       3.24149129      22.29206804        3       0.00000000       0.00481288       0.00583309      -0.26120052
Pt       4.21082092       5.67260997      22.29206793        3       0.00000000       0.00135377       0.03977869      -0.01787561
Pt       7.01803487       5.67261037      22.29206776        3       0.00000000       0.01051025      -0.02332855      -0.06529380
Pt       9.82524821       5.67261065      22.29206806        3       0.00000000      -0.00864955      -0.02487581      -0.07353277
Pt      -0.00000053       1.62074569      24.58417386        2       0.00000000      -0.01773001      -0.12168080       0.17622505
Pt       2.80721443       1.62074549      24.58417398        2       0.00000000       0.01515659       0.00748977       0.00663229
Pt       5.61442778       1.62074537      24.58417377        2       0.00000000      -0.01506673       0.02991430       0.00820299
Pt       1.40360637       4.05186439      24.58417390        2       0.00000000       0.18670207       0.10346761       0.27561802
Pt       4.21082088       4.05186403      24.58417379        2       0.00000000       0.00234468       0.16333166      -0.16809957
Pt       7.01803504       4.05186408      24.58417406        2       0.00000000      -0.20252444       0.13578311       0.28057167
Pt       2.80721282       6.48298343      24.58417376        2       0.00000000       0.08334830      -0.09382831       0.20429413
Pt       5.61442796       6.48298325      24.58417391        2       0.00000000      -0.08650740      -0.13306104       0.24388792
Pt       8.42164222       6.48298341      24.58417381        2       0.00000000      -0.01212282      -0.02180712      -0.09541878
Pt      -0.00720627       0.13751457      27.02301920        1       0.00000000       0.00151036      -0.00433667       0.01682707
Pt       2.81085833      -0.00448049      26.89696257        1       0.00000000       0.00587449      -0.01121155       0.00098279
Pt       5.59493921       0.00938371      26.89188164        1       0.00000000      -0.00895871      -0.00348943       0.00097618
Pt       1.40489911       2.43980140      26.90528283        1       0.00000000       0.00299819       0.01088085      -0.00101204
Pt       4.19580077       2.32000987      27.02368177        1       0.00000000       0.00192980       0.01241943      -0.01375486
Pt       7.01449620       2.44924310      26.90557767        1       0.00000000       0.00174386      -0.00904841      -0.00537893
Pt       2.68204191       4.83868731      27.18962587        1       0.00000000       0.01254648      -0.01506583      -0.00172508
Pt       5.75053954       4.82897936      27.31006175        1       0.00000000       0.00825270      -0.01109279       0.01394583
Pt       8.42005060       4.87101498      26.89460891        1       0.00000000      -0.00612054      -0.03407165       0.00176721
C        4.19351854       5.76616445      27.93387482        0       1.00000000      -0.01006687      -0.01386340      -0.00066505
H        4.36284229       3.96409739      26.32111033        0       0.00000000       0.04309732      -0.01327215       0.01041607
