38
Lattice="8.421641763931781 0.0 0.0 4.2108208819658905 7.293355709136913 0.0 0.0 0.0 46.87624170604845" Properties=species:S:1:pos:R:3:tags:I:1:initial_magmoms:R:1:forces:R:3 charge=0 spin=0 energy=-192.90316177089932 free_energy=-192.90316177089932 stress="0.0101374052464962 -9.568570646933949e-08 5.9237703631254135e-09 -9.568570646933949e-08 0.01013740710914135 4.485610105575688e-09 5.9237703631254135e-09 4.485610105575688e-09 -0.00024292619491461664" pbc="T T T"
Pt      -0.00000012       0.00000002      19.95723426        4       0.00000000       0.00324158       0.00123771       0.01647794
Pt       2.80721404      -0.00000018      19.95723442        4       0.00000000      -0.00000128       0.00000160      -0.01069011
Pt       5.61442782      -0.00000007      19.95723448        4       0.00000000      -0.00425103      -0.00058794       0.01716348
Pt       1.40360721       2.43111841      19.95723428        4       0.00000000       0.00263638      -0.00338948       0.01718201
Pt       4.21082083       2.43111835      19.95723436        4       0.00000000      -0.00054788      -0.00342180       0.01650188
Pt       7.01803478       2.43111845      19.95723424        4       0.00000000      -0.00000127       0.00000163       0.01379871
Pt       2.80721407       4.86223728      19.95723400        4       0.00000000       0.00000092      -0.00000250       0.01530348
Pt       5.61442803       4.86223733      19.95723419        4       0.00000000       0.00161156       0.00397919       0.01717557
Pt       8.42164139       4.86223726      19.95723434        4       0.00000000      -0.00268768       0.00218043       0.01646664
Pt       1.40360728       0.81037259      22.29206791        3       0.00000000       0.00547203      -0.00200673      -0.04146845
Pt       4.21082130       0.81037249      22.29206784        3       0.00000000      -0.00445791      -0.00369754      -0.04144771
Pt       7.01803471       0.81037256      22.29206781        3       0.00000000      -0.00046496       0.00111072      -0.05100099
Pt       2.80721448       3.24149124      22.29206773        3       0.00000000       0.00152482       0.00308491      -0.05214332
Pt       5.61442763       3.24149123      22.29206786        3       0.00000000       0.00120587      -0.00012215      -0.05101019
Pt       8.42164156       3.24149129      22.29206804        3       0.00000000      -0.00073561      -0.00097827      -0.05102953
Pt       4.21082092       5.67260997      22.29206793        3       0.00000000      -0.00340861      -0.00022493      -0.05213394
Pt       7.01803487       5.67261037      22.29206776        3       0.00000000      -0.00102209       0.00570978      -0.04146128
Pt       9.82524821       5.67261065      22.29206806        3       0.00000000       0.00188405      -0.00287266      -0.05212986
Pt      -0.00000053       1.62074569      24.58417386        2       0.00000000       0.00031690      -0.00148761       0.02887048
Pt       2.80721443       1.62074549      24.58417398        2       0.00000000       0.00347620      -0.00328875       0.00813274
Pt       5.61442778       1.62074537      24.58417377        2       0.00000000      -0.00141175       0.00041821       0.02884786
Pt       1.40360637       4.05186439      24.58417390        2       0.00000000      -0.00080245       0.00676835       0.03083814
Pt       4.21082088       4.05186403      24.58417379        2       0.00000000      -0.00541813      -0.00397435       0.03085138
Pt       7.01803504       4.05186408      24.58417406        2       0.00000000       0.00110459       0.00104677       0.02894555
Pt       2.80721282       6.48298343      24.58417376        2       0.00000000       0.00622463      -0.00273785       0.03086261
Pt       5.61442796       6.48298325      24.58417391        2       0.00000000       0.00113126       0.00466165       0.00825889
Pt       8.42164222       6.48298341      24.58417381        2       0.00000000      -0.00461823      -0.00139958       0.00822946
Pt       0.00559962      -0.00948705      26.91643235        1       0.00000000       0.00151549      -0.00237919       0.01190313
Pt       2.80721114       0.00000197      26.91456703        1       0.00000000      -0.00000380       0.00000959       0.02312551
Pt       5.61047395      -0.00991340      26.91597205        1       0.00000000       0.00027629      -0.00368502       0.01316349
Pt       1.41414634       2.43265292      26.91593628        1       0.00000000       0.00313184       0.00213000       0.01327734
Pt       4.19981602       2.43099317      26.91641511        1       0.00000000      -0.00289663      -0.00007410       0.01199676
Pt       7.01803328       2.43112117      26.90652628        1       0.00000000      -0.00000138      -0.00000495       0.01441824
Pt       2.80721639       4.86223464      26.91690311        1       0.00000000       0.00000618      -0.00000968       0.01366782
Pt       5.60784061       4.87061811      26.91596964        1       0.00000000      -0.00340109       0.00156134       0.01315024
Pt       8.42704458       4.87185262      26.91644813        1       0.00000000       0.00137079       0.00244524       0.01191784
C        7.01803210       2.43111695      29.94594695        0       1.00000000      -0.00001155      -0.00000250       0.02501503
H        7.01803828       2.43111910      28.77175783        0       0.00000000       0.00001203       0.00000077      -0.04102699
