38
Lattice="8.421641763931781 0.0 0.0 4.2108208819658905 7.293355709136913 0.0 0.0 0.0 46.87624170604845" Properties=species:S:1:pos:R:3:tags:I:1:initial_magmoms:R:1:forces:R:3 charge=0 spin=0 energy=-197.93908668239834 free_energy=-197.93908668239834 stress="0.0070258150808513165 -1.3624475059259566e-07 4.40575265159282e-09 -1.3624475059259566e-07 0.0070251589640975 -8.071983637059077e-10 4.40575265159282e-09 -8.071983637059077e-10 -0.0010193624766543508" pbc="T T T"
Pt      -0.00000012       0.00000002      19.95723426        4       0.00000000       0.00892401       0.00343348      -0.02548753
Pt       2.80721404      -0.00000018      19.95723442        4       0.00000000      -0.00748565       0.00600320      -0.02558369
Pt       5.61442782      -0.00000007      19.95723448        4       0.00000000      -0.00367768       0.00242457       0.01479744
Pt       1.40360721       2.43111841      19.95723428        4       0.00000000      -0.00143938      -0.00943339      -0.02556674
Pt       4.21082083       2.43111835      19.95723436        4       0.00000000      -0.00724788      -0.00274189       0.01779289
Pt       7.01803478       2.43111845      19.95723424        4       0.00000000       0.00607266      -0.00489569       0.01775523
Pt       2.80721407       4.86223728      19.95723400        4       0.00000000       0.00392344       0.00199197       0.01476101
Pt       5.61442803       4.86223733      19.95723419        4       0.00000000       0.00117654       0.00763679       0.01769847
Pt       8.42164139       4.86223726      19.95723434        4       0.00000000      -0.00024089      -0.00442085       0.01463493
Pt       1.40360728       0.81037259      22.29206791        3       0.00000000      -0.00000073       0.00001025      -0.26968676
Pt       4.21082130       0.81037249      22.29206784        3       0.00000000      -0.06632963      -0.03132655      -0.13137875
Pt       7.01803471       0.81037256      22.29206781        3       0.00000000       0.07216570      -0.03877690      -0.13892987
Pt       2.80721448       3.24149124      22.29206773        3       0.00000000      -0.06959198      -0.04305732      -0.13934094
Pt       5.61442763       3.24149123      22.29206786        3       0.00000000       0.00000379       0.00000130      -0.22161593
Pt       8.42164156       3.24149129      22.29206804        3       0.00000000       0.06028887      -0.04187072      -0.13187192
Pt       4.21082092       5.67260997      22.29206793        3       0.00000000       0.00604824       0.07320763      -0.13173552
Pt       7.01803487       5.67261037      22.29206776        3       0.00000000      -0.00258021       0.08183042      -0.13914169
Pt       9.82524821       5.67261065      22.29206806        3       0.00000000       0.00000728      -0.00001392      -0.10852315
Pt      -0.00000053       1.62074569      24.58417386        2       0.00000000      -0.10557333       0.06367159       0.27894107
Pt       2.80721443       1.62074549      24.58417398        2       0.00000000       0.10782742       0.05959474       0.27899542
Pt       5.61442778       1.62074537      24.58417377        2       0.00000000       0.00637618      -0.56878155       0.29056719
Pt       1.40360637       4.05186439      24.58417390        2       0.00000000       0.00869059       0.00057816      -0.07332321
Pt       4.21082088       4.05186403      24.58417379        2       0.00000000      -0.49565092       0.27904651       0.29084173
Pt       7.01803504       4.05186408      24.58417406        2       0.00000000       0.48941532       0.28974548       0.29067937
Pt       2.80721282       6.48298343      24.58417376        2       0.00000000      -0.00472359       0.00742896      -0.07354301
Pt       5.61442796       6.48298325      24.58417391        2       0.00000000      -0.00236835      -0.12334190       0.27895537
Pt       8.42164222       6.48298341      24.58417381        2       0.00000000      -0.00404761      -0.00794848      -0.07365926
Pt      -0.01212098      -0.00578059      26.89844262        1       0.00000000       0.02762535       0.01330171      -0.01466128
Pt       2.81826719      -0.00759152      26.89842638        1       0.00000000      -0.02544055       0.01705629      -0.01463200
Pt       5.61377031      -0.01116482      26.89732876        1       0.00000000      -0.00464378      -0.03172878      -0.00596527
Pt       1.40462961       2.44448974      26.89837770        1       0.00000000      -0.00218789      -0.03057248      -0.01464339
Pt       4.08572883       2.35690894      27.19007285        1       0.00000000      -0.02894016      -0.01248440      -0.02208696
Pt       7.14483375       2.35990392      27.19008582        1       0.00000000       0.02523154      -0.01893339      -0.02210702
Pt       2.79786918       4.86839136      26.89729413        1       0.00000000      -0.02513736       0.01997793      -0.00602574
Pt       5.61268933       5.00761921      27.19010315        1       0.00000000       0.00370840       0.03267829      -0.02255995
Pt       8.43162718       4.86725029      26.89728072        1       0.00000000       0.02986279       0.01180353      -0.00598479
C        5.61441597       3.24152640      27.90602715        0       1.00000000      -0.00004421      -0.00108310       0.03414465
H        5.61442713       3.24149404      25.35766631        0       0.00000000       0.00000364      -0.00001150      -0.00251026
