38
Lattice="8.421641763931781 0.0 0.0 4.2108208819658905 7.293355709136913 0.0 0.0 0.0 46.87624170604845" Properties=species:S:1:pos:R:3:tags:I:1:initial_magmoms:R:1:forces:R:3 charge=0 spin=0 energy=-197.507972485621 free_energy=-197.507972485621 stress="0.009007598273456097 -1.4737815945409238e-07 4.820569188268564e-08 -1.4737815945409238e-07 0.009008437395095825 3.6357050703372806e-07 4.820569188268564e-08 3.6357050703372806e-07 -0.000922389910556376" pbc="T T T"
Pt      -0.00000012       0.00000002      19.95723426        4       0.00000000       0.00285718       0.02435676      -0.03719139
Pt       2.80721404      -0.00000018      19.95723442        4       0.00000000      -0.00509610       0.00339691       0.02223539
Pt       5.61442782      -0.00000007      19.95723448        4       0.00000000       0.00544567       0.00269705       0.02208132
Pt       1.40360721       2.43111841      19.95723428        4       0.00000000      -0.02255033      -0.00971789      -0.03708535
Pt       4.21082083       2.43111835      19.95723436        4       0.00000000      -0.00103108       0.00888067       0.01952499
Pt       7.01803478       2.43111845      19.95723424        4       0.00000000       0.01969145      -0.01467486      -0.03730077
Pt       2.80721407       4.86223728      19.95723400        4       0.00000000       0.00821234      -0.00358659       0.01932145
Pt       5.61442803       4.86223733      19.95723419        4       0.00000000      -0.00718198      -0.00529691       0.01925809
Pt       8.42164139       4.86223726      19.95723434        4       0.00000000      -0.00035160      -0.00609406       0.02200986
Pt       1.40360728       0.81037259      22.29206791        3       0.00000000      -0.04262020       0.02516813      -0.19442841
Pt       4.21082130       0.81037249      22.29206784        3       0.00000000      -0.00545524       0.02594515      -0.01600241
Pt       7.01803471       0.81037256      22.29206781        3       0.00000000       0.04313618       0.02420766      -0.19456556
Pt       2.80721448       3.24149124      22.29206773        3       0.00000000      -0.08926263      -0.05116402      -0.15166935
Pt       5.61442763       3.24149123      22.29206786        3       0.00000000       0.08904237      -0.05167301      -0.15173851
Pt       8.42164156       3.24149129      22.29206804        3       0.00000000      -0.00051025      -0.04934575      -0.19473206
Pt       4.21082092       5.67260997      22.29206793        3       0.00000000       0.00020992       0.10279514      -0.15200190
Pt       7.01803487       5.67261037      22.29206776        3       0.00000000      -0.01978801      -0.01770608      -0.01650820
Pt       9.82524821       5.67261065      22.29206806        3       0.00000000       0.02524526      -0.00822748      -0.01658932
Pt      -0.00000053       1.62074569      24.58417386        2       0.00000000       0.00001043      -0.00006205      -0.24127491
Pt       2.80721443       1.62074549      24.58417398        2       0.00000000       0.20945264       0.14618433       0.31619409
Pt       5.61442778       1.62074537      24.58417377        2       0.00000000      -0.20774001       0.15024483       0.31752422
Pt       1.40360637       4.05186439      24.58417390        2       0.00000000       0.23380031       0.10499000       0.31789702
Pt       4.21082088       4.05186403      24.58417379        2       0.00000000      -0.00001402      -0.00036839      -0.66513127
Pt       7.01803504       4.05186408      24.58417406        2       0.00000000      -0.23112860       0.10835315       0.31643021
Pt       2.80721282       6.48298343      24.58417376        2       0.00000000       0.02176151      -0.25446299       0.31629965
Pt       5.61442796       6.48298325      24.58417391        2       0.00000000      -0.02610878      -0.25514874       0.31795382
Pt       8.42164222       6.48298341      24.58417381        2       0.00000000       0.00000596      -0.00004171      -0.01982482
Pt       0.00060891       0.02387830      26.89810427        1       0.00000000       0.00029097       0.00493377       0.00826093
Pt       2.80987645      -0.00289319      26.90034491        1       0.00000000      -0.03739005       0.02806783       0.00961658
Pt       5.61070372      -0.00102404      26.90034890        1       0.00000000       0.04291793       0.01839168       0.00962618
Pt       1.38266011       2.41971916      26.89800218        1       0.00000000      -0.00473837      -0.00239071       0.00840969
Pt       4.20888458       2.32611679      27.29303175        1       0.00000000      -0.00613393      -0.01489472      -0.00133443
Pt       7.03836959       2.41864411      26.89801551        1       0.00000000       0.00432844      -0.00302336       0.00838017
Pt       2.71745869       4.91617207      27.29303183        1       0.00000000      -0.01108567       0.01359633      -0.00164011
Pt       5.70614193       4.91281662      27.29306283        1       0.00000000       0.01735471       0.00303646      -0.00172447
Pt       8.42272629       4.86599392      26.90038198        1       0.00000000      -0.00544904      -0.04663422       0.00942211
C        4.21083387       4.05173340      28.17382259        0       1.00000000      -0.00011815      -0.00151739       0.01466238
H        4.21081510       4.05262815      26.17339590        0       0.00000000      -0.00000926       0.00078509       0.03563517
