38
Lattice="8.421641763931781 0.0 0.0 4.2108208819658905 7.293355709136913 0.0 0.0 0.0 46.87624170604845" Properties=species:S:1:pos:R:3:tags:I:1:initial_magmoms:R:1:forces:R:3 charge=0 spin=0 energy=-197.50844550808193 free_energy=-197.50844550808193 stress="0.009107115678489208 -3.643679349352169e-07 1.0798317617854991e-07 -3.643679349352169e-07 0.009108140133321285 5.537580136660836e-07 1.0798317617854991e-07 5.537580136660836e-07 -0.0007796519785188138" pbc="T T T"
Pt      -0.00000012       0.00000002      19.95723426        4       0.00000000      -0.00756828      -0.00553777       0.01934043
Pt       2.80721404      -0.00000018      19.95723442        4       0.00000000      -0.00033796      -0.00617934       0.02227954
Pt       5.61442782      -0.00000007      19.95723448        4       0.00000000       0.00861340      -0.00378521       0.01936254
Pt       1.40360721       2.43111841      19.95723428        4       0.00000000      -0.00520556       0.00341413       0.02253471
Pt       4.21082083       2.43111835      19.95723436        4       0.00000000       0.00553716       0.00276313       0.02237899
Pt       7.01803478       2.43111845      19.95723424        4       0.00000000       0.00272467       0.02447510      -0.03708766
Pt       2.80721407       4.86223728      19.95723400        4       0.00000000      -0.00104543       0.00932126       0.01956373
Pt       5.61442803       4.86223733      19.95723419        4       0.00000000       0.01979277      -0.01459825      -0.03709527
Pt       8.42164139       4.86223726      19.95723434        4       0.00000000      -0.02247201      -0.00982452      -0.03681294
Pt       1.40360728       0.81037259      22.29206791        3       0.00000000      -0.01906852      -0.01708063      -0.01881323
Pt       4.21082130       0.81037249      22.29206784        3       0.00000000       0.02431014      -0.00791608      -0.01890231
Pt       7.01803471       0.81037256      22.29206781        3       0.00000000       0.00029650       0.10215067      -0.15129499
Pt       2.80721448       3.24149124      22.29206773        3       0.00000000      -0.00527860       0.02495978      -0.01836422
Pt       5.61442763       3.24149123      22.29206786        3       0.00000000       0.04259933       0.02394703      -0.19426389
Pt       8.42164156       3.24149129      22.29206804        3       0.00000000      -0.04216400       0.02480843      -0.19412521
Pt       4.21082092       5.67260997      22.29206793        3       0.00000000       0.08832692      -0.05135153      -0.15098202
Pt       7.01803487       5.67261037      22.29206776        3       0.00000000      -0.00044918      -0.04877883      -0.19441819
Pt       9.82524821       5.67261065      22.29206806        3       0.00000000      -0.08860035      -0.05072671      -0.15093705
Pt      -0.00000053       1.62074569      24.58417386        2       0.00000000      -0.02472282      -0.25231120       0.33128387
Pt       2.80721443       1.62074549      24.58417398        2       0.00000000      -0.00005698       0.00005778       0.02967329
Pt       5.61442778       1.62074537      24.58417377        2       0.00000000       0.01937651      -0.25070822       0.33147880
Pt       1.40360637       4.05186439      24.58417390        2       0.00000000       0.20731021       0.14187479       0.33086389
Pt       4.21082088       4.05186403      24.58417379        2       0.00000000      -0.20564735       0.14756167       0.33018869
Pt       7.01803504       4.05186408      24.58417406        2       0.00000000      -0.00002861      -0.00007067      -0.22960189
Pt       2.80721282       6.48298343      24.58417376        2       0.00000000       0.00052588       0.00055588      -0.64360493
Pt       5.61442796       6.48298325      24.58417391        2       0.00000000      -0.22666028       0.10879325       0.33175626
Pt       8.42164222       6.48298341      24.58417381        2       0.00000000       0.23038541       0.10479049       0.33043158
Pt       0.09242325       0.04853025      27.29449770        1       0.00000000      -0.00092752      -0.00115414      -0.00152985
Pt       2.80931066      -0.00666169      26.90764470        1       0.00000000      -0.00644074       0.01076643      -0.01779563
Pt       5.52641986       0.05586242      27.29444474        1       0.00000000       0.00288126      -0.00092209      -0.00055394
Pt       1.39695680       2.43301294      26.90767669        1       0.00000000       0.01161176      -0.00117128      -0.01784649
Pt       4.21570475       2.43616429      26.90763971        1       0.00000000      -0.00619124      -0.01005021      -0.01770652
Pt       7.01926219       2.45799678      26.90392811        1       0.00000000      -0.00070480      -0.01356317      -0.00519421
Pt       2.80303435       4.75816348      27.29439529        1       0.00000000      -0.00010046       0.00443508       0.00016904
Pt       5.63715704       4.84785172      26.90384932        1       0.00000000      -0.01156871       0.00754636      -0.00501866
Pt       8.39781237       4.84992582      26.90377220        1       0.00000000       0.01222987       0.00601455      -0.00469811
C       11.22904540       6.48326597      28.18089421        0       1.00000000      -0.00035233      -0.00122412      -0.01807001
H       11.22794748       6.48180520      26.17529884        0       0.00000000      -0.00092985      -0.00128169       0.02341142
