38
Lattice="8.421641763931781 0.0 0.0 4.2108208819658905 7.293355709136913 0.0 0.0 0.0 46.87624170604845" Properties=species:S:1:pos:R:3:tags:I:1:initial_magmoms:R:1:forces:R:3 charge=0 spin=0 energy=-197.98938728054287 free_energy=-197.98938728054287 stress="0.0076862117275595665 4.089230060344562e-05 -4.0014951082412153e-05 4.089230060344562e-05 0.007369521539658308 0.00010113546886714175 -4.0014951082412153e-05 0.00010113546886714175 -0.0007299090502783656" pbc="T T T"
Pt      -0.00000012       0.00000002      19.95723426        4       0.00000000      -0.00119261      -0.00417398       0.00789943
Pt       2.80721404      -0.00000018      19.95723442        4       0.00000000       0.00501026      -0.00073599       0.00877228
Pt       5.61442782      -0.00000007      19.95723448        4       0.00000000       0.00640532       0.02038852       0.00254170
Pt       1.40360721       2.43111841      19.95723428        4       0.00000000       0.00055723       0.00511669       0.01831248
Pt       4.21082083       2.43111835      19.95723436        4       0.00000000       0.00697441      -0.01155836      -0.01391771
Pt       7.01803478       2.43111845      19.95723424        4       0.00000000      -0.02119852      -0.00838341      -0.01379161
Pt       2.80721407       4.86223728      19.95723400        4       0.00000000       0.00409191      -0.00266503       0.02631816
Pt       5.61442803       4.86223733      19.95723419        4       0.00000000      -0.00086676       0.01018731      -0.01067196
Pt       8.42164139       4.86223726      19.95723434        4       0.00000000      -0.00463673      -0.00005464       0.02832617
Pt       1.40360728       0.81037259      22.29206791        3       0.00000000      -0.00181650       0.00871303      -0.07600766
Pt       4.21082130       0.81037249      22.29206784        3       0.00000000       0.02533498       0.03100635      -0.11138711
Pt       7.01803471       0.81037256      22.29206781        3       0.00000000      -0.01532292       0.04422672      -0.13656852
Pt       2.80721448       3.24149124      22.29206773        3       0.00000000       0.06194355      -0.03092777      -0.12039668
Pt       5.61442763       3.24149123      22.29206786        3       0.00000000       0.00485997       0.00580561      -0.26127240
Pt       8.42164156       3.24149129      22.29206804        3       0.00000000      -0.07954910      -0.03671335      -0.14594090
Pt       4.21082092       5.67260997      22.29206793        3       0.00000000       0.01054492      -0.02340828      -0.06517015
Pt       7.01803487       5.67261037      22.29206776        3       0.00000000      -0.00866426      -0.02497165      -0.07346407
Pt       9.82524821       5.67261065      22.29206806        3       0.00000000       0.00133516       0.03943017      -0.01773807
Pt      -0.00000053       1.62074569      24.58417386        2       0.00000000       0.01466450       0.00793792       0.00556125
Pt       2.80721443       1.62074549      24.58417398        2       0.00000000      -0.01458521       0.03050253       0.00752033
Pt       5.61442778       1.62074537      24.58417377        2       0.00000000      -0.01793656      -0.12144087       0.17667556
Pt       1.40360637       4.05186439      24.58417390        2       0.00000000       0.00274209       0.16294880      -0.16355109
Pt       4.21082088       4.05186403      24.58417379        2       0.00000000      -0.20266686       0.13630168       0.28045547
Pt       7.01803504       4.05186408      24.58417406        2       0.00000000       0.18655553       0.10396347       0.27576992
Pt       2.80721282       6.48298343      24.58417376        2       0.00000000      -0.08624858      -0.13295542       0.24462987
Pt       5.61442796       6.48298325      24.58417391        2       0.00000000      -0.01218183      -0.02172604      -0.09531830
Pt       8.42164222       6.48298341      24.58417381        2       0.00000000       0.08310501      -0.09377439       0.20492955
Pt       0.00385985      -0.00352319      26.89704539        1       0.00000000       0.00392422      -0.01423549       0.00104518
Pt       2.78754322       0.01022750      26.89192466        1       0.00000000      -0.00770395      -0.00586522       0.00108343
Pt       5.60702147       0.13757261      27.02283558        1       0.00000000       0.00168848      -0.00568541       0.01846441
Pt       1.38850174       2.32026942      27.02312551        1       0.00000000       0.00228159       0.01645519      -0.01403993
Pt       4.20719921       2.44996847      26.90570109        1       0.00000000       0.00297335      -0.01108119      -0.00582450
Pt       7.01938548       2.44016751      26.90529065        1       0.00000000       0.00146833       0.01031474      -0.00106891
Pt       2.94317724       4.82924107      27.31066055        1       0.00000000       0.01322275      -0.01183999       0.01260495
Pt       5.61257236       4.87155623      26.89466983        1       0.00000000      -0.00533396      -0.03418953       0.00155625
Pt       8.29620720       4.83889956      27.18984449        1       0.00000000       0.01627529      -0.01154395      -0.00051537
C        9.80823768       5.76628333      27.93428008        0       1.00000000      -0.01821329      -0.00994185      -0.00214266
H        9.97732143       3.96612371      26.32230420        0       0.00000000       0.04215889      -0.01542703       0.00632159
