38
Lattice="8.421641763931781 0.0 0.0 4.2108208819658905 7.293355709136913 0.0 0.0 0.0 46.87624170604845" Properties=species:S:1:pos:R:3:tags:I:1:initial_magmoms:R:1:forces:R:3 charge=0 spin=0 energy=-197.5084836550546 free_energy=-197.5084836550546 stress="0.009098624810576439 -1.4432093564664683e-07 -7.552406700028769e-09 -1.4432093564664683e-07 0.00909858662635088 7.070461549574247e-08 -7.552406700028769e-09 7.070461549574247e-08 -0.0007910833810456097" pbc="T T T"
Pt      -0.00000012       0.00000002      19.95723426        4       0.00000000      -0.00756609      -0.00547326       0.01931114
Pt       2.80721404      -0.00000018      19.95723442        4       0.00000000      -0.00026257      -0.00617675       0.02225723
Pt       5.61442782      -0.00000007      19.95723448        4       0.00000000       0.00856150      -0.00381938       0.01935752
Pt       1.40360721       2.43111841      19.95723428        4       0.00000000      -0.00522907       0.00336194       0.02250683
Pt       4.21082083       2.43111835      19.95723436        4       0.00000000       0.00549144       0.00282092       0.02235181
Pt       7.01803478       2.43111845      19.95723424        4       0.00000000       0.00276712       0.02442125      -0.03705291
Pt       2.80721407       4.86223728      19.95723400        4       0.00000000      -0.00099415       0.00929359       0.01956010
Pt       5.61442803       4.86223733      19.95723419        4       0.00000000       0.01975555      -0.01461876      -0.03709689
Pt       8.42164139       4.86223726      19.95723434        4       0.00000000      -0.02252264      -0.00980706      -0.03687986
Pt       1.40360728       0.81037259      22.29206791        3       0.00000000      -0.01906855      -0.01720555      -0.01857286
Pt       4.21082130       0.81037249      22.29206784        3       0.00000000       0.02444870      -0.00784269      -0.01864059
Pt       7.01803471       0.81037256      22.29206781        3       0.00000000       0.00025153       0.10217775      -0.15140235
Pt       2.80721448       3.24149124      22.29206773        3       0.00000000      -0.00538952       0.02505542      -0.01807207
Pt       5.61442763       3.24149123      22.29206786        3       0.00000000       0.04278868       0.02411456      -0.19444057
Pt       8.42164156       3.24149129      22.29206804        3       0.00000000      -0.04237893       0.02488432      -0.19430120
Pt       4.21082092       5.67260997      22.29206793        3       0.00000000       0.08843579      -0.05135089      -0.15111814
Pt       7.01803487       5.67261037      22.29206776        3       0.00000000      -0.00040147      -0.04900328      -0.19458103
Pt       9.82524821       5.67261065      22.29206806        3       0.00000000      -0.08868703      -0.05082119      -0.15105955
Pt      -0.00000053       1.62074569      24.58417386        2       0.00000000      -0.02442118      -0.25274563       0.33161035
Pt       2.80721443       1.62074549      24.58417398        2       0.00000000      -0.00000573       0.00004384       0.02688476
Pt       5.61442778       1.62074537      24.58417377        2       0.00000000       0.01913622      -0.25229147       0.32898527
Pt       1.40360637       4.05186439      24.58417390        2       0.00000000       0.20879515       0.14276426       0.32873011
Pt       4.21082088       4.05186403      24.58417379        2       0.00000000      -0.20640719       0.14750326       0.33101207
Pt       7.01803504       4.05186408      24.58417406        2       0.00000000      -0.00000794      -0.00003449      -0.23458667
Pt       2.80721282       6.48298343      24.58417376        2       0.00000000       0.00005147       0.00002964      -0.64005458
Pt       5.61442796       6.48298325      24.58417391        2       0.00000000      -0.22791928       0.10951880       0.32903495
Pt       8.42164222       6.48298341      24.58417381        2       0.00000000       0.23080657       0.10524642       0.33139369
Pt       0.09242632       0.04859962      27.29538555        1       0.00000000       0.00102139       0.00354962      -0.00404231
Pt       2.80801378      -0.00594160      26.90734180        1       0.00000000       0.00213813       0.00737924      -0.01675224
Pt       5.52617241       0.05573543      27.29538073        1       0.00000000      -0.00357703      -0.00090265      -0.00398260
Pt       1.39806729       2.43344187      26.90736928        1       0.00000000       0.00535417      -0.00551255      -0.01677561
Pt       4.21559095       2.43474939      26.90738701        1       0.00000000      -0.00747902      -0.00179961      -0.01679887
Pt       7.01788009       2.45821487      26.90279834        1       0.00000000       0.00451474      -0.01663874      -0.00143117
Pt       2.80309745       4.75794298      27.29537542        1       0.00000000       0.00258266      -0.00284017      -0.00406059
Pt       5.63795324       4.84879420      26.90276058        1       0.00000000      -0.01669250       0.00443078      -0.00141587
Pt       8.39823792       4.84859021      26.90274697        1       0.00000000       0.01215748       0.01220581      -0.00136779
C       11.22888457       6.48299079      28.18019240        0       1.00000000       0.00002183       0.00014340      -0.00911635
H       11.22879299       6.48291915      26.17534336        0       0.00000000      -0.00007005      -0.00006086       0.02060646
