38
Lattice="8.421641763931781 0.0 0.0 4.2108208819658905 7.293355709136913 0.0 0.0 0.0 46.87624170604845" Properties=species:S:1:pos:R:3:tags:I:1:initial_magmoms:R:1:forces:R:3 charge=0 spin=0 energy=-197.93990874965908 free_energy=-197.93990874965908 stress="0.0070246378891170025 4.4242721486398295e-08 1.7390235029779433e-07 4.4242721486398295e-08 0.0070210909470915794 1.0144551652047085e-06 1.7390235029779433e-07 1.0144551652047085e-06 -0.0010912013240158558" pbc="T T T"
Pt      -0.00000012       0.00000002      19.95723426        4       0.00000000      -0.00145765      -0.00884039      -0.02590506
Pt       2.80721404      -0.00000018      19.95723442        4       0.00000000      -0.00777354      -0.00315439       0.01829399
Pt       5.61442782      -0.00000007      19.95723448        4       0.00000000       0.00667987      -0.00515641       0.01825472
Pt       1.40360721       2.43111841      19.95723428        4       0.00000000       0.00400795       0.00169829       0.01464848
Pt       4.21082083       2.43111835      19.95723436        4       0.00000000       0.00109702       0.00828001       0.01820252
Pt       7.01803478       2.43111845      19.95723424        4       0.00000000      -0.00052936      -0.00436773       0.01452006
Pt       2.80721407       4.86223728      19.95723400        4       0.00000000       0.00841973       0.00310736      -0.02580956
Pt       5.61442803       4.86223733      19.95723419        4       0.00000000      -0.00695917       0.00571113      -0.02590118
Pt       8.42164139       4.86223726      19.95723434        4       0.00000000      -0.00347871       0.00262398       0.01469621
Pt       1.40360728       0.81037259      22.29206791        3       0.00000000      -0.06923485      -0.04293558      -0.13595901
Pt       4.21082130       0.81037249      22.29206784        3       0.00000000      -0.00000545      -0.00003411      -0.22469991
Pt       7.01803471       0.81037256      22.29206781        3       0.00000000       0.05983930      -0.04182547      -0.12952951
Pt       2.80721448       3.24149124      22.29206773        3       0.00000000       0.00619704       0.07274323      -0.12942682
Pt       5.61442763       3.24149123      22.29206786        3       0.00000000      -0.00263716       0.08140747      -0.13577241
Pt       8.42164156       3.24149129      22.29206804        3       0.00000000      -0.00000329      -0.00003658      -0.11084504
Pt       4.21082092       5.67260997      22.29206793        3       0.00000000      -0.00000107       0.00000037      -0.26908222
Pt       7.01803487       5.67261037      22.29206776        3       0.00000000      -0.06604772      -0.03104211      -0.12910400
Pt       9.82524821       5.67261065      22.29206806        3       0.00000000       0.07185019      -0.03860429      -0.13561153
Pt      -0.00000053       1.62074569      24.58417386        2       0.00000000       0.01002816      -0.00454424      -0.08808283
Pt       2.80721443       1.62074549      24.58417398        2       0.00000000      -0.50101411       0.28131318       0.27952701
Pt       5.61442778       1.62074537      24.58417377        2       0.00000000       0.49404588       0.29335082       0.27941760
Pt       1.40360637       4.05186439      24.58417390        2       0.00000000      -0.00087271       0.01134032      -0.08831874
Pt       4.21082088       4.05186403      24.58417379        2       0.00000000      -0.00147944      -0.12722284       0.26231718
Pt       7.01803504       4.05186408      24.58417406        2       0.00000000      -0.00921616      -0.00633227      -0.08839734
Pt       2.80721282       6.48298343      24.58417376        2       0.00000000      -0.10935855       0.06513891       0.26217651
Pt       5.61442796       6.48298325      24.58417391        2       0.00000000       0.11081801       0.06251160       0.26220819
Pt       8.42164222       6.48298341      24.58417381        2       0.00000000       0.00712642      -0.57449543       0.27910310
Pt      -0.00019563       0.00771328      26.89478060        1       0.00000000       0.00419793      -0.00487066       0.00394708
Pt       2.68327290      -0.07145368      27.18029324        1       0.00000000       0.01354819       0.01103264       0.00815837
Pt       5.73852634      -0.07122626      27.18029334        1       0.00000000      -0.01611757       0.00526883       0.00794620
Pt       1.39009242       2.44256147      26.89436233        1       0.00000000       0.00138706      -0.00282429       0.00613506
Pt       4.21072347       2.57447535      27.18021979        1       0.00000000       0.00306367      -0.01280513       0.00663980
Pt       7.03455480       2.43742696      26.89436352        1       0.00000000      -0.00311883       0.00017363       0.00613080
Pt       2.80086212       4.85851461      26.89475484        1       0.00000000       0.00183942       0.00611836       0.00408610
Pt       5.62102840       4.85886801      26.89476273        1       0.00000000      -0.00609411      -0.00121417       0.00406816
Pt       8.41870375       4.84515773      26.89440493        1       0.00000000       0.00182324       0.00256305       0.00617684
C        4.21087404       0.81086549      27.91225475        0       1.00000000      -0.00058400      -0.00414545      -0.02864772
H        4.21081128       0.81030582      25.35837012        0       0.00000000       0.00001438       0.00006829      -0.00556112
