38
Lattice="8.421641763931781 0.0 0.0 4.2108208819658905 7.293355709136913 0.0 0.0 0.0 46.87624170604845" Properties=species:S:1:pos:R:3:tags:I:1:initial_magmoms:R:1:forces:R:3 charge=0 spin=0 energy=-192.90315795620205 free_energy=-192.90315795620205 stress="0.01013739313930273 -9.454718252754901e-08 8.812152785253602e-09 -9.454718252754901e-08 0.010137396864593029 -3.1423172952571576e-09 8.812152785253602e-09 -3.1423172952571576e-09 -0.00024294039758387953" pbc="T T T"
Pt      -0.00000012       0.00000002      19.95723426        4       0.00000000       0.00263933      -0.00339133       0.01718080
Pt       2.80721404      -0.00000018      19.95723442        4       0.00000000      -0.00055199      -0.00342091       0.01649215
Pt       5.61442782      -0.00000007      19.95723448        4       0.00000000      -0.00000013       0.00000417       0.01378968
Pt       1.40360721       2.43111841      19.95723428        4       0.00000000      -0.00000115       0.00000176       0.01530363
Pt       4.21082083       2.43111835      19.95723436        4       0.00000000       0.00161551       0.00398448       0.01717631
Pt       7.01803478       2.43111845      19.95723424        4       0.00000000      -0.00269050       0.00218602       0.01646698
Pt       2.80721407       4.86223728      19.95723400        4       0.00000000       0.00324071       0.00123517       0.01647886
Pt       5.61442803       4.86223733      19.95723419        4       0.00000000      -0.00000154      -0.00000455      -0.01068118
Pt       8.42164139       4.86223726      19.95723434        4       0.00000000      -0.00424937      -0.00059607       0.01717211
Pt       1.40360728       0.81037259      22.29206791        3       0.00000000       0.00152872       0.00308673      -0.05214022
Pt       4.21082130       0.81037249      22.29206784        3       0.00000000       0.00120164      -0.00011550      -0.05100657
Pt       7.01803471       0.81037256      22.29206781        3       0.00000000      -0.00073782      -0.00097569      -0.05102614
Pt       2.80721448       3.24149124      22.29206773        3       0.00000000      -0.00341322      -0.00022556      -0.05213527
Pt       5.61442763       3.24149123      22.29206786        3       0.00000000      -0.00101671       0.00571663      -0.04146723
Pt       8.42164156       3.24149129      22.29206804        3       0.00000000       0.00188116      -0.00286065      -0.05213285
Pt       4.21082092       5.67260997      22.29206793        3       0.00000000       0.00547358      -0.00200759      -0.04146976
Pt       7.01803487       5.67261037      22.29206776        3       0.00000000      -0.00445928      -0.00371101      -0.04144600
Pt       9.82524821       5.67261065      22.29206806        3       0.00000000      -0.00045934       0.00109629      -0.05100180
Pt      -0.00000053       1.62074569      24.58417386        2       0.00000000      -0.00080381       0.00676982       0.03083640
Pt       2.80721443       1.62074549      24.58417398        2       0.00000000      -0.00542411      -0.00397533       0.03085068
Pt       5.61442778       1.62074537      24.58417377        2       0.00000000       0.00110871       0.00104606       0.02894680
Pt       1.40360637       4.05186439      24.58417390        2       0.00000000       0.00622026      -0.00273493       0.03085707
Pt       4.21082088       4.05186403      24.58417379        2       0.00000000       0.00113330       0.00466729       0.00825740
Pt       7.01803504       4.05186408      24.58417406        2       0.00000000      -0.00461321      -0.00139145       0.00821741
Pt       2.80721282       6.48298343      24.58417376        2       0.00000000       0.00032277      -0.00149257       0.02887473
Pt       5.61442796       6.48298325      24.58417391        2       0.00000000       0.00347870      -0.00329271       0.00812921
Pt       8.42164222       6.48298341      24.58417381        2       0.00000000      -0.00142068       0.00041075       0.02885126
Pt       0.01053931       0.00153433      26.91593541        1       0.00000000       0.00312969       0.00213064       0.01327655
Pt       2.79620887      -0.00012502      26.91641504        1       0.00000000      -0.00289428      -0.00007289       0.01199702
Pt       5.61442607       0.00000309      26.90652909        1       0.00000000      -0.00000154      -0.00000504       0.01440684
Pt       1.40360952       2.43111617      26.91690254        1       0.00000000       0.00000651      -0.00001087       0.01366843
Pt       4.20423357       2.43949985      26.91596980        1       0.00000000      -0.00340233       0.00156070       0.01315287
Pt       7.02343791       2.44073405      26.91644753        1       0.00000000       0.00136983       0.00244020       0.01192635
Pt       2.81281354       4.85275022      26.91643164        1       0.00000000       0.00151489      -0.00237761       0.01190098
Pt       5.61442502       4.86223940      26.91456610        1       0.00000000      -0.00000950       0.00001177       0.02314027
Pt       8.41768788       4.85232388      26.91597044        1       0.00000000       0.00028039      -0.00368213       0.01316970
C        5.61441999       0.00000209      29.94595026        0       1.00000000      -0.00002542       0.00001053       0.02501596
H        5.61443744      -0.00000565      28.77175858        0       0.00000000       0.00003022      -0.00001445      -0.04102949
