38
Lattice="8.421641763931781 0.0 0.0 4.2108208819658905 7.293355709136913 0.0 0.0 0.0 46.87624170604845" Properties=species:S:1:pos:R:3:tags:I:1:initial_magmoms:R:1:forces:R:3 charge=0 spin=0 energy=-192.903142697413 free_energy=-192.903142697413 stress="0.01023002527654171 -1.1000325628174323e-07 8.213534741230433e-09 -1.1000325628174323e-07 0.010230014100670815 -3.7378740103122254e-09 8.213534741230433e-09 -3.7378740103122254e-09 -7.248271867865697e-05" pbc="T T T"
Pt      -0.00000012       0.00000002      19.95723426        4       0.00000000      -0.00435792      -0.00080947       0.01718630
Pt       2.80721404      -0.00000018      19.95723442        4       0.00000000       0.00335894       0.00125555       0.01644118
Pt       5.61442782      -0.00000007      19.95723448        4       0.00000000       0.00000038       0.00000331      -0.01059649
Pt       1.40360721       2.43111841      19.95723428        4       0.00000000      -0.00000082       0.00000086       0.01367876
Pt       4.21082083       2.43111835      19.95723436        4       0.00000000       0.00288304      -0.00337422       0.01719993
Pt       7.01803478       2.43111845      19.95723424        4       0.00000000      -0.00060212      -0.00353386       0.01647580
Pt       2.80721407       4.86223728      19.95723400        4       0.00000000      -0.00275815       0.00227883       0.01644304
Pt       5.61442803       4.86223733      19.95723419        4       0.00000000      -0.00000186      -0.00000362       0.01532971
Pt       8.42164139       4.86223726      19.95723434        4       0.00000000       0.00148069       0.00418043       0.01719565
Pt       1.40360728       0.81037259      22.29206791        3       0.00000000      -0.00041244       0.00116059      -0.05310916
Pt       4.21082130       0.81037249      22.29206784        3       0.00000000       0.00479694      -0.00159867      -0.04001226
Pt       7.01803471       0.81037256      22.29206781        3       0.00000000      -0.00376564      -0.00332056      -0.03999357
Pt       2.80721448       3.24149124      22.29206773        3       0.00000000      -0.00082310      -0.00095445      -0.05311507
Pt       5.61442763       3.24149123      22.29206786        3       0.00000000       0.00148234       0.00369144      -0.05281619
Pt       8.42164156       3.24149129      22.29206804        3       0.00000000       0.00122642      -0.00020100      -0.05309584
Pt       4.21082092       5.67260997      22.29206793        3       0.00000000       0.00242660      -0.00311495      -0.05282171
Pt       7.01803487       5.67261037      22.29206776        3       0.00000000      -0.00390858      -0.00057971      -0.05282077
Pt       9.82524821       5.67261065      22.29206806        3       0.00000000      -0.00102454       0.00492031      -0.04000521
Pt      -0.00000053       1.62074569      24.58417386        2       0.00000000      -0.01134634      -0.00626553       0.03709535
Pt       2.80721443       1.62074549      24.58417398        2       0.00000000       0.01109353      -0.00670268       0.03713461
Pt       5.61442778       1.62074537      24.58417377        2       0.00000000       0.00281162      -0.01020445       0.04053474
Pt       1.40360637       4.05186439      24.58417390        2       0.00000000       0.00027120       0.01297573       0.03716161
Pt       4.21082088       4.05186403      24.58417379        2       0.00000000       0.00226680       0.00910877       0.05936531
Pt       7.01803504       4.05186408      24.58417406        2       0.00000000      -0.00901186      -0.00253645       0.05936805
Pt       2.80721282       6.48298343      24.58417376        2       0.00000000      -0.01026753       0.00264196       0.04059191
Pt       5.61442796       6.48298325      24.58417391        2       0.00000000       0.00673221      -0.00656936       0.05938950
Pt       8.42164222       6.48298341      24.58417381        2       0.00000000       0.00745803       0.00754787       0.04062991
Pt      -0.00336065      -0.01083767      26.92150432        1       0.00000000      -0.00437909      -0.00490063      -0.01042160
Pt       2.81419151      -0.00945051      26.92151647        1       0.00000000      -0.00053152      -0.00693787      -0.00977005
Pt       5.61442152      -0.00000076      26.92612212        1       0.00000000       0.00001066       0.00000774      -0.02824759
Pt       1.40360599       2.43112039      26.90124053        1       0.00000000      -0.00000197      -0.00000048       0.03184258
Pt       4.22188269       2.43363914      26.92150397        1       0.00000000       0.00642119      -0.00132986      -0.01041952
Pt       7.00635456       2.42979070      26.92152292        1       0.00000000      -0.00574500       0.00393879      -0.00975792
Pt       2.81191593       4.87301677      26.92152789        1       0.00000000       0.00627073       0.00301040      -0.00974359
Pt       5.61443236       4.86223881      26.92543802        1       0.00000000      -0.00000886      -0.00000715      -0.02469809
Pt       8.41393866       4.87055856      26.92150065        1       0.00000000      -0.00204525       0.00622527      -0.01041948
C        1.40360684       2.43112181      29.93894879        0       1.00000000       0.00000028       0.00000768      -0.00343756
H        1.40360768       2.43111565      28.76323895        0       0.00000000       0.00000075      -0.00001047      -0.00776207
