38
Lattice="8.421641763931781 0.0 0.0 4.2108208819658905 7.293355709136913 0.0 0.0 0.0 46.87624170604845" Properties=species:S:1:pos:R:3:tags:I:1:initial_magmoms:R:1:forces:R:3 charge=0 spin=0 energy=-197.9858434267831 free_energy=-197.9858434267831 stress="0.00743897445499897 0.00013098897761665285 7.995727355591953e-05 0.00013098897761665285 0.007682213559746742 -3.1030154787003994e-05 7.995727355591953e-05 -3.1030154787003994e-05 -0.0006798154790885746" pbc="T T T"
Pt      -0.00000012       0.00000002      19.95723426        4       0.00000000       0.00290924       0.01804488      -0.01336572
Pt       2.80721404      -0.00000018      19.95723442        4       0.00000000       0.00967083      -0.00501377      -0.01007567
Pt       5.61442782      -0.00000007      19.95723448        4       0.00000000      -0.00189034       0.00281964       0.00825142
Pt       1.40360721       2.43111841      19.95723428        4       0.00000000      -0.01570452      -0.00392079      -0.01426080
Pt       4.21082083       2.43111835      19.95723436        4       0.00000000      -0.00304897      -0.00206027       0.02692022
Pt       7.01803478       2.43111845      19.95723424        4       0.00000000       0.01548188      -0.01564243       0.00336466
Pt       2.80721407       4.86223728      19.95723400        4       0.00000000       0.00561949      -0.00304066       0.01830046
Pt       5.61442803       4.86223733      19.95723419        4       0.00000000       0.00305262       0.00486363       0.02787204
Pt       8.42164139       4.86223726      19.95723434        4       0.00000000      -0.00253523      -0.00410383       0.00836039
Pt       1.40360728       0.81037259      22.29206791        3       0.00000000       0.00439688      -0.00591751      -0.26152787
Pt       4.21082130       0.81037249      22.29206784        3       0.00000000      -0.02518872       0.00283818      -0.06718369
Pt       7.01803471       0.81037256      22.29206781        3       0.00000000       0.04483443      -0.00659338      -0.12883553
Pt       2.80721448       3.24149124      22.29206773        3       0.00000000      -0.06153829      -0.04375240      -0.12956171
Pt       5.61442763       3.24149123      22.29206786        3       0.00000000       0.03553920      -0.02242251      -0.01787874
Pt       8.42164156       3.24149129      22.29206804        3       0.00000000       0.01907272      -0.03832909      -0.11887348
Pt       4.21082092       5.67260997      22.29206793        3       0.00000000       0.00863376       0.07705333      -0.13131511
Pt       7.01803487       5.67261037      22.29206776        3       0.00000000      -0.01370312       0.02109328      -0.07163121
Pt       9.82524821       5.67261065      22.29206806        3       0.00000000       0.01090651      -0.00581442      -0.07853380
Pt      -0.00000053       1.62074569      24.58417386        2       0.00000000      -0.11532114       0.07884296       0.19807251
Pt       2.80721443       1.62074549      24.58417398        2       0.00000000       0.21025158       0.11998812       0.28588113
Pt       5.61442778       1.62074537      24.58417377        2       0.00000000      -0.05756313       0.14399049       0.23808089
Pt       1.40360637       4.05186439      24.58417390        2       0.00000000       0.01998106       0.00556452       0.00294182
Pt       4.21082088       4.05186403      24.58417379        2       0.00000000       0.13500680      -0.08406824      -0.17414206
Pt       7.01803504       4.05186408      24.58417406        2       0.00000000      -0.13469134      -0.02092030       0.23342298
Pt       2.80721282       6.48298343      24.58417376        2       0.00000000      -0.00368098      -0.00749941       0.00162162
Pt       5.61442796       6.48298325      24.58417391        2       0.00000000      -0.00849057      -0.23012604       0.28640372
Pt       8.42164222       6.48298341      24.58417381        2       0.00000000      -0.03265295       0.01703806      -0.08715966
Pt      -0.00199043      -0.00737388      26.90587657        1       0.00000000      -0.00389492       0.01391219      -0.00187745
Pt       2.78960957       0.00992847      26.89457192        1       0.00000000       0.02123719      -0.00529800       0.00464566
Pt       5.59514862      -0.00439525      26.89574764        1       0.00000000      -0.00409189       0.01686203       0.00182051
Pt       1.41220606       2.43704662      26.90483745        1       0.00000000      -0.02976937      -0.01178495      -0.00731334
Pt       4.10954989       2.34259097      27.26596174        1       0.00000000       0.02179581      -0.01177610       0.00090975
Pt       7.13191028       2.36725279      27.03491247        1       0.00000000      -0.00342227       0.00275563      -0.01607353
Pt       2.70261829       4.92575639      27.01450892        1       0.00000000       0.00553641       0.01043600       0.00127646
Pt       5.64643924       4.98806602      27.23595240        1       0.00000000       0.00824441       0.01286318      -0.01537010
Pt       8.42506850       4.88328033      26.89584327        1       0.00000000      -0.02027604      -0.00932032      -0.00584531
C        5.69154144       3.20011521      27.94556552        0       1.00000000      -0.02279194      -0.01330597      -0.00060899
H        4.13147905       4.07471107      26.33009916        0       0.00000000      -0.02191523       0.00174455       0.00328744
