38
Lattice="8.421641763931781 0.0 0.0 4.2108208819658905 7.293355709136913 0.0 0.0 0.0 46.87624170604845" Properties=species:S:1:pos:R:3:tags:I:1:initial_magmoms:R:1:forces:R:3 charge=0 spin=0 energy=-192.90315795620205 free_energy=-192.90315795620205 stress="0.010137403383851051 -9.186434368757546e-08 5.271040937060434e-09 -9.186434368757546e-08 0.010137410834431648 8.658862959975977e-09 5.271040937060434e-09 8.658862959975977e-09 -0.0002429434534860775" pbc="T T T"
Pt      -0.00000012       0.00000002      19.95723426        4       0.00000000       0.00000200      -0.00000056       0.01379812
Pt       2.80721404      -0.00000018      19.95723442        4       0.00000000       0.00263537      -0.00338787       0.01717171
Pt       5.61442782      -0.00000007      19.95723448        4       0.00000000      -0.00055008      -0.00342027       0.01649236
Pt       1.40360721       2.43111841      19.95723428        4       0.00000000      -0.00268990       0.00218604       0.01646762
Pt       4.21082083       2.43111835      19.95723436        4       0.00000000       0.00000188       0.00000287       0.01530337
Pt       7.01803478       2.43111845      19.95723424        4       0.00000000       0.00161208       0.00398356       0.01717578
Pt       2.80721407       4.86223728      19.95723400        4       0.00000000      -0.00424931      -0.00059524       0.01717306
Pt       5.61442803       4.86223733      19.95723419        4       0.00000000       0.00323731       0.00123513       0.01647786
Pt       8.42164139       4.86223726      19.95723434        4       0.00000000       0.00000197      -0.00000570      -0.01068131
Pt       1.40360728       0.81037259      22.29206791        3       0.00000000      -0.00074262      -0.00097577      -0.05102628
Pt       4.21082130       0.81037249      22.29206784        3       0.00000000       0.00152992       0.00309095      -0.05214100
Pt       7.01803471       0.81037256      22.29206781        3       0.00000000       0.00120442      -0.00011904      -0.05100773
Pt       2.80721448       3.24149124      22.29206773        3       0.00000000       0.00187093      -0.00285935      -0.05213076
Pt       5.61442763       3.24149123      22.29206786        3       0.00000000      -0.00340367      -0.00022704      -0.05213663
Pt       8.42164156       3.24149129      22.29206804        3       0.00000000      -0.00101581       0.00571704      -0.04146770
Pt       4.21082092       5.67260997      22.29206793        3       0.00000000      -0.00046842       0.00111016      -0.05100214
Pt       7.01803487       5.67261037      22.29206776        3       0.00000000       0.00547272      -0.00201553      -0.04146747
Pt       9.82524821       5.67261065      22.29206806        3       0.00000000      -0.00445008      -0.00371537      -0.04144680
Pt      -0.00000053       1.62074569      24.58417386        2       0.00000000       0.00110984       0.00104289       0.02894081
Pt       2.80721443       1.62074549      24.58417398        2       0.00000000      -0.00081098       0.00677421       0.03084110
Pt       5.61442778       1.62074537      24.58417377        2       0.00000000      -0.00541808      -0.00397451       0.03085547
Pt       1.40360637       4.05186439      24.58417390        2       0.00000000      -0.00460295      -0.00139518       0.00822152
Pt       4.21082088       4.05186403      24.58417379        2       0.00000000       0.00621254      -0.00272919       0.03086614
Pt       7.01803504       4.05186408      24.58417406        2       0.00000000       0.00113101       0.00466733       0.00825999
Pt       2.80721282       6.48298343      24.58417376        2       0.00000000      -0.00140527       0.00040587       0.02884670
Pt       5.61442796       6.48298325      24.58417391        2       0.00000000       0.00031213      -0.00149061       0.02886817
Pt       8.42164222       6.48298341      24.58417381        2       0.00000000       0.00347578      -0.00329658       0.00813893
Pt      -0.00000166       0.00000216      26.90652521        1       0.00000000      -0.00000236      -0.00000976       0.01441763
Pt       2.81775332       0.00153397      26.91593628        1       0.00000000       0.00313511       0.00213061       0.01327742
Pt       5.60342301      -0.00012530      26.91641580        1       0.00000000      -0.00290048      -0.00007541       0.01199043
Pt       1.40900994       2.44073353      26.91644755        1       0.00000000       0.00137483       0.00244623       0.01192306
Pt       4.21082341       2.43111582      26.91690356        1       0.00000000       0.00000478      -0.00001174       0.01366116
Pt       7.01144748       2.43949908      26.91596982        1       0.00000000      -0.00340412       0.00156404       0.01315117
Pt       2.80326061       4.85232356      26.91597118        1       0.00000000       0.00027475      -0.00368388       0.01316241
Pt       5.62002755       4.85275019      26.91643208        1       0.00000000       0.00151578      -0.00238155       0.01190385
Pt       8.42163867       4.86223927      26.91456746        1       0.00000000      -0.00000310       0.00001015       0.02313225
C       -0.00000456      -0.00000854      29.94594392        0       1.00000000      -0.00001525      -0.00002297       0.02505184
H        0.00000545       0.00000911      28.77175603        0       0.00000000       0.00001768       0.00002584      -0.04106244
