38
Lattice="8.421641763931781 0.0 0.0 4.2108208819658905 7.293355709136913 0.0 0.0 0.0 46.87624170604845" Properties=species:S:1:pos:R:3:tags:I:1:initial_magmoms:R:1:forces:R:3 charge=0 spin=0 energy=-197.50844550808193 free_energy=-197.50844550808193 stress="0.009107006713747978 -3.428700381391536e-07 8.464205336622399e-08 -3.428700381391536e-07 0.009108064696192741 5.601123120868579e-07 8.464205336622399e-08 5.601123120868579e-07 -0.0007797147263772786" pbc="T T T"
Pt      -0.00000012       0.00000002      19.95723426        4       0.00000000       0.00553713       0.00276004       0.02237810
Pt       2.80721404      -0.00000018      19.95723442        4       0.00000000       0.00272376       0.02447718      -0.03709750
Pt       5.61442782      -0.00000007      19.95723448        4       0.00000000      -0.00520492       0.00341645       0.02252441
Pt       1.40360721       2.43111841      19.95723428        4       0.00000000       0.01979371      -0.01459327      -0.03709428
Pt       4.21082083       2.43111835      19.95723436        4       0.00000000      -0.02247062      -0.00981790      -0.03681116
Pt       7.01803478       2.43111845      19.95723424        4       0.00000000      -0.00104787       0.00932553       0.01956337
Pt       2.80721407       4.86223728      19.95723400        4       0.00000000      -0.00033498      -0.00618543       0.02228925
Pt       5.61442803       4.86223733      19.95723419        4       0.00000000       0.00861133      -0.00379171       0.01937145
Pt       8.42164139       4.86223726      19.95723434        4       0.00000000      -0.00756875      -0.00554137       0.01934041
Pt       1.40360728       0.81037259      22.29206791        3       0.00000000       0.04259270       0.02394881      -0.19425933
Pt       4.21082130       0.81037249      22.29206784        3       0.00000000      -0.04217150       0.02481300      -0.19412343
Pt       7.01803471       0.81037256      22.29206781        3       0.00000000      -0.00527003       0.02496111      -0.01836443
Pt       2.80721448       3.24149124      22.29206773        3       0.00000000      -0.00045659      -0.04877024      -0.19441922
Pt       5.61442763       3.24149123      22.29206786        3       0.00000000      -0.08860322      -0.05071473      -0.15094025
Pt       8.42164156       3.24149129      22.29206804        3       0.00000000       0.08833212      -0.05135307      -0.15098438
Pt       4.21082092       5.67260997      22.29206793        3       0.00000000       0.02431003      -0.00792136      -0.01890290
Pt       7.01803487       5.67261037      22.29206776        3       0.00000000       0.00029183       0.10214026      -0.15129276
Pt       9.82524821       5.67261065      22.29206806        3       0.00000000      -0.01905838      -0.01709539      -0.01881464
Pt      -0.00000053       1.62074569      24.58417386        2       0.00000000      -0.20563489       0.14755513       0.33018744
Pt       2.80721443       1.62074549      24.58417398        2       0.00000000      -0.00002887      -0.00007108      -0.22959331
Pt       5.61442778       1.62074537      24.58417377        2       0.00000000       0.20729879       0.14187904       0.33086333
Pt       1.40360637       4.05186439      24.58417390        2       0.00000000      -0.22664499       0.10879059       0.33175546
Pt       4.21082088       4.05186403      24.58417379        2       0.00000000       0.23038559       0.10479841       0.33042818
Pt       7.01803504       4.05186408      24.58417406        2       0.00000000       0.00051465       0.00057171      -0.64363742
Pt       2.80721282       6.48298343      24.58417376        2       0.00000000      -0.00004010       0.00004720       0.02966803
Pt       5.61442796       6.48298325      24.58417391        2       0.00000000       0.01937202      -0.25070933       0.33147848
Pt       8.42164222       6.48298341      24.58417381        2       0.00000000      -0.02473696      -0.25230974       0.33129090
Pt       0.00488128       0.00504459      26.90764053        1       0.00000000      -0.00617701      -0.01004076      -0.01770790
Pt       2.80844042       0.02687919      26.90393319        1       0.00000000      -0.00069479      -0.01355614      -0.00520817
Pt       5.60778093       0.00189522      26.90767740        1       0.00000000       0.01159581      -0.00117382      -0.01784268
Pt       1.42634079       2.41673288      26.90385089        1       0.00000000      -0.01158129       0.00754737      -0.00502619
Pt       4.18699251       2.41880843      26.90377612        1       0.00000000       0.01222361       0.00600658      -0.00470970
Pt       7.01385493       2.32704734      27.29438698        1       0.00000000      -0.00008670       0.00440630       0.00018227
Pt       2.80931072       4.85557848      26.90764663        1       0.00000000      -0.00643694       0.01075566      -0.01780020
Pt       5.52642421       4.91809901      27.29443181        1       0.00000000       0.00277538      -0.00085811      -0.00057913
Pt       8.51406491       4.91076790      27.29449116        1       0.00000000      -0.00088878      -0.00113554      -0.00153464
C        7.01822207       4.05215287      28.18088431        0       1.00000000      -0.00029123      -0.00125977      -0.01798163
H        7.01712368       4.05066947      26.17529805        0       0.00000000      -0.00092927      -0.00130152       0.02340383
