38
Lattice="8.421641763931781 0.0 0.0 4.2108208819658905 7.293355709136913 0.0 0.0 0.0 46.87624170604845" Properties=species:S:1:pos:R:3:tags:I:1:initial_magmoms:R:1:forces:R:3 charge=0 spin=0 energy=-192.90314651211025 free_energy=-192.90314651211025 stress="0.010230031795799732 -1.1300237190425833e-07 1.1150896206402194e-08 -1.1300237190425833e-07 0.010230019688606262 -8.084310998413002e-09 1.1150896206402194e-08 -8.084310998413002e-09 -7.245281449286267e-05" pbc="T T T"
Pt      -0.00000012       0.00000002      19.95723426        4       0.00000000       0.00000212      -0.00000116       0.01367753
Pt       2.80721404      -0.00000018      19.95723442        4       0.00000000       0.00287909      -0.00337341       0.01719033
Pt       5.61442782      -0.00000007      19.95723448        4       0.00000000      -0.00060113      -0.00353148       0.01646696
Pt       1.40360721       2.43111841      19.95723428        4       0.00000000      -0.00276016       0.00228348       0.01644336
Pt       4.21082083       2.43111835      19.95723436        4       0.00000000       0.00000245       0.00000188       0.01533079
Pt       7.01803478       2.43111845      19.95723424        4       0.00000000       0.00147791       0.00418611       0.01719637
Pt       2.80721407       4.86223728      19.95723400        4       0.00000000      -0.00435876      -0.00081213       0.01718751
Pt       5.61442803       4.86223733      19.95723419        4       0.00000000       0.00335872       0.00124950       0.01645023
Pt       8.42164139       4.86223726      19.95723434        4       0.00000000       0.00000206      -0.00000458      -0.01058808
Pt       1.40360728       0.81037259      22.29206791        3       0.00000000      -0.00081925      -0.00095304      -0.05311287
Pt       4.21082130       0.81037249      22.29206784        3       0.00000000       0.00147846       0.00369843      -0.05281213
Pt       7.01803471       0.81037256      22.29206781        3       0.00000000       0.00122391      -0.00019859      -0.05309324
Pt       2.80721448       3.24149124      22.29206773        3       0.00000000       0.00242161      -0.00311572      -0.05282250
Pt       5.61442763       3.24149123      22.29206786        3       0.00000000      -0.00390303      -0.00057375      -0.05282574
Pt       8.42164156       3.24149129      22.29206804        3       0.00000000      -0.00102744       0.00493260      -0.04000808
Pt       4.21082092       5.67260997      22.29206793        3       0.00000000      -0.00041153       0.00115938      -0.05310978
Pt       7.01803487       5.67261037      22.29206776        3       0.00000000       0.00479559      -0.00161245      -0.04001095
Pt       9.82524821       5.67261065      22.29206806        3       0.00000000      -0.00375998      -0.00333573      -0.03999425
Pt      -0.00000053       1.62074569      24.58417386        2       0.00000000       0.00026895       0.01297861       0.03716511
Pt       2.80721443       1.62074549      24.58417398        2       0.00000000       0.00226284       0.00910669       0.05936820
Pt       5.61442778       1.62074537      24.58417377        2       0.00000000      -0.00900872      -0.00253560       0.05937387
Pt       1.40360637       4.05186439      24.58417390        2       0.00000000      -0.01027330       0.00264575       0.04058902
Pt       4.21082088       4.05186403      24.58417379        2       0.00000000       0.00673596      -0.00656439       0.05939313
Pt       7.01803504       4.05186408      24.58417406        2       0.00000000       0.00746348       0.00755657       0.04062879
Pt       2.80721282       6.48298343      24.58417376        2       0.00000000      -0.01133994      -0.00627118       0.03709698
Pt       5.61442796       6.48298325      24.58417391        2       0.00000000       0.01109783      -0.00670724       0.03713772
Pt       8.42164222       6.48298341      24.58417381        2       0.00000000       0.00280082      -0.01021251       0.04054388
Pt      -0.00000119       0.00000204      26.90124191        1       0.00000000      -0.00000057      -0.00000147       0.03183564
Pt       2.81827543       0.00252091      26.92150434        1       0.00000000       0.00642563      -0.00133340      -0.01042889
Pt       5.60274745      -0.00132743      26.92152434        1       0.00000000      -0.00574910       0.00393851      -0.00976359
Pt       1.40830911       2.44189811      26.92152855        1       0.00000000       0.00626899       0.00301122      -0.00974353
Pt       4.21082519       2.43112024      26.92543993        1       0.00000000      -0.00000461      -0.00000713      -0.02470591
Pt       7.01033150       2.43943956      26.92150124        1       0.00000000      -0.00204716       0.00622886      -0.01042033
Pt       2.80385361       4.85139962      26.92150489        1       0.00000000      -0.00437930      -0.00490052      -0.01042151
Pt       5.62140518       4.85278675      26.92151690        1       0.00000000      -0.00052892      -0.00693887      -0.00977277
Pt       8.42163549       4.86223644      26.92612240        1       0.00000000       0.00000554       0.00000864      -0.02825172
C       -0.00000090       0.00000387      29.93894785        0       1.00000000      -0.00000466       0.00001125      -0.00346547
H        0.00000231      -0.00000429      28.76323498        0       0.00000000       0.00000543      -0.00001303      -0.00772394
