38
Lattice="8.421641763931781 0.0 0.0 4.2108208819658905 7.293355709136913 0.0 0.0 0.0 46.87624170604845" Properties=species:S:1:pos:R:3:tags:I:1:initial_magmoms:R:1:forces:R:3 charge=0 spin=0 energy=-192.90323234279873 free_energy=-192.90323234279873 stress="0.010190236382186413 -1.1899138030457834e-07 6.988872769397858e-08 -1.1899138030457834e-07 0.01019018329679966 -1.1426654111801327e-07 6.988872769397858e-08 -1.1426654111801327e-07 -0.0001290036889258772" pbc="T T T"
Pt      -0.00000012       0.00000002      19.95723426        4       0.00000000       0.00274447      -0.00335139       0.01719442
Pt       2.80721404      -0.00000018      19.95723442        4       0.00000000      -0.00055094      -0.00343861       0.01646501
Pt       5.61442782      -0.00000007      19.95723448        4       0.00000000       0.00000044       0.00000320       0.01357842
Pt       1.40360721       2.43111841      19.95723428        4       0.00000000      -0.00000075       0.00000019       0.01530267
Pt       4.21082083       2.43111835      19.95723436        4       0.00000000       0.00152956       0.00405454       0.01719332
Pt       7.01803478       2.43111845      19.95723424        4       0.00000000      -0.00270632       0.00219387       0.01644294
Pt       2.80721407       4.86223728      19.95723400        4       0.00000000       0.00325590       0.00124680       0.01645125
Pt       5.61442803       4.86223733      19.95723419        4       0.00000000      -0.00000045      -0.00000527      -0.01063076
Pt       8.42164139       4.86223726      19.95723434        4       0.00000000      -0.00426847      -0.00070673       0.01718367
Pt       1.40360728       0.81037259      22.29206791        3       0.00000000       0.00145000       0.00349586      -0.05266905
Pt       4.21082130       0.81037249      22.29206784        3       0.00000000       0.00109799      -0.00013959      -0.05217637
Pt       7.01803471       0.81037256      22.29206781        3       0.00000000      -0.00070210      -0.00087653      -0.05219545
Pt       2.80721448       3.24149124      22.29206773        3       0.00000000      -0.00372908      -0.00050293      -0.05267703
Pt       5.61442763       3.24149123      22.29206786        3       0.00000000      -0.00098822       0.00526829      -0.04063770
Pt       8.42164156       3.24149129      22.29206804        3       0.00000000       0.00227850      -0.00299768      -0.05267439
Pt       4.21082092       5.67260997      22.29206793        3       0.00000000       0.00506935      -0.00180997      -0.04064639
Pt       7.01803487       5.67261037      22.29206776        3       0.00000000      -0.00408147      -0.00346551      -0.04062241
Pt       9.82524821       5.67261065      22.29206806        3       0.00000000      -0.00038898       0.00100737      -0.05218958
Pt      -0.00000053       1.62074569      24.58417386        2       0.00000000       0.00062134       0.00761217       0.04777678
Pt       2.80721443       1.62074549      24.58417398        2       0.00000000      -0.00687839      -0.00318928       0.04779133
Pt       5.61442778       1.62074537      24.58417377        2       0.00000000       0.00056908       0.01117935       0.02810937
Pt       1.40360637       4.05186439      24.58417390        2       0.00000000       0.00623380      -0.00438963       0.04778270
Pt       4.21082088       4.05186403      24.58417379        2       0.00000000       0.00456714       0.00632092       0.03070033
Pt       7.01803504       4.05186408      24.58417406        2       0.00000000      -0.00777079       0.00073548       0.03067245
Pt       2.80721282       6.48298343      24.58417376        2       0.00000000       0.00935112      -0.00604096       0.02808916
Pt       5.61442796       6.48298325      24.58417391        2       0.00000000       0.00320878      -0.00707654       0.03061356
Pt       8.42164222       6.48298341      24.58417381        2       0.00000000      -0.00992993      -0.00509575       0.02804910
Pt       0.00983625       0.00177098      26.91955090        1       0.00000000       0.01443345       0.00132610      -0.00228740
Pt       2.79695479      -0.00069004      26.91969414        1       0.00000000      -0.01444588       0.00175734      -0.00208895
Pt       5.61441604       0.00001813      26.90105053        1       0.00000000      -0.00001872       0.00003576       0.04242900
Pt       1.40360716       2.43112531      26.92090398        1       0.00000000      -0.00000941       0.00000111      -0.00564057
Pt       4.20437805       2.43877084      26.91955877        1       0.00000000      -0.00834194       0.01183588      -0.00226511
Pt       7.02256667       2.44035504      26.91970618        1       0.00000000       0.00872767       0.01163165      -0.00208939
Pt       2.81292730       4.85371295      26.91968153        1       0.00000000       0.00569714      -0.01338054      -0.00212563
Pt       5.61441973       4.86224388      26.92174260        1       0.00000000      -0.00000051       0.00000926      -0.01017862
Pt       8.41823483       4.85283904      26.91955937        1       0.00000000      -0.00608660      -0.01314727      -0.00230608
C        5.61435227       0.00012307      29.94205707        0       1.00000000      -0.00028358       0.00044891      -0.03605927
H        5.61457135      -0.00022419      28.76468935        0       0.00000000       0.00034695      -0.00054996       0.02033472
