38
Lattice="8.421641763931781 0.0 0.0 4.2108208819658905 7.293355709136913 0.0 0.0 0.0 46.87624170604845" Properties=species:S:1:pos:R:3:tags:I:1:initial_magmoms:R:1:forces:R:3 charge=0 spin=0 energy=-197.9857900210214 free_energy=-197.9857900210214 stress="0.0077341338619589806 3.318144445074722e-05 -1.7635602489463054e-05 3.318144445074722e-05 0.007408713921904564 8.30660792416893e-05 -1.7635602489463054e-05 8.30660792416893e-05 -0.0006748544401489198" pbc="T T T"
Pt      -0.00000012       0.00000002      19.95723426        4       0.00000000       0.01137810      -0.01160918      -0.01432411
Pt       2.80721404      -0.00000018      19.95723442        4       0.00000000      -0.01717887      -0.00640634      -0.01327488
Pt       5.61442782      -0.00000007      19.95723448        4       0.00000000      -0.00020276       0.00632718       0.01842705
Pt       1.40360721       2.43111841      19.95723428        4       0.00000000      -0.00049915       0.01104456      -0.01039134
Pt       4.21082083       2.43111835      19.95723436        4       0.00000000      -0.00573421       0.00025460       0.02792528
Pt       7.01803478       2.43111845      19.95723424        4       0.00000000       0.00329617      -0.00157051       0.02673644
Pt       2.80721407       4.86223728      19.95723400        4       0.00000000       0.00498382      -0.00007156       0.00850345
Pt       5.61442803       4.86223733      19.95723419        4       0.00000000       0.00578713       0.02101704       0.00340737
Pt       8.42164139       4.86223726      19.95723434        4       0.00000000      -0.00162640      -0.00299076       0.00833318
Pt       1.40360728       0.81037259      22.29206791        3       0.00000000       0.00274096       0.00693972      -0.26225647
Pt       4.21082130       0.81037249      22.29206784        3       0.00000000      -0.07110725      -0.03123845      -0.13121796
Pt       7.01803471       0.81037256      22.29206781        3       0.00000000       0.06906624      -0.03167848      -0.12988569
Pt       2.80721448       3.24149124      22.29206773        3       0.00000000      -0.01140204      -0.02242343      -0.07168695
Pt       5.61442763       3.24149123      22.29206786        3       0.00000000       0.00173740       0.04150586      -0.01725558
Pt       8.42164156       3.24149129      22.29206804        3       0.00000000       0.01023475      -0.02336193      -0.06742968
Pt       4.21082092       5.67260997      22.29206793        3       0.00000000       0.02363460       0.03617004      -0.11891579
Pt       7.01803487       5.67261037      22.29206776        3       0.00000000      -0.01683743       0.04230073      -0.12892927
Pt       9.82524821       5.67261065      22.29206806        3       0.00000000      -0.00046538       0.01235642      -0.07832861
Pt      -0.00000053       1.62074569      24.58417386        2       0.00000000      -0.20965010       0.12114394       0.28835994
Pt       2.80721443       1.62074549      24.58417398        2       0.00000000       0.20446186       0.10723338       0.29036883
Pt       5.61442778       1.62074537      24.58417377        2       0.00000000       0.00515600       0.15957861      -0.16804232
Pt       1.40360637       4.05186439      24.58417390        2       0.00000000       0.00170454      -0.03674214      -0.08912427
Pt       4.21082088       4.05186403      24.58417379        2       0.00000000       0.08466846      -0.10806593       0.23356150
Pt       7.01803504       4.05186408      24.58417406        2       0.00000000      -0.09559660      -0.12357894       0.23855345
Pt       2.80721282       6.48298343      24.58417376        2       0.00000000      -0.01457118       0.01560879       0.00312310
Pt       5.61442796       6.48298325      24.58417391        2       0.00000000      -0.01076844      -0.14041577       0.19633327
Pt       8.42164222       6.48298341      24.58417381        2       0.00000000       0.00824858       0.00188532       0.00143024
Pt      -0.00779986       0.00285558      26.90542279        1       0.00000000       0.01993817      -0.01323248      -0.00850685
Pt       2.81314667      -0.00001991      26.90618786        1       0.00000000      -0.00470391      -0.00087624      -0.00274825
Pt       5.61188830      -0.12041814      27.01388930        1       0.00000000      -0.01202920      -0.00391250       0.00103611
Pt       1.40367072       2.41256103      26.89411614        1       0.00000000      -0.00419832       0.01415662       0.00369732
Pt       4.08493073       2.39624265      27.23941580        1       0.00000000      -0.03146264      -0.01778925      -0.02525725
Pt       7.14667848       2.38708257      27.26823835        1       0.00000000      -0.01102008       0.02529693       0.00105320
Pt       2.78673446       4.85503950      26.89570975        1       0.00000000       0.01843121      -0.01157774      -0.00543814
Pt       5.61260982       4.98923163      27.03365109        1       0.00000000       0.00121765       0.00940046      -0.01637373
Pt       8.43536275       4.84855346      26.89523373        1       0.00000000      -0.01306877      -0.01277445       0.00330122
C        5.61076971       3.32704217      27.94697336        0       1.00000000       0.04555188      -0.01167020       0.00538268
H        5.63299816       1.54298461      26.33083851        0       0.00000000       0.00988508      -0.02023360      -0.00014662
