38
Lattice="8.421641763931781 0.0 0.0 4.2108208819658905 7.293355709136913 0.0 0.0 0.0 46.87624170604845" Properties=species:S:1:pos:R:3:tags:I:1:initial_magmoms:R:1:forces:R:3 charge=0 spin=0 energy=-192.90314460476162 free_energy=-192.90314460476162 stress="0.010230020619928837 -1.1132093646892827e-07 1.1456166681966806e-08 -1.1132093646892827e-07 0.01023001316934824 -6.0236016174997076e-09 1.1456166681966806e-08 -6.0236016174997076e-09 -7.247988105518743e-05" pbc="T T T"
Pt      -0.00000012       0.00000002      19.95723426        4       0.00000000       0.00000211      -0.00000109       0.01367746
Pt       2.80721404      -0.00000018      19.95723442        4       0.00000000       0.00287892      -0.00337347       0.01719013
Pt       5.61442782      -0.00000007      19.95723448        4       0.00000000      -0.00060097      -0.00353146       0.01646685
Pt       1.40360721       2.43111841      19.95723428        4       0.00000000      -0.00276023       0.00228338       0.01644330
Pt       4.21082083       2.43111835      19.95723436        4       0.00000000       0.00000250       0.00000184       0.01533068
Pt       7.01803478       2.43111845      19.95723424        4       0.00000000       0.00147793       0.00418592       0.01719595
Pt       2.80721407       4.86223728      19.95723400        4       0.00000000      -0.00435848      -0.00081213       0.01718729
Pt       5.61442803       4.86223733      19.95723419        4       0.00000000       0.00335872       0.00124957       0.01645015
Pt       8.42164139       4.86223726      19.95723434        4       0.00000000       0.00000206      -0.00000466      -0.01058805
Pt       1.40360728       0.81037259      22.29206791        3       0.00000000      -0.00081931      -0.00095311      -0.05311273
Pt       4.21082130       0.81037249      22.29206784        3       0.00000000       0.00147827       0.00369827      -0.05281259
Pt       7.01803471       0.81037256      22.29206781        3       0.00000000       0.00122428      -0.00019869      -0.05309330
Pt       2.80721448       3.24149124      22.29206773        3       0.00000000       0.00242162      -0.00311557      -0.05282293
Pt       5.61442763       3.24149123      22.29206786        3       0.00000000      -0.00390336      -0.00057357      -0.05282582
Pt       8.42164156       3.24149129      22.29206804        3       0.00000000      -0.00102744       0.00493237      -0.04000768
Pt       4.21082092       5.67260997      22.29206793        3       0.00000000      -0.00041128       0.00115945      -0.05310978
Pt       7.01803487       5.67261037      22.29206776        3       0.00000000       0.00479555      -0.00161241      -0.04001125
Pt       9.82524821       5.67261065      22.29206806        3       0.00000000      -0.00376044      -0.00333542      -0.03999445
Pt      -0.00000053       1.62074569      24.58417386        2       0.00000000       0.00026818       0.01297888       0.03716438
Pt       2.80721443       1.62074549      24.58417398        2       0.00000000       0.00226115       0.00910760       0.05936316
Pt       5.61442778       1.62074537      24.58417377        2       0.00000000      -0.00900639      -0.00253624       0.05937129
Pt       1.40360637       4.05186439      24.58417390        2       0.00000000      -0.01027173       0.00264490       0.04058470
Pt       4.21082088       4.05186403      24.58417379        2       0.00000000       0.00673578      -0.00656231       0.05939022
Pt       7.01803504       4.05186408      24.58417406        2       0.00000000       0.00746206       0.00755540       0.04062646
Pt       2.80721282       6.48298343      24.58417376        2       0.00000000      -0.01133961      -0.00627101       0.03709727
Pt       5.61442796       6.48298325      24.58417391        2       0.00000000       0.01109592      -0.00670807       0.03713425
Pt       8.42164222       6.48298341      24.58417381        2       0.00000000       0.00280256      -0.01021167       0.04053855
Pt      -0.00000123       0.00000207      26.90124188        1       0.00000000      -0.00000102      -0.00000156       0.03184337
Pt       2.81827554       0.00252077      26.92150373        1       0.00000000       0.00642342      -0.00133229      -0.01041984
Pt       5.60274744      -0.00132740      26.92152390        1       0.00000000      -0.00574655       0.00393914      -0.00976316
Pt       1.40830908       2.44189824      26.92152815        1       0.00000000       0.00626767       0.00300853      -0.00974336
Pt       4.21082537       2.43112021      26.92543872        1       0.00000000      -0.00000711      -0.00000571      -0.02469516
Pt       7.01033149       2.43943983      26.92150074        1       0.00000000      -0.00204661       0.00622735      -0.01042005
Pt       2.80385337       4.85139951      26.92150448        1       0.00000000      -0.00437546      -0.00489891      -0.01042105
Pt       5.62140529       4.85278652      26.92151630        1       0.00000000      -0.00052978      -0.00693874      -0.00977249
Pt       8.42163559       4.86223644      26.92612132        1       0.00000000       0.00000620       0.00000788      -0.02824197
C       -0.00000126       0.00000389      29.93894865        0       1.00000000      -0.00000583       0.00001143      -0.00343841
H        0.00000253      -0.00000446      28.76323876        0       0.00000000       0.00000667      -0.00001379      -0.00776164
