38
Lattice="8.421641763931781 0.0 0.0 4.2108208819658905 7.293355709136913 0.0 0.0 0.0 46.87624170604845" Properties=species:S:1:pos:R:3:tags:I:1:initial_magmoms:R:1:forces:R:3 charge=0 spin=0 energy=-197.50847984035732 free_energy=-197.50847984035732 stress="0.009098650887608528 -1.5418302723446686e-07 -8.61351079350925e-09 -1.5418302723446686e-07 0.009098609909415245 7.422615055929782e-08 -8.61351079350925e-09 7.422615055929782e-08 -0.000791154510807246" pbc="T T T"
Pt      -0.00000012       0.00000002      19.95723426        4       0.00000000       0.01975920      -0.01461662      -0.03709742
Pt       2.80721404      -0.00000018      19.95723442        4       0.00000000      -0.02252585      -0.00979999      -0.03688955
Pt       5.61442782      -0.00000007      19.95723448        4       0.00000000      -0.00099568       0.00930076       0.01955024
Pt       1.40360721       2.43111841      19.95723428        4       0.00000000      -0.00026156      -0.00617855       0.02226724
Pt       4.21082083       2.43111835      19.95723436        4       0.00000000       0.00856429      -0.00382143       0.01936710
Pt       7.01803478       2.43111845      19.95723424        4       0.00000000      -0.00756975      -0.00547144       0.01931150
Pt       2.80721407       4.86223728      19.95723400        4       0.00000000       0.00549085       0.00281626       0.02235210
Pt       5.61442803       4.86223733      19.95723419        4       0.00000000       0.00276654       0.02441661      -0.03705308
Pt       8.42164139       4.86223726      19.95723434        4       0.00000000      -0.00522721       0.00335675       0.02250585
Pt       1.40360728       0.81037259      22.29206791        3       0.00000000      -0.00040331      -0.04899580      -0.19458258
Pt       4.21082130       0.81037249      22.29206784        3       0.00000000      -0.08869644      -0.05080282      -0.15105699
Pt       7.01803471       0.81037256      22.29206781        3       0.00000000       0.08843958      -0.05135050      -0.15111572
Pt       2.80721448       3.24149124      22.29206773        3       0.00000000       0.02444441      -0.00784802      -0.01864456
Pt       5.61442763       3.24149123      22.29206786        3       0.00000000       0.00025214       0.10217521      -0.15140313
Pt       8.42164156       3.24149129      22.29206804        3       0.00000000      -0.01906153      -0.01720785      -0.01857801
Pt       4.21082092       5.67260997      22.29206793        3       0.00000000       0.04278310       0.02411789      -0.19442944
Pt       7.01803487       5.67261037      22.29206776        3       0.00000000      -0.04238617       0.02487849      -0.19429493
Pt       9.82524821       5.67261065      22.29206806        3       0.00000000      -0.00537567       0.02504262      -0.01807144
Pt      -0.00000053       1.62074569      24.58417386        2       0.00000000      -0.22792262       0.10952698       0.32902423
Pt       2.80721443       1.62074549      24.58417398        2       0.00000000       0.23081861       0.10525997       0.33137992
Pt       5.61442778       1.62074537      24.58417377        2       0.00000000       0.00004197       0.00004180      -0.64007932
Pt       1.40360637       4.05186439      24.58417390        2       0.00000000       0.00000355       0.00003737       0.02687537
Pt       4.21082088       4.05186403      24.58417379        2       0.00000000       0.01913578      -0.25230393       0.32897338
Pt       7.01803504       4.05186408      24.58417406        2       0.00000000      -0.02442842      -0.25275400       0.33159906
Pt       2.80721282       6.48298343      24.58417376        2       0.00000000      -0.20640469       0.14749825       0.33099836
Pt       5.61442796       6.48298325      24.58417391        2       0.00000000      -0.00000666      -0.00004019      -0.23464105
Pt       8.42164222       6.48298341      24.58417381        2       0.00000000       0.20878929       0.14276862       0.32872513
Pt       0.02352960      -0.01344663      26.90275471        1       0.00000000      -0.01673234       0.00445589      -0.00138044
Pt       2.78380548      -0.01364909      26.90274101        1       0.00000000       0.01219824       0.01223132      -0.00133918
Pt       5.61031054      -0.10429236      27.29537900        1       0.00000000       0.00258183      -0.00280055      -0.00405385
Pt       1.40440616       2.42517211      26.90733479        1       0.00000000       0.00214123       0.00740787      -0.01673492
Pt       4.12256783       2.48685331      27.29537965        1       0.00000000      -0.00354255      -0.00092184      -0.00396962
Pt       7.11045850       2.47971555      27.29538854        1       0.00000000       0.00100376       0.00354838      -0.00404053
Pt       2.81198778       4.86587054      26.90737963        1       0.00000000      -0.00750394      -0.00181282      -0.01677631
Pt       5.61427397       4.88933930      26.90279135        1       0.00000000       0.00451122      -0.01669075      -0.00140248
Pt       8.41609715       4.86456374      26.90736360        1       0.00000000       0.00537966      -0.00553609      -0.01675305
C        5.61445641       1.62075453      28.18020698        0       1.00000000       0.00000585       0.00013314      -0.00919039
H        5.61436934       1.62068138      26.17533976        0       0.00000000      -0.00006652      -0.00006119       0.02064830
