38
Lattice="8.421641763931781 0.0 0.0 4.2108208819658905 7.293355709136913 0.0 0.0 0.0 46.87624170604845" Properties=species:S:1:pos:R:3:tags:I:1:initial_magmoms:R:1:forces:R:3 charge=0 spin=0 energy=-197.98968864162686 free_energy=-197.98968864162686 stress="0.007408622186630964 0.00011470229947008193 0.0001079751891666092 0.00011470229947008193 0.007633578032255173 -1.3718324225919787e-05 0.0001079751891666092 -1.3718324225919787e-05 -0.0007390879327431321" pbc="T T T"
Pt      -0.00000012       0.00000002      19.95723426        4       0.00000000       0.00331050       0.02264173      -0.01401307
Pt       2.80721404      -0.00000018      19.95723442        4       0.00000000       0.00924683      -0.00429437      -0.01046664
Pt       5.61442782      -0.00000007      19.95723448        4       0.00000000      -0.00294171       0.00305269       0.00791889
Pt       1.40360721       2.43111841      19.95723428        4       0.00000000      -0.01333120      -0.00011039      -0.01385263
Pt       4.21082083       2.43111835      19.95723436        4       0.00000000      -0.00424554      -0.00224458       0.02647913
Pt       7.01803478       2.43111845      19.95723424        4       0.00000000       0.01460795      -0.01585887       0.00234972
Pt       2.80721407       4.86223728      19.95723400        4       0.00000000       0.00421581      -0.00307011       0.01819815
Pt       5.61442803       4.86223733      19.95723419        4       0.00000000       0.00230772       0.00393555       0.02829628
Pt       8.42164139       4.86223726      19.95723434        4       0.00000000      -0.00306544      -0.00399931       0.00873079
Pt       1.40360728       0.81037259      22.29206791        3       0.00000000       0.00244226      -0.00717843      -0.26111013
Pt       4.21082130       0.81037249      22.29206784        3       0.00000000      -0.02521822       0.00241910      -0.06489747
Pt       7.01803471       0.81037256      22.29206781        3       0.00000000       0.04607732      -0.00902569      -0.13674352
Pt       2.80721448       3.24149124      22.29206773        3       0.00000000      -0.05736434      -0.03815902      -0.12040353
Pt       5.61442763       3.24149123      22.29206786        3       0.00000000       0.03415477      -0.02119059      -0.01791737
Pt       8.42164156       3.24149129      22.29206804        3       0.00000000       0.01413275      -0.03758094      -0.11148302
Pt       4.21082092       5.67260997      22.29206793        3       0.00000000       0.00825495       0.08759570      -0.14649196
Pt       7.01803487       5.67261037      22.29206776        3       0.00000000      -0.01715493       0.01978162      -0.07337853
Pt       9.82524821       5.67261065      22.29206806        3       0.00000000       0.00866753      -0.00293428      -0.07591020
Pt      -0.00000053       1.62074569      24.58417386        2       0.00000000      -0.09596360       0.07637696       0.17581481
Pt       2.80721443       1.62074549      24.58417398        2       0.00000000       0.21833798       0.10717867       0.28110734
Pt       5.61442778       1.62074537      24.58417377        2       0.00000000      -0.07216762       0.14160119       0.24180236
Pt       1.40360637       4.05186439      24.58417390        2       0.00000000       0.03292317      -0.00093884       0.00967474
Pt       4.21082088       4.05186403      24.58417379        2       0.00000000       0.14043020      -0.08273672      -0.17123194
Pt       7.01803504       4.05186408      24.58417406        2       0.00000000      -0.12260299      -0.02529617       0.20264614
Pt       2.80721282       6.48298343      24.58417376        2       0.00000000      -0.00188835      -0.01705460       0.00781157
Pt       5.61442796       6.48298325      24.58417391        2       0.00000000      -0.00415474      -0.21280994       0.27537811
Pt       8.42164222       6.48298341      24.58417381        2       0.00000000      -0.01291922       0.02185289      -0.09521138
Pt       0.00635240      -0.00530744      26.90512947        1       0.00000000       0.00842398      -0.00689667      -0.00083982
Pt       2.81542890      -0.00292543      26.89482124        1       0.00000000      -0.02694361       0.02532578       0.00176787
Pt       5.60772474       0.00049423      26.89686679        1       0.00000000      -0.01010212      -0.00490130       0.00088406
Pt       1.42098906       2.42585064      26.90554572        1       0.00000000      -0.00884884       0.00182468      -0.00542683
Pt       4.11466222       2.33125616      27.31050407        1       0.00000000      -0.03690530      -0.01955952       0.01114435
Pt       7.14045296       2.36895401      27.02250922        1       0.00000000      -0.00514389       0.00350982       0.02044757
Pt       2.71871552       4.93146750      27.02430900        1       0.00000000       0.00491901      -0.00537477      -0.01481739
Pt       5.65573233       4.98208696      27.18794315        1       0.00000000      -0.01605245       0.00404091      -0.00177262
Pt       8.43864337       4.87501279      26.89180693        1       0.00000000       0.00562149       0.00925788       0.00084473
C        5.70348616       3.21031306      27.93387312        0       1.00000000       0.01306782       0.02061196       0.00403163
H        4.05470358       3.95985861      26.32017549        0       0.00000000      -0.03412779      -0.02979218       0.01064020
