38
Lattice="8.421641763931781 0.0 0.0 4.2108208819658905 7.293355709136913 0.0 0.0 0.0 46.87624170604845" Properties=species:S:1:pos:R:3:tags:I:1:initial_magmoms:R:1:forces:R:3 charge=0 spin=0 energy=-192.90315795620205 free_energy=-192.90315795620205 stress="0.010137406177818775 -9.591354910298833e-08 7.69075203521652e-09 -9.591354910298833e-08 0.010137408040463924 -1.5484113990993364e-09 7.69075203521652e-09 -1.5484113990993364e-09 -0.00024293683236464858" pbc="T T T"
Pt      -0.00000012       0.00000002      19.95723426        4       0.00000000       0.00324146       0.00123787       0.01647801
Pt       2.80721404      -0.00000018      19.95723442        4       0.00000000      -0.00000146       0.00000183      -0.01069007
Pt       5.61442782      -0.00000007      19.95723448        4       0.00000000      -0.00425094      -0.00058786       0.01716361
Pt       1.40360721       2.43111841      19.95723428        4       0.00000000       0.00263638      -0.00338956       0.01718216
Pt       4.21082083       2.43111835      19.95723436        4       0.00000000      -0.00054797      -0.00342179       0.01650186
Pt       7.01803478       2.43111845      19.95723424        4       0.00000000      -0.00000141       0.00000138       0.01379882
Pt       2.80721407       4.86223728      19.95723400        4       0.00000000       0.00000096      -0.00000262       0.01530344
Pt       5.61442803       4.86223733      19.95723419        4       0.00000000       0.00161120       0.00397898       0.01717561
Pt       8.42164139       4.86223726      19.95723434        4       0.00000000      -0.00268767       0.00218029       0.01646656
Pt       1.40360728       0.81037259      22.29206791        3       0.00000000       0.00547236      -0.00200662      -0.04146837
Pt       4.21082130       0.81037249      22.29206784        3       0.00000000      -0.00445801      -0.00369746      -0.04144805
Pt       7.01803471       0.81037256      22.29206781        3       0.00000000      -0.00046465       0.00111093      -0.05100111
Pt       2.80721448       3.24149124      22.29206773        3       0.00000000       0.00152485       0.00308489      -0.05214318
Pt       5.61442763       3.24149123      22.29206786        3       0.00000000       0.00120616      -0.00012224      -0.05101003
Pt       8.42164156       3.24149129      22.29206804        3       0.00000000      -0.00073563      -0.00097849      -0.05102914
Pt       4.21082092       5.67260997      22.29206793        3       0.00000000      -0.00340824      -0.00022496      -0.05213401
Pt       7.01803487       5.67261037      22.29206776        3       0.00000000      -0.00102178       0.00571023      -0.04146217
Pt       9.82524821       5.67261065      22.29206806        3       0.00000000       0.00188424      -0.00287242      -0.05212907
Pt      -0.00000053       1.62074569      24.58417386        2       0.00000000       0.00031463      -0.00148632       0.02887426
Pt       2.80721443       1.62074549      24.58417398        2       0.00000000       0.00347825      -0.00328598       0.00813340
Pt       5.61442778       1.62074537      24.58417377        2       0.00000000      -0.00141130       0.00042016       0.02885340
Pt       1.40360637       4.05186439      24.58417390        2       0.00000000      -0.00080248       0.00676792       0.03083817
Pt       4.21082088       4.05186403      24.58417379        2       0.00000000      -0.00541859      -0.00397644       0.03085353
Pt       7.01803504       4.05186408      24.58417406        2       0.00000000       0.00110458       0.00104440       0.02894857
Pt       2.80721282       6.48298343      24.58417376        2       0.00000000       0.00622416      -0.00273785       0.03086208
Pt       5.61442796       6.48298325      24.58417391        2       0.00000000       0.00113010       0.00465980       0.00825552
Pt       8.42164222       6.48298341      24.58417381        2       0.00000000      -0.00461671      -0.00140078       0.00822562
Pt       0.00559988      -0.00948742      26.91643173        1       0.00000000       0.00151291      -0.00237386       0.01190234
Pt       2.80721119       0.00000205      26.91456675        1       0.00000000      -0.00000516       0.00001003       0.02314040
Pt       5.61047388      -0.00991352      26.91597182        1       0.00000000       0.00027768      -0.00367952       0.01316468
Pt       1.41414660       2.43265285      26.91593562        1       0.00000000       0.00313004       0.00213035       0.01327664
Pt       4.19981600       2.43099320      26.91641522        1       0.00000000      -0.00289657      -0.00007363       0.01198765
Pt       7.01803324       2.43112123      26.90652797        1       0.00000000       0.00000027      -0.00000734       0.01440112
Pt       2.80721645       4.86223483      26.91690244        1       0.00000000       0.00000642      -0.00001162       0.01366896
Pt       5.60784017       4.87061823      26.91596946        1       0.00000000      -0.00339932       0.00155811       0.01315056
Pt       8.42704469       4.87185277      26.91644802        1       0.00000000       0.00137014       0.00244006       0.01191890
C        7.01803123       2.43111714      29.94594803        0       1.00000000      -0.00001314      -0.00000124       0.02505328
H        7.01803893       2.43111892      28.77175898        0       0.00000000       0.00001413       0.00000146      -0.04106392
