38
Lattice="8.421641763931781 0.0 0.0 4.2108208819658905 7.293355709136913 0.0 0.0 0.0 46.87624170604845" Properties=species:S:1:pos:R:3:tags:I:1:initial_magmoms:R:1:forces:R:3 charge=0 spin=0 energy=-192.90315795620205 free_energy=-192.90315795620205 stress="0.010137402452528477 -9.329037453653655e-08 4.168140943505705e-09 -9.329037453653655e-08 0.010137402452528477 9.848285742464213e-09 4.168140943505705e-09 9.848285742464213e-09 -0.00024294588365592062" pbc="T T T"
Pt      -0.00000012       0.00000002      19.95723426        4       0.00000000      -0.00424872      -0.00059254       0.01717203
Pt       2.80721404      -0.00000018      19.95723442        4       0.00000000       0.00323754       0.00124156       0.01646893
Pt       5.61442782      -0.00000007      19.95723448        4       0.00000000       0.00000022       0.00000258      -0.01068939
Pt       1.40360721       2.43111841      19.95723428        4       0.00000000      -0.00000094       0.00000159       0.01379960
Pt       4.21082083       2.43111835      19.95723436        4       0.00000000       0.00263952      -0.00338875       0.01718184
Pt       7.01803478       2.43111845      19.95723424        4       0.00000000      -0.00055153      -0.00342266       0.01650140
Pt       2.80721407       4.86223728      19.95723400        4       0.00000000      -0.00268801       0.00218138       0.01646734
Pt       5.61442803       4.86223733      19.95723419        4       0.00000000      -0.00000240      -0.00000282       0.01530267
Pt       8.42164139       4.86223726      19.95723434        4       0.00000000       0.00161513       0.00397788       0.01717529
Pt       1.40360728       0.81037259      22.29206791        3       0.00000000      -0.00046950       0.00111089      -0.05100053
Pt       4.21082130       0.81037249      22.29206784        3       0.00000000       0.00547397      -0.00200244      -0.04146900
Pt       7.01803471       0.81037256      22.29206781        3       0.00000000      -0.00445525      -0.00370099      -0.04144745
Pt       2.80721448       3.24149124      22.29206773        3       0.00000000      -0.00074623      -0.00097732      -0.05102787
Pt       5.61442763       3.24149123      22.29206786        3       0.00000000       0.00153409       0.00308423      -0.05214425
Pt       8.42164156       3.24149129      22.29206804        3       0.00000000       0.00120704      -0.00012132      -0.05101017
Pt       4.21082092       5.67260997      22.29206793        3       0.00000000       0.00187566      -0.00285876      -0.05212926
Pt       7.01803487       5.67261037      22.29206776        3       0.00000000      -0.00340907      -0.00023302      -0.05213238
Pt       9.82524821       5.67261065      22.29206806        3       0.00000000      -0.00101295       0.00570508      -0.04146546
Pt      -0.00000053       1.62074569      24.58417386        2       0.00000000      -0.00141032       0.00041212       0.02884617
Pt       2.80721443       1.62074549      24.58417398        2       0.00000000       0.00030734      -0.00148416       0.02887190
Pt       5.61442778       1.62074537      24.58417377        2       0.00000000       0.00348468      -0.00328645       0.00813370
Pt       1.40360637       4.05186439      24.58417390        2       0.00000000       0.00111304       0.00103910       0.02894038
Pt       4.21082088       4.05186403      24.58417379        2       0.00000000      -0.00080684       0.00677475       0.03083872
Pt       7.01803504       4.05186408      24.58417406        2       0.00000000      -0.00542229      -0.00397599       0.03084973
Pt       2.80721282       6.48298343      24.58417376        2       0.00000000      -0.00459675      -0.00139971       0.00822487
Pt       5.61442796       6.48298325      24.58417391        2       0.00000000       0.00620925      -0.00273389       0.03086226
Pt       8.42164222       6.48298341      24.58417381        2       0.00000000       0.00112596       0.00465844       0.00826263
Pt      -0.00395334      -0.00991304      26.91597083        1       0.00000000       0.00027511      -0.00368594       0.01316243
Pt       2.81281353      -0.00948664      26.91643219        1       0.00000000       0.00151681      -0.00238126       0.01190376
Pt       5.61442512       0.00000214      26.91456768        1       0.00000000      -0.00000625       0.00000890       0.02312863
Pt       1.40360546       2.43112099      26.90652638        1       0.00000000       0.00000292      -0.00000660       0.01441871
Pt       4.22136014       2.43265276      26.91593623        1       0.00000000       0.00313197       0.00213054       0.01327887
Pt       7.00703045       2.43099315      26.91641504        1       0.00000000      -0.00289991      -0.00007485       0.01199611
Pt       2.81261685       4.87185214      26.91644740        1       0.00000000       0.00137171       0.00244610       0.01192384
Pt       5.61443032       4.86223439      26.91690269        1       0.00000000       0.00000523      -0.00001066       0.01366824
Pt       8.41505460       4.87061772      26.91596983        1       0.00000000      -0.00340206       0.00156510       0.01315068
C        1.40360464       2.43111349      29.94594793        0       1.00000000      -0.00000812      -0.00001175       0.02504938
H        1.40360935       2.43112238      28.77175812        0       0.00000000       0.00000984       0.00001175      -0.04106443
