38
Lattice="8.421641763931781 0.0 0.0 4.2108208819658905 7.293355709136913 0.0 0.0 0.0 46.87624170604845" Properties=species:S:1:pos:R:3:tags:I:1:initial_magmoms:R:1:forces:R:3 charge=0 spin=0 energy=-192.90342498501064 free_energy=-192.90342498501064 stress="0.010173271410167217 -9.542748102830956e-08 6.046732892173168e-09 -9.542748102830956e-08 0.010173268616199493 -3.8735494811703575e-09 6.046732892173168e-09 -3.8735494811703575e-09 -0.0001692676596576348" pbc="T T T"
Pt      -0.00000012       0.00000002      19.95723426        4       0.00000000      -0.00062167      -0.00354286       0.01652351
Pt       2.80721404      -0.00000018      19.95723442        4       0.00000000      -0.00000196       0.00000317       0.01380276
Pt       5.61442782      -0.00000007      19.95723448        4       0.00000000       0.00273446      -0.00349673       0.01722718
Pt       1.40360721       2.43111841      19.95723428        4       0.00000000       0.00165877       0.00412234       0.01723278
Pt       4.21082083       2.43111835      19.95723436        4       0.00000000      -0.00275246       0.00230911       0.01649022
Pt       7.01803478       2.43111845      19.95723424        4       0.00000000      -0.00000171       0.00000165       0.01525821
Pt       2.80721407       4.86223728      19.95723400        4       0.00000000       0.00000153      -0.00000406      -0.01117946
Pt       5.61442803       4.86223733      19.95723419        4       0.00000000      -0.00439647      -0.00062403       0.01722656
Pt       8.42164139       4.86223726      19.95723434        4       0.00000000       0.00338002       0.00123030       0.01650000
Pt       1.40360728       0.81037259      22.29206791        3       0.00000000       0.00116245      -0.00014725      -0.05159254
Pt       4.21082130       0.81037249      22.29206784        3       0.00000000      -0.00074552      -0.00092571      -0.05161252
Pt       7.01803471       0.81037256      22.29206781        3       0.00000000       0.00150796       0.00322940      -0.05268839
Pt       2.80721448       3.24149124      22.29206773        3       0.00000000      -0.00099074       0.00575013      -0.04118560
Pt       5.61442763       3.24149123      22.29206786        3       0.00000000       0.00201573      -0.00290906      -0.05268322
Pt       8.42164156       3.24149129      22.29206804        3       0.00000000      -0.00351334      -0.00031993      -0.05268677
Pt       4.21082092       5.67260997      22.29206793        3       0.00000000      -0.00450348      -0.00368745      -0.04117063
Pt       7.01803487       5.67261037      22.29206776        3       0.00000000      -0.00042586       0.00108097      -0.05159273
Pt       9.82524821       5.67261065      22.29206806        3       0.00000000       0.00549175      -0.00206781      -0.04119228
Pt      -0.00000053       1.62074569      24.58417386        2       0.00000000      -0.00397610      -0.00443573       0.04078722
Pt       2.80721443       1.62074549      24.58417398        2       0.00000000       0.00069763       0.00376638       0.03847111
Pt       5.61442778       1.62074537      24.58417377        2       0.00000000      -0.00191308       0.00573937       0.04077963
Pt       1.40360637       4.05186439      24.58417390        2       0.00000000       0.00244855       0.00534678       0.01950049
Pt       4.21082088       4.05186403      24.58417379        2       0.00000000      -0.00585760      -0.00060208       0.01946449
Pt       7.01803504       4.05186408      24.58417406        2       0.00000000       0.00588263      -0.00125635       0.04079747
Pt       2.80721282       6.48298343      24.58417376        2       0.00000000       0.00343091      -0.00476937       0.01938898
Pt       5.61442796       6.48298325      24.58417391        2       0.00000000      -0.00358088      -0.00129004       0.03838087
Pt       8.42164222       6.48298341      24.58417381        2       0.00000000       0.00287397      -0.00250267       0.03841605
Pt      -0.01197035      -0.00006511      26.91895723        1       0.00000000       0.00217484      -0.00105605       0.00110559
Pt       2.80721396       0.00000033      26.90598079        1       0.00000000       0.00000060      -0.00000175      -0.00328518
Pt       5.62619591       0.00142903      26.91883272        1       0.00000000      -0.00290976       0.00199894       0.00085867
Pt       1.39649663       2.44060983      26.91885494        1       0.00000000      -0.00026746      -0.00358565       0.00076789
Pt       4.21675755       2.44153406      26.91898170        1       0.00000000      -0.00200451      -0.00143470       0.00106308
Pt       7.01803582       2.43111614      26.91834543        1       0.00000000       0.00001272      -0.00000828       0.00810432
Pt       2.80721291       4.86223906      26.91804238        1       0.00000000      -0.00001558       0.00000778       0.00909160
Pt       5.60977063       4.85131700      26.91885482        1       0.00000000       0.00318399       0.00159182       0.00078844
Pt       8.42767482       4.85188674      26.91896733        1       0.00000000      -0.00017977       0.00248932       0.00103412
C        2.80721381       0.00000002      29.93871683        0       1.00000000      -0.00000222       0.00000182      -0.01284246
H        2.80721407      -0.00000025      28.76194154        0       0.00000000       0.00000159      -0.00000169       0.01465034
