38
Lattice="8.421641763931781 0.0 0.0 4.2108208819658905 7.293355709136913 0.0 0.0 0.0 46.87624170604845" Properties=species:S:1:pos:R:3:tags:I:1:initial_magmoms:R:1:forces:R:3 charge=0 spin=0 energy=-197.5084836550546 free_energy=-197.5084836550546 stress="0.00909867137670517 -1.5933824215608183e-07 -1.0843713482699968e-08 -1.5933824215608183e-07 0.009098630398511887 7.211050245814477e-08 -1.0843713482699968e-08 7.211050245814477e-08 -0.0007911247666925192" pbc="T T T"
Pt      -0.00000012       0.00000002      19.95723426        4       0.00000000      -0.02252172      -0.00980330      -0.03688058
Pt       2.80721404      -0.00000018      19.95723442        4       0.00000000      -0.00099744       0.00929984       0.01954973
Pt       5.61442782      -0.00000007      19.95723448        4       0.00000000       0.01975702      -0.01461213      -0.03710577
Pt       1.40360721       2.43111841      19.95723428        4       0.00000000       0.00856123      -0.00382202       0.01936742
Pt       4.21082083       2.43111835      19.95723436        4       0.00000000      -0.00756632      -0.00547066       0.01931218
Pt       7.01803478       2.43111845      19.95723424        4       0.00000000      -0.00026183      -0.00617834       0.02226635
Pt       2.80721407       4.86223728      19.95723400        4       0.00000000       0.00276963       0.02441620      -0.03705219
Pt       5.61442803       4.86223733      19.95723419        4       0.00000000      -0.00523035       0.00335797       0.02250581
Pt       8.42164139       4.86223726      19.95723434        4       0.00000000       0.00549101       0.00281499       0.02235104
Pt       1.40360728       0.81037259      22.29206791        3       0.00000000      -0.08869771      -0.05080619      -0.15105647
Pt       4.21082130       0.81037249      22.29206784        3       0.00000000       0.08843591      -0.05134598      -0.15111500
Pt       7.01803471       0.81037256      22.29206781        3       0.00000000      -0.00039839      -0.04899594      -0.19458508
Pt       2.80721448       3.24149124      22.29206773        3       0.00000000       0.00024256       0.10217656      -0.15140092
Pt       5.61442763       3.24149123      22.29206786        3       0.00000000      -0.01906260      -0.01720853      -0.01857827
Pt       8.42164156       3.24149129      22.29206804        3       0.00000000       0.02445503      -0.00784884      -0.01864568
Pt       4.21082092       5.67260997      22.29206793        3       0.00000000      -0.04238611       0.02488750      -0.19430134
Pt       7.01803487       5.67261037      22.29206776        3       0.00000000      -0.00538511       0.02504748      -0.01806895
Pt       9.82524821       5.67261065      22.29206806        3       0.00000000       0.04279191       0.02410275      -0.19442882
Pt      -0.00000053       1.62074569      24.58417386        2       0.00000000       0.23082773       0.10525628       0.33138135
Pt       2.80721443       1.62074549      24.58417398        2       0.00000000       0.00003210       0.00003910      -0.64006174
Pt       5.61442778       1.62074537      24.58417377        2       0.00000000      -0.22792304       0.10953056       0.32902840
Pt       1.40360637       4.05186439      24.58417390        2       0.00000000       0.01914093      -0.25231174       0.32897112
Pt       4.21082088       4.05186403      24.58417379        2       0.00000000      -0.02442499      -0.25275141       0.33160022
Pt       7.01803504       4.05186408      24.58417406        2       0.00000000      -0.00000427       0.00004352       0.02688065
Pt       2.80721282       6.48298343      24.58417376        2       0.00000000       0.00000586      -0.00004302      -0.23463279
Pt       5.61442796       6.48298325      24.58417391        2       0.00000000       0.20879430       0.14277121       0.32872158
Pt       8.42164222       6.48298341      24.58417381        2       0.00000000      -0.20642424       0.14749894       0.33100504
Pt      -0.02340833      -0.01364909      26.90274112        1       0.00000000       0.01219063       0.01222899      -0.00134211
Pt       2.80309510      -0.10429248      27.29537764        1       0.00000000       0.00258918      -0.00277899      -0.00404422
Pt       5.63795622      -0.01344592      26.90275707        1       0.00000000      -0.01672545       0.00445415      -0.00138975
Pt       1.31535319       2.48685314      27.29537854        1       0.00000000      -0.00352878      -0.00093044      -0.00396615
Pt       4.30324416       2.47971637      27.29538849        1       0.00000000       0.00098762       0.00353387      -0.00403040
Pt       7.01883336       2.42517195      26.90733600        1       0.00000000       0.00213995       0.00740679      -0.01673464
Pt       2.80705926       4.88933862      26.90279223        1       0.00000000       0.00451425      -0.01668246      -0.00140450
Pt       5.60888303       4.86456350      26.90736371        1       0.00000000       0.00537786      -0.00553725      -0.01675449
Pt       8.42641605       4.86587055      26.90738054        1       0.00000000      -0.00751102      -0.00180914      -0.01677928
C        2.80724140       1.62075453      28.18020798        0       1.00000000       0.00000561       0.00013053      -0.00921312
H        2.80716076       1.62068208      26.17534234        0       0.00000000      -0.00006059      -0.00006068       0.02063118
