38
Lattice="8.421641763931781 0.0 0.0 4.2108208819658905 7.293355709136913 0.0 0.0 0.0 46.87624170604845" Properties=species:S:1:pos:R:3:tags:I:1:initial_magmoms:R:1:forces:R:3 charge=0 spin=0 energy=-192.90316177089932 free_energy=-192.90316177089932 stress="0.010137408971786499 -9.285746926934735e-08 7.836080229139952e-09 -9.285746926934735e-08 0.01013740710914135 -2.207464877557186e-09 7.836080229139952e-09 -2.207464877557186e-09 -0.00024292978923767805" pbc="T T T"
Pt      -0.00000012       0.00000002      19.95723426        4       0.00000000      -0.00268706       0.00218405       0.01646639
Pt       2.80721404      -0.00000018      19.95723442        4       0.00000000      -0.00000225       0.00000355       0.01529360
Pt       5.61442782      -0.00000007      19.95723448        4       0.00000000       0.00161308       0.00398614       0.01716666
Pt       1.40360721       2.43111841      19.95723428        4       0.00000000      -0.00425149      -0.00059064       0.01717340
Pt       4.21082083       2.43111835      19.95723436        4       0.00000000       0.00324134       0.00124067       0.01647877
Pt       7.01803478       2.43111845      19.95723424        4       0.00000000      -0.00000095       0.00000013      -0.01068048
Pt       2.80721407       4.86223728      19.95723400        4       0.00000000       0.00000119      -0.00000304       0.01379909
Pt       5.61442803       4.86223733      19.95723419        4       0.00000000       0.00263535      -0.00339406       0.01718115
Pt       8.42164139       4.86223726      19.95723434        4       0.00000000      -0.00054863      -0.00342832       0.01650089
Pt       1.40360728       0.81037259      22.29206791        3       0.00000000       0.00187462      -0.00285793      -0.05212826
Pt       4.21082130       0.81037249      22.29206784        3       0.00000000      -0.00340784      -0.00022024      -0.05213413
Pt       7.01803471       0.81037256      22.29206781        3       0.00000000      -0.00101772       0.00571941      -0.04146435
Pt       2.80721448       3.24149124      22.29206773        3       0.00000000      -0.00047304       0.00110911      -0.05100279
Pt       5.61442763       3.24149123      22.29206786        3       0.00000000       0.00547808      -0.00200971      -0.04147270
Pt       8.42164156       3.24149129      22.29206804        3       0.00000000      -0.00445251      -0.00370376      -0.04145113
Pt       4.21082092       5.67260997      22.29206793        3       0.00000000      -0.00074148      -0.00097691      -0.05102632
Pt       7.01803487       5.67261037      22.29206776        3       0.00000000       0.00152879       0.00307728      -0.05213876
Pt       9.82524821       5.67261065      22.29206806        3       0.00000000       0.00121014      -0.00013356      -0.05100796
Pt      -0.00000053       1.62074569      24.58417386        2       0.00000000      -0.00460581      -0.00139449       0.00822553
Pt       2.80721443       1.62074549      24.58417398        2       0.00000000       0.00620609      -0.00272813       0.03086309
Pt       5.61442778       1.62074537      24.58417377        2       0.00000000       0.00113726       0.00466951       0.00825949
Pt       1.40360637       4.05186439      24.58417390        2       0.00000000      -0.00140872       0.00041113       0.02884830
Pt       4.21082088       4.05186403      24.58417379        2       0.00000000       0.00031278      -0.00148252       0.02887295
Pt       7.01803504       4.05186408      24.58417406        2       0.00000000       0.00348047      -0.00328751       0.00813620
Pt       2.80721282       6.48298343      24.58417376        2       0.00000000       0.00111985       0.00103652       0.02894533
Pt       5.61442796       6.48298325      24.58417391        2       0.00000000      -0.00081221       0.00676834       0.03084017
Pt       8.42164222       6.48298341      24.58417381        2       0.00000000      -0.00542649      -0.00398637       0.03085513
Pt       0.00540292       0.00961511      26.91644801        1       0.00000000       0.00137008       0.00244357       0.01191769
Pt       2.80721623      -0.00000271      26.91690311        1       0.00000000       0.00000516      -0.00001131       0.01367006
Pt       5.60784032       0.00838084      26.91597077        1       0.00000000      -0.00340130       0.00156175       0.01315457
Pt       1.39965365       2.42120514      26.91597091        1       0.00000000       0.00027555      -0.00368168       0.01316008
Pt       4.21642042       2.42163146      26.91643220        1       0.00000000       0.00151462      -0.00237853       0.01190412
Pt       7.01803183       2.43112057      26.91456741        1       0.00000000      -0.00000240       0.00001050       0.02313261
Pt       2.80721206       4.86223999      26.90652700        1       0.00000000      -0.00000254      -0.00000580       0.01441605
Pt       5.62496685       4.86377167      26.91593612        1       0.00000000       0.00313437       0.00212928       0.01327685
Pt       8.41063703       4.86211205      26.91641531        1       0.00000000      -0.00289738      -0.00007682       0.01198773
C        2.80721150       4.86223760      29.94595029        0       1.00000000      -0.00001200       0.00000452       0.02504531
H        2.80721830       4.86223565      28.77176002        0       0.00000000       0.00001277      -0.00000436      -0.04106439
