38
Lattice="8.421641763931781 0.0 0.0 4.2108208819658905 7.293355709136913 0.0 0.0 0.0 46.87624170604845" Properties=species:S:1:pos:R:3:tags:I:1:initial_magmoms:R:1:forces:R:3 charge=0 spin=0 energy=-197.93952346523525 free_energy=-197.93952346523525 stress="0.007036853581666946 -1.2974900300832815e-06 -1.0146385420739534e-06 -1.2974900300832815e-06 0.0070456042885780334 -3.431718823776464e-06 -1.0146385420739534e-06 -3.431718823776464e-06 -0.0010360036976635456" pbc="T T T"
Pt      -0.00000012       0.00000002      19.95723426        4       0.00000000      -0.00698074       0.00575055      -0.02565332
Pt       2.80721404      -0.00000018      19.95723442        4       0.00000000      -0.00376966       0.00257778       0.01476972
Pt       5.61442782      -0.00000007      19.95723448        4       0.00000000       0.00845195       0.00311657      -0.02560387
Pt       1.40360721       2.43111841      19.95723428        4       0.00000000      -0.00765990      -0.00316655       0.01826553
Pt       4.21082083       2.43111835      19.95723436        4       0.00000000       0.00664613      -0.00504791       0.01822737
Pt       7.01803478       2.43111845      19.95723424        4       0.00000000      -0.00148179      -0.00889919      -0.02558165
Pt       2.80721407       4.86223728      19.95723400        4       0.00000000       0.00101485       0.00821554       0.01815860
Pt       5.61442803       4.86223733      19.95723419        4       0.00000000      -0.00033466      -0.00455622       0.01463870
Pt       8.42164139       4.86223726      19.95723434        4       0.00000000       0.00411121       0.00201728       0.01474703
Pt       1.40360728       0.81037259      22.29206791        3       0.00000000      -0.06679440      -0.03085124      -0.12894259
Pt       4.21082130       0.81037249      22.29206784        3       0.00000000       0.07189535      -0.03847334      -0.13669330
Pt       7.01803471       0.81037256      22.29206781        3       0.00000000      -0.00002648      -0.00007748      -0.27012450
Pt       2.80721448       3.24149124      22.29206773        3       0.00000000      -0.00000092       0.00004914      -0.22580901
Pt       5.61442763       3.24149123      22.29206786        3       0.00000000       0.06006963      -0.04245945      -0.12943274
Pt       8.42164156       3.24149129      22.29206804        3       0.00000000      -0.06913701      -0.04290524      -0.13709489
Pt       4.21082092       5.67260997      22.29206793        3       0.00000000      -0.00267873       0.08140662      -0.13698913
Pt       7.01803487       5.67261037      22.29206776        3       0.00000000      -0.00000189      -0.00000608      -0.10972678
Pt       9.82524821       5.67261065      22.29206806        3       0.00000000       0.00669755       0.07335589      -0.12935208
Pt      -0.00000053       1.62074569      24.58417386        2       0.00000000       0.11371908       0.05967617       0.26680592
Pt       2.80721443       1.62074549      24.58417398        2       0.00000000       0.00688422      -0.57241958       0.29367730
Pt       5.61442778       1.62074537      24.58417377        2       0.00000000      -0.10869026       0.06838407       0.26656196
Pt       1.40360637       4.05186439      24.58417390        2       0.00000000      -0.49878165       0.28021196       0.29420006
Pt       4.21082088       4.05186403      24.58417379        2       0.00000000       0.49186277       0.29170966       0.29392466
Pt       7.01803504       4.05186408      24.58417406        2       0.00000000       0.00795892      -0.00106534      -0.07609160
Pt       2.80721282       6.48298343      24.58417376        2       0.00000000      -0.00520046      -0.12812813       0.26577726
Pt       5.61442796       6.48298325      24.58417391        2       0.00000000      -0.00501566      -0.00634668      -0.07647091
Pt       8.42164222       6.48298341      24.58417381        2       0.00000000      -0.00289231       0.00765760      -0.07620912
Pt       0.00482412      -0.00817667      26.89444820        1       0.00000000       0.00506764       0.02272945       0.00175729
Pt       2.80657094      -0.01987106      26.90067630        1       0.00000000      -0.00850886       0.01502275      -0.01289829
Pt       5.60499888      -0.00036141      26.89458816        1       0.00000000       0.01538802      -0.01261686       0.00144671
Pt       1.28208538       2.35750090      27.18467197        1       0.00000000      -0.03528191      -0.01931185      -0.01673749
Pt       4.33541762       2.36249284      27.18465297        1       0.00000000       0.02963792      -0.01650591      -0.01474233
Pt       7.02245511       2.43925731      26.89428225        1       0.00000000      -0.01932743      -0.00679945       0.00196562
Pt       2.80422635       5.00495949      27.18455631        1       0.00000000       0.00046339       0.01869360      -0.00981783
Pt       5.63186706       4.87154582      26.90050248        1       0.00000000      -0.00892537      -0.01495133      -0.01233288
Pt       8.40475893       4.87268453      26.90062554        1       0.00000000       0.01730576      -0.00062272      -0.01268541
C        2.80702758       3.24093513      27.91130525        0       1.00000000       0.00422151       0.01430067       0.01810266
H        2.80718012       3.24139318      25.36083569        0       0.00000000       0.00009426       0.00033502      -0.01403671
