38
Lattice="8.421641763931781 0.0 0.0 4.2108208819658905 7.293355709136913 0.0 0.0 0.0 46.87624170604845" Properties=species:S:1:pos:R:3:tags:I:1:initial_magmoms:R:1:forces:R:3 charge=0 spin=0 energy=-197.9390847750497 free_energy=-197.9390847750497 stress="0.007025830913335085 -1.301514771512302e-07 5.780205647454295e-09 -1.301514771512302e-07 0.007025179918855429 -5.402761793504851e-09 5.780205647454295e-09 -5.402761793504851e-09 -0.0010193479247391224" pbc="T T T"
Pt      -0.00000012       0.00000002      19.95723426        4       0.00000000      -0.00724779      -0.00274421       0.01779160
Pt       2.80721404      -0.00000018      19.95723442        4       0.00000000       0.00607178      -0.00489408       0.01774573
Pt       5.61442782      -0.00000007      19.95723448        4       0.00000000      -0.00143866      -0.00943146      -0.02557690
Pt       1.40360721       2.43111841      19.95723428        4       0.00000000       0.00117768       0.00764093       0.01769934
Pt       4.21082083       2.43111835      19.95723436        4       0.00000000      -0.00024011      -0.00441413       0.01463579
Pt       7.01803478       2.43111845      19.95723424        4       0.00000000       0.00392094       0.00199645       0.01476043
Pt       2.80721407       4.86223728      19.95723400        4       0.00000000      -0.00748247       0.00599737      -0.02557345
Pt       5.61442803       4.86223733      19.95723419        4       0.00000000      -0.00367903       0.00241776       0.01480651
Pt       8.42164139       4.86223726      19.95723434        4       0.00000000       0.00892336       0.00342992      -0.02548755
Pt       1.40360728       0.81037259      22.29206791        3       0.00000000      -0.00000187       0.00000450      -0.22161075
Pt       4.21082130       0.81037249      22.29206784        3       0.00000000       0.06028480      -0.04186489      -0.13187119
Pt       7.01803471       0.81037256      22.29206781        3       0.00000000      -0.06958255      -0.04305542      -0.13933986
Pt       2.80721448       3.24149124      22.29206773        3       0.00000000      -0.00258388       0.08183938      -0.13914682
Pt       5.61442763       3.24149123      22.29206786        3       0.00000000       0.00000344      -0.00000268      -0.10852383
Pt       8.42164156       3.24149129      22.29206804        3       0.00000000       0.00605438       0.07320680      -0.13173865
Pt       4.21082092       5.67260997      22.29206793        3       0.00000000      -0.06633106      -0.03133189      -0.13138117
Pt       7.01803487       5.67261037      22.29206776        3       0.00000000       0.07216106      -0.03878641      -0.13892755
Pt       9.82524821       5.67261065      22.29206806        3       0.00000000       0.00000954      -0.00000428      -0.26968983
Pt      -0.00000053       1.62074569      24.58417386        2       0.00000000      -0.49564257       0.27904069       0.29084370
Pt       2.80721443       1.62074549      24.58417398        2       0.00000000       0.48940650       0.28974229       0.29068139
Pt       5.61442778       1.62074537      24.58417377        2       0.00000000       0.00868624       0.00058619      -0.07332287
Pt       1.40360637       4.05186439      24.58417390        2       0.00000000      -0.00236026      -0.12334445       0.27895886
Pt       4.21082088       4.05186403      24.58417379        2       0.00000000      -0.00403954      -0.00793975      -0.07366607
Pt       7.01803504       4.05186408      24.58417406        2       0.00000000      -0.00474042       0.00743626      -0.07354524
Pt       2.80721282       6.48298343      24.58417376        2       0.00000000       0.10784489       0.05958521       0.27900475
Pt       5.61442796       6.48298325      24.58417391        2       0.00000000       0.00637053      -0.56878519       0.29056874
Pt       8.42164222       6.48298341      24.58417381        2       0.00000000      -0.10558639       0.06366813       0.27895617
Pt      -0.12509358      -0.07421063      27.19007487        1       0.00000000      -0.02894267      -0.01248464      -0.02209243
Pt       2.93401071      -0.07121466      27.19009143        1       0.00000000       0.02526236      -0.01894949      -0.02212360
Pt       5.61544979       0.01337538      26.89838027        1       0.00000000      -0.00219635      -0.03059710      -0.01464771
Pt       1.40186658       2.57650144      27.19011011        1       0.00000000       0.00370733       0.03266567      -0.02256272
Pt       4.22080348       2.43612947      26.89728019        1       0.00000000       0.02987390       0.01181241      -0.00597748
Pt       7.00869097       2.43727019      26.89729453        1       0.00000000      -0.02514855       0.01998910      -0.00602315
Pt       2.81826913       4.85464290      26.89842654        1       0.00000000      -0.02545713       0.01706942      -0.01463507
Pt       5.61376960       4.85107333      26.89732733        1       0.00000000      -0.00464228      -0.03174220      -0.00596238
Pt       8.40951568       4.85645396      26.89844379        1       0.00000000       0.02764256       0.01331657      -0.01466423
C        1.40359452       0.81040660      27.90603098        0       1.00000000      -0.00006142      -0.00106158       0.03414469
H        1.40360627       0.81037599      25.35766522        0       0.00000000       0.00000395      -0.00001143      -0.00250713
