38
Lattice="8.421641763931781 0.0 0.0 4.2108208819658905 7.293355709136913 0.0 0.0 0.0 46.87624170604845" Properties=species:S:1:pos:R:3:tags:I:1:initial_magmoms:R:1:forces:R:3 charge=0 spin=0 energy=-192.90342689235928 free_energy=-192.90342689235928 stress="0.010173266753554344 -9.457963301429118e-08 5.73644465262646e-09 -9.457963301429118e-08 0.01017326395958662 -2.5412696391668987e-09 5.73644465262646e-09 -2.5412696391668987e-09 -0.00016926968237385154" pbc="T T T"
Pt      -0.00000012       0.00000002      19.95723426        4       0.00000000       0.00000196      -0.00000051       0.01525770
Pt       2.80721404      -0.00000018      19.95723442        4       0.00000000       0.00165770       0.00412373       0.01722262
Pt       5.61442782      -0.00000007      19.95723448        4       0.00000000      -0.00275464       0.00231048       0.01648053
Pt       1.40360721       2.43111841      19.95723428        4       0.00000000       0.00337769       0.00123598       0.01650104
Pt       4.21082083       2.43111835      19.95723436        4       0.00000000       0.00000259       0.00000117      -0.01117976
Pt       7.01803478       2.43111845      19.95723424        4       0.00000000      -0.00439572      -0.00061933       0.01722690
Pt       2.80721407       4.86223728      19.95723400        4       0.00000000       0.00273582      -0.00350352       0.01723645
Pt       5.61442803       4.86223733      19.95723419        4       0.00000000      -0.00062554      -0.00354544       0.01652366
Pt       8.42164139       4.86223726      19.95723434        4       0.00000000       0.00000154      -0.00000417       0.01381182
Pt       1.40360728       0.81037259      22.29206791        3       0.00000000      -0.00352038      -0.00031739      -0.05268363
Pt       4.21082130       0.81037249      22.29206784        3       0.00000000      -0.00098567       0.00575535      -0.04118425
Pt       7.01803471       0.81037256      22.29206781        3       0.00000000       0.00201446      -0.00290554      -0.05267980
Pt       2.80721448       3.24149124      22.29206773        3       0.00000000       0.00547806      -0.00205488      -0.04119428
Pt       5.61442763       3.24149123      22.29206786        3       0.00000000      -0.00449872      -0.00368918      -0.04117338
Pt       8.42164156       3.24149129      22.29206804        3       0.00000000      -0.00041920       0.00108786      -0.05159655
Pt       4.21082092       5.67260997      22.29206793        3       0.00000000       0.00150404       0.00322830      -0.05268797
Pt       7.01803487       5.67261037      22.29206776        3       0.00000000       0.00116260      -0.00015675      -0.05159122
Pt       9.82524821       5.67261065      22.29206806        3       0.00000000      -0.00073755      -0.00094329      -0.05161313
Pt      -0.00000053       1.62074569      24.58417386        2       0.00000000       0.00588792      -0.00126116       0.04079473
Pt       2.80721443       1.62074549      24.58417398        2       0.00000000       0.00243695       0.00535145       0.01950203
Pt       5.61442778       1.62074537      24.58417377        2       0.00000000      -0.00585507      -0.00060101       0.01946334
Pt       1.40360637       4.05186439      24.58417390        2       0.00000000       0.00288712      -0.00249961       0.03840464
Pt       4.21082088       4.05186403      24.58417379        2       0.00000000       0.00342106      -0.00475827       0.01938646
Pt       7.01803504       4.05186408      24.58417406        2       0.00000000      -0.00358150      -0.00128447       0.03837983
Pt       2.80721282       6.48298343      24.58417376        2       0.00000000      -0.00190289       0.00572886       0.04077763
Pt       5.61442796       6.48298325      24.58417391        2       0.00000000      -0.00398255      -0.00443721       0.04078805
Pt       8.42164222       6.48298341      24.58417381        2       0.00000000       0.00069484       0.00375765       0.03847289
Pt       0.00000125      -0.00000234      26.91834545        1       0.00000000       0.00001180      -0.00000902       0.00810150
Pt       2.80010379       0.00949078      26.91885515        1       0.00000000      -0.00027067      -0.00358287       0.00076895
Pt       5.62036415       0.01041508      26.91898192        1       0.00000000      -0.00200170      -0.00143123       0.00106501
Pt       1.40964025       2.42076846      26.91896710        1       0.00000000      -0.00017589       0.00248394       0.00104046
Pt       4.21082000       2.43112041      26.91804259        1       0.00000000      -0.00001183       0.00000650       0.00909440
Pt       7.01337758       2.42019870      26.91885510        1       0.00000000       0.00318177       0.00158748       0.00078937
Pt       2.81898168       4.86366626      26.91883175        1       0.00000000      -0.00290637       0.00200104       0.00086310
Pt       5.60245792       4.86217210      26.91895709        1       0.00000000       0.00217174      -0.00105562       0.00110538
Pt       8.42164134       4.86223753      26.90598160        1       0.00000000      -0.00000135       0.00000056      -0.00328602
C        8.42164118       4.86223737      29.93871753        0       1.00000000      -0.00000284       0.00000165      -0.01287698
H        8.42164140       4.86223700      28.76194067        0       0.00000000       0.00000064      -0.00000156       0.01468821
