38
Lattice="8.421641763931781 0.0 0.0 4.2108208819658905 7.293355709136913 0.0 0.0 0.0 46.87624170604845" Properties=species:S:1:pos:R:3:tags:I:1:initial_magmoms:R:1:forces:R:3 charge=0 spin=0 energy=-197.93952346523525 free_energy=-197.93952346523525 stress="0.0070368158631026745 -1.5186273003564565e-06 -1.1782584579123068e-06 -1.5186273003564565e-06 0.0070455740205943584 -3.437710574871744e-06 -1.1782584579123068e-06 -3.437710574871744e-06 -0.0010360395535826683" pbc="T T T"
Pt      -0.00000012       0.00000002      19.95723426        4       0.00000000       0.00664574      -0.00505069       0.01822620
Pt       2.80721404      -0.00000018      19.95723442        4       0.00000000      -0.00148254      -0.00889702      -0.02559174
Pt       5.61442782      -0.00000007      19.95723448        4       0.00000000      -0.00765904      -0.00316406       0.01825557
Pt       1.40360721       2.43111841      19.95723428        4       0.00000000      -0.00033380      -0.00455155       0.01464025
Pt       4.21082083       2.43111835      19.95723436        4       0.00000000       0.00411191       0.00202410       0.01474767
Pt       7.01803478       2.43111845      19.95723424        4       0.00000000       0.00101196       0.00822008       0.01815879
Pt       2.80721407       4.86223728      19.95723400        4       0.00000000      -0.00376565       0.00257158       0.01477965
Pt       5.61442803       4.86223733      19.95723419        4       0.00000000       0.00844907       0.00310902      -0.02559649
Pt       8.42164139       4.86223726      19.95723434        4       0.00000000      -0.00698145       0.00574700      -0.02565243
Pt       1.40360728       0.81037259      22.29206791        3       0.00000000       0.06006243      -0.04245684      -0.12943020
Pt       4.21082130       0.81037249      22.29206784        3       0.00000000      -0.06914413      -0.04289893      -0.13708885
Pt       7.01803471       0.81037256      22.29206781        3       0.00000000       0.00000887       0.00005108      -0.22581021
Pt       2.80721448       3.24149124      22.29206773        3       0.00000000      -0.00000605       0.00000209      -0.10973027
Pt       5.61442763       3.24149123      22.29206786        3       0.00000000       0.00669342       0.07336851      -0.12935583
Pt       8.42164156       3.24149129      22.29206804        3       0.00000000      -0.00267353       0.08140273      -0.13698873
Pt       4.21082092       5.67260997      22.29206793        3       0.00000000       0.07189472      -0.03847798      -0.13669616
Pt       7.01803487       5.67261037      22.29206776        3       0.00000000      -0.00003569      -0.00008725      -0.27012318
Pt       9.82524821       5.67261065      22.29206806        3       0.00000000      -0.06678384      -0.03086592      -0.12894036
Pt      -0.00000053       1.62074569      24.58417386        2       0.00000000       0.49188817       0.29171866       0.29390696
Pt       2.80721443       1.62074549      24.58417398        2       0.00000000       0.00796577      -0.00106269      -0.07608429
Pt       5.61442778       1.62074537      24.58417377        2       0.00000000      -0.49881619       0.28023332       0.29418236
Pt       1.40360637       4.05186439      24.58417390        2       0.00000000      -0.00500173      -0.00634679      -0.07646911
Pt       4.21082088       4.05186403      24.58417379        2       0.00000000      -0.00288834       0.00765827      -0.07621282
Pt       7.01803504       4.05186408      24.58417406        2       0.00000000      -0.00521109      -0.12811638       0.26576722
Pt       2.80721282       6.48298343      24.58417376        2       0.00000000       0.00689574      -0.57245833       0.29365394
Pt       5.61442796       6.48298325      24.58417391        2       0.00000000      -0.10868388       0.06837597       0.26652700
Pt       8.42164222       6.48298341      24.58417381        2       0.00000000       0.11371305       0.05967667       0.26683417
Pt       0.12461055      -0.06863825      27.18463662        1       0.00000000       0.02920075      -0.01620719      -0.01454877
Pt       2.81163236       0.00814002      26.89428252        1       0.00000000      -0.01923775      -0.00679872       0.00196316
Pt       5.49292314      -0.07360642      27.18467238        1       0.00000000      -0.03571709      -0.01958975      -0.01689720
Pt       1.42104394       2.44042396      26.90050139        1       0.00000000      -0.00890268      -0.01493075      -0.01233113
Pt       4.19394570       2.44156386      26.90062921        1       0.00000000       0.01726295      -0.00060610      -0.01270133
Pt       7.01504889       2.57383715      27.18454741        1       0.00000000       0.00050235       0.01869707      -0.00979119
Pt       2.80657229       4.84237177      26.90067542        1       0.00000000      -0.00851695       0.01498050      -0.01289795
Pt       5.60500125       4.86187836      26.89458249        1       0.00000000       0.01541081      -0.01267080       0.00146781
Pt       8.42646619       4.85406060      26.89444814        1       0.00000000       0.00509028       0.02276099       0.00175540
C        7.01782620       0.80981524      27.91130591        0       1.00000000       0.00493377       0.01430484       0.01807803
H        7.01800145       0.81027423      25.36082763        0       0.00000000       0.00009955       0.00033515      -0.01400603
