38
Lattice="8.421641763931781 0.0 0.0 4.2108208819658905 7.293355709136913 0.0 0.0 0.0 46.87624170604845" Properties=species:S:1:pos:R:3:tags:I:1:initial_magmoms:R:1:forces:R:3 charge=0 spin=0 energy=-197.50848174770596 free_energy=-197.50848174770596 stress="0.009098640643060207 -1.5653256468795007e-07 -7.274825630787518e-09 -1.5653256468795007e-07 0.009098597802221775 7.571937032935239e-08 -7.274825630787518e-09 7.571937032935239e-08 -0.0007910830317996442" pbc="T T T"
Pt      -0.00000012       0.00000002      19.95723426        4       0.00000000      -0.00025858      -0.00618046       0.02226631
Pt       2.80721404      -0.00000018      19.95723442        4       0.00000000       0.00856002      -0.00382019       0.01935718
Pt       5.61442782      -0.00000007      19.95723448        4       0.00000000      -0.00756853      -0.00546893       0.01930255
Pt       1.40360721       2.43111841      19.95723428        4       0.00000000       0.00548888       0.00282042       0.02235248
Pt       4.21082083       2.43111835      19.95723436        4       0.00000000       0.00277033       0.02442179      -0.03705206
Pt       7.01803478       2.43111845      19.95723424        4       0.00000000      -0.00522971       0.00336203       0.02250621
Pt       2.80721407       4.86223728      19.95723400        4       0.00000000       0.01975875      -0.01461895      -0.03709553
Pt       5.61442803       4.86223733      19.95723419        4       0.00000000      -0.02252620      -0.00980590      -0.03688001
Pt       8.42164139       4.86223726      19.95723434        4       0.00000000      -0.00099406       0.00929283       0.01955892
Pt       1.40360728       0.81037259      22.29206791        3       0.00000000       0.02444803      -0.00784660      -0.01864121
Pt       4.21082130       0.81037249      22.29206784        3       0.00000000       0.00024754       0.10218190      -0.15140083
Pt       7.01803471       0.81037256      22.29206781        3       0.00000000      -0.01906375      -0.01720526      -0.01857458
Pt       2.80721448       3.24149124      22.29206773        3       0.00000000       0.04277712       0.02411649      -0.19443128
Pt       5.61442763       3.24149123      22.29206786        3       0.00000000      -0.04238111       0.02488470      -0.19430290
Pt       8.42164156       3.24149129      22.29206804        3       0.00000000      -0.00537813       0.02505442      -0.01807373
Pt       4.21082092       5.67260997      22.29206793        3       0.00000000      -0.00040093      -0.04899506      -0.19458078
Pt       7.01803487       5.67261037      22.29206776        3       0.00000000      -0.08869735      -0.05081590      -0.15105556
Pt       9.82524821       5.67261065      22.29206806        3       0.00000000       0.08844553      -0.05136544      -0.15111700
Pt      -0.00000053       1.62074569      24.58417386        2       0.00000000       0.00000182       0.00004000       0.02688009
Pt       2.80721443       1.62074549      24.58417398        2       0.00000000       0.01912972      -0.25229931       0.32898068
Pt       5.61442778       1.62074537      24.58417377        2       0.00000000      -0.02442408      -0.25274616       0.33160558
Pt       1.40360637       4.05186439      24.58417390        2       0.00000000      -0.20640568       0.14749990       0.33100149
Pt       4.21082088       4.05186403      24.58417379        2       0.00000000      -0.00000371      -0.00003330      -0.23460606
Pt       7.01803504       4.05186408      24.58417406        2       0.00000000       0.20878933       0.14277630       0.32872695
Pt       2.80721282       6.48298343      24.58417376        2       0.00000000      -0.22790930       0.10951670       0.32903129
Pt       5.61442796       6.48298325      24.58417391        2       0.00000000       0.23081827       0.10525052       0.33138523
Pt       8.42164222       6.48298341      24.58417381        2       0.00000000       0.00002873       0.00003070      -0.64002520
Pt       0.00079980      -0.00594454      26.90733807        1       0.00000000       0.00213014       0.00739443      -0.01674315
Pt       2.71895806       0.05573482      27.29538138        1       0.00000000      -0.00356126      -0.00090861      -0.00398523
Pt       5.70685186       0.04859828      27.29539073        1       0.00000000       0.00102801       0.00355444      -0.00404982
Pt       1.40837866       2.43475085      26.90738234        1       0.00000000      -0.00749006      -0.00180771      -0.01678935
Pt       4.21066656       2.45821734      26.90279575        1       0.00000000       0.00451023      -0.01666245      -0.00142068
Pt       7.01249179       2.43344351      26.90736644        1       0.00000000       0.00536627      -0.00552966      -0.01676134
Pt       2.83074081       4.84879245      26.90275784        1       0.00000000      -0.01670995       0.00444202      -0.00140012
Pt       5.59102234       4.84858910      26.90274416        1       0.00000000       0.01217249       0.01221743      -0.00135815
Pt       8.41752386       4.75794264      27.29537941        1       0.00000000       0.00258766      -0.00281804      -0.00406233
C        8.42166922       6.48299116      28.18019781        0       1.00000000       0.00000492       0.00013036      -0.00913848
H        8.42158791       6.48292112      26.17534363        0       0.00000000      -0.00006139      -0.00005953       0.02059028
