38
Lattice="8.421641763931781 0.0 0.0 4.2108208819658905 7.293355709136913 0.0 0.0 0.0 46.87624170604845" Properties=species:S:1:pos:R:3:tags:I:1:initial_magmoms:R:1:forces:R:3 charge=0 spin=0 energy=-192.90322852810147 free_energy=-192.90322852810147 stress="0.010190223343670368 -1.2587265985075646e-07 1.1136742728012905e-07 -1.2587265985075646e-07 0.010190203785896301 -2.7690710169281374e-08 1.1136742728012905e-07 -2.7690710169281374e-08 -0.00012900448928121477" pbc="T T T"
Pt      -0.00000012       0.00000002      19.95723426        4       0.00000000       0.00000421      -0.00000154      -0.01063084
Pt       2.80721404      -0.00000018      19.95723442        4       0.00000000      -0.00427178      -0.00069918       0.01717491
Pt       5.61442782      -0.00000007      19.95723448        4       0.00000000       0.00325399       0.00125371       0.01644105
Pt       1.40360721       2.43111841      19.95723428        4       0.00000000      -0.00054991      -0.00344075       0.01647570
Pt       4.21082083       2.43111835      19.95723436        4       0.00000000       0.00000264       0.00000204       0.01358815
Pt       7.01803478       2.43111845      19.95723424        4       0.00000000       0.00274151      -0.00334980       0.01719488
Pt       2.80721407       4.86223728      19.95723400        4       0.00000000       0.00152849       0.00404878       0.01719276
Pt       5.61442803       4.86223733      19.95723419        4       0.00000000      -0.00270688       0.00218911       0.01644236
Pt       8.42164139       4.86223726      19.95723434        4       0.00000000       0.00000201      -0.00000500       0.01530140
Pt       1.40360728       0.81037259      22.29206791        3       0.00000000      -0.00408104      -0.00345618      -0.04062020
Pt       4.21082130       0.81037249      22.29206784        3       0.00000000      -0.00039586       0.00102605      -0.05218905
Pt       7.01803471       0.81037256      22.29206781        3       0.00000000       0.00507321      -0.00180788      -0.04064668
Pt       2.80721448       3.24149124      22.29206773        3       0.00000000       0.00109408      -0.00014348      -0.05217824
Pt       5.61442763       3.24149123      22.29206786        3       0.00000000      -0.00070033      -0.00087861      -0.05219927
Pt       8.42164156       3.24149129      22.29206804        3       0.00000000       0.00145831       0.00349489      -0.05267180
Pt       4.21082092       5.67260997      22.29206793        3       0.00000000      -0.00099212       0.00527076      -0.04063724
Pt       7.01803487       5.67261037      22.29206776        3       0.00000000       0.00227383      -0.00300372      -0.05266929
Pt       9.82524821       5.67261065      22.29206806        3       0.00000000      -0.00371378      -0.00051444      -0.05267632
Pt      -0.00000053       1.62074569      24.58417386        2       0.00000000       0.00322039      -0.00707501       0.03061183
Pt       2.80721443       1.62074549      24.58417398        2       0.00000000      -0.00994361      -0.00510123       0.02803956
Pt       5.61442778       1.62074537      24.58417377        2       0.00000000       0.00934303      -0.00603608       0.02808603
Pt       1.40360637       4.05186439      24.58417390        2       0.00000000      -0.00687717      -0.00320625       0.04778516
Pt       4.21082088       4.05186403      24.58417379        2       0.00000000       0.00056450       0.01115942       0.02811071
Pt       7.01803504       4.05186408      24.58417406        2       0.00000000       0.00061864       0.00760814       0.04776348
Pt       2.80721282       6.48298343      24.58417376        2       0.00000000       0.00457265       0.00631848       0.03070164
Pt       5.61442796       6.48298325      24.58417391        2       0.00000000      -0.00776364       0.00074362       0.03067325
Pt       8.42164222       6.48298341      24.58417381        2       0.00000000       0.00621244      -0.00438850       0.04780477
Pt      -0.00001069       0.00000320      26.92174386        1       0.00000000      -0.00000111       0.00000325      -0.01017998
Pt       2.80380299      -0.00940302      26.91956497        1       0.00000000      -0.00608760      -0.01314810      -0.00230063
Pt       5.62013977      -0.00852780      26.91968548        1       0.00000000       0.00569438      -0.01338116      -0.00212273
Pt       1.39334418       2.43042507      26.91969682        1       0.00000000      -0.01444584       0.00175095      -0.00208430
Pt       4.21080193       2.43112521      26.90104867        1       0.00000000      -0.00003312       0.00001071       0.04244020
Pt       7.02786681       2.43288703      26.91955050        1       0.00000000       0.01443089       0.00132351      -0.00229105
Pt       2.80076877       4.86988595      26.91955586        1       0.00000000      -0.00834495       0.01183210      -0.00226859
Pt       5.61895706       4.87146853      26.91970121        1       0.00000000       0.00873026       0.01163005      -0.00209584
Pt       8.42163957       4.86224123      26.92090497        1       0.00000000      -0.00001358      -0.00000237      -0.00563546
C        4.21070539       2.43113403      29.94205667        0       1.00000000      -0.00045119       0.00009095      -0.03606351
H        4.21105376       2.43106264      28.76468850        0       0.00000000       0.00055418      -0.00011736       0.02033306
