38
Lattice="8.421641763931781 0.0 0.0 4.2108208819658905 7.293355709136913 0.0 0.0 0.0 46.87624170604845" Properties=species:S:1:pos:R:3:tags:I:1:initial_magmoms:R:1:forces:R:3 charge=0 spin=0 energy=-197.5084493227792 free_energy=-197.5084493227792 stress="0.0091070756316185 -3.4816702054740745e-07 9.622608132531241e-08 -3.4816702054740745e-07 0.009108133614063263 5.612524773823679e-07 9.622608132531241e-08 5.612524773823679e-07 -0.0007797107682563365" pbc="T T T"
Pt      -0.00000012       0.00000002      19.95723426        4       0.00000000      -0.00104452       0.00932356       0.01956278
Pt       2.80721404      -0.00000018      19.95723442        4       0.00000000       0.01979299      -0.01459188      -0.03710554
Pt       5.61442782      -0.00000007      19.95723448        4       0.00000000      -0.02247251      -0.00981592      -0.03682040
Pt       1.40360721       2.43111841      19.95723428        4       0.00000000      -0.00757099      -0.00553604       0.01934180
Pt       4.21082083       2.43111835      19.95723436        4       0.00000000      -0.00033445      -0.00618014       0.02228887
Pt       7.01803478       2.43111845      19.95723424        4       0.00000000       0.00861208      -0.00378692       0.01937153
Pt       2.80721407       4.86223728      19.95723400        4       0.00000000      -0.00520339       0.00340947       0.02253361
Pt       5.61442803       4.86223733      19.95723419        4       0.00000000       0.00553333       0.00275763       0.02237820
Pt       8.42164139       4.86223726      19.95723434        4       0.00000000       0.00272701       0.02447010      -0.03708915
Pt       1.40360728       0.81037259      22.29206791        3       0.00000000       0.08832537      -0.05135085      -0.15098117
Pt       4.21082130       0.81037249      22.29206784        3       0.00000000      -0.00044907      -0.04876548      -0.19441935
Pt       7.01803471       0.81037256      22.29206781        3       0.00000000      -0.08860403      -0.05071111      -0.15093769
Pt       2.80721448       3.24149124      22.29206773        3       0.00000000      -0.01907247      -0.01708237      -0.01881476
Pt       5.61442763       3.24149123      22.29206786        3       0.00000000       0.02431425      -0.00792321      -0.01890540
Pt       8.42164156       3.24149129      22.29206804        3       0.00000000       0.00029882       0.10214899      -0.15129851
Pt       4.21082092       5.67260997      22.29206793        3       0.00000000      -0.00527342       0.02496009      -0.01836397
Pt       7.01803487       5.67261037      22.29206776        3       0.00000000       0.04259378       0.02393973      -0.19425979
Pt       9.82524821       5.67261065      22.29206806        3       0.00000000      -0.04216238       0.02479532      -0.19412565
Pt      -0.00000053       1.62074569      24.58417386        2       0.00000000       0.00052914       0.00057167      -0.64367151
Pt       2.80721443       1.62074549      24.58417398        2       0.00000000      -0.22666040       0.10879978       0.33176339
Pt       5.61442778       1.62074537      24.58417377        2       0.00000000       0.23038915       0.10480029       0.33042541
Pt       1.40360637       4.05186439      24.58417390        2       0.00000000      -0.02471968      -0.25231147       0.33128336
Pt       4.21082088       4.05186403      24.58417379        2       0.00000000      -0.00005077       0.00005887       0.02967159
Pt       7.01803504       4.05186408      24.58417406        2       0.00000000       0.01937169      -0.25070485       0.33147851
Pt       2.80721282       6.48298343      24.58417376        2       0.00000000       0.20730938       0.14186367       0.33086723
Pt       5.61442796       6.48298325      24.58417391        2       0.00000000      -0.20564468       0.14755341       0.33018708
Pt       8.42164222       6.48298341      24.58417381        2       0.00000000      -0.00003181      -0.00007845      -0.22958925
Pt      -0.00417620      -0.10406971      27.29439017        1       0.00000000      -0.00010027       0.00444644       0.00019533
Pt       2.82994554      -0.01438451      26.90385104        1       0.00000000      -0.01156923       0.00754524      -0.00502527
Pt       5.59059942      -0.01230806      26.90377563        1       0.00000000       0.01222761       0.00599705      -0.00470842
Pt       1.49603149       2.47965137      27.29449221        1       0.00000000      -0.00092230      -0.00116520      -0.00152112
Pt       4.21292169       2.42445853      26.90764632        1       0.00000000      -0.00645644       0.01076168      -0.01779773
Pt       6.93003153       2.48698067      27.29443493        1       0.00000000       0.00284457      -0.00088912      -0.00055284
Pt       2.80056605       4.86413086      26.90767671        1       0.00000000       0.01160914      -0.00115477      -0.01784520
Pt       5.61931049       4.86728350      26.90764066        1       0.00000000      -0.00617750      -0.01004762      -0.01770697
Pt       8.42287082       4.88911598      26.90392999        1       0.00000000      -0.00070377      -0.01355053      -0.00520214
C        8.42183325       1.62103540      28.18089302        0       1.00000000      -0.00030672      -0.00124837      -0.01806704
H        8.42071384       1.61954397      26.17529582        0       0.00000000      -0.00094760      -0.00130863       0.02346052
