38
Lattice="8.421641763931781 0.0 0.0 4.2108208819658905 7.293355709136913 0.0 0.0 0.0 46.87624170604845" Properties=species:S:1:pos:R:3:tags:I:1:initial_magmoms:R:1:forces:R:3 charge=0 spin=0 energy=-198.04620147426846 free_energy=-198.04620147426846 stress="0.008094471879303455 9.771592158358544e-05 1.9936798707931302e-05 9.771592158358544e-05 0.007256124634295702 -7.271033246070147e-05 1.9936798707931302e-05 -7.271033246070147e-05 -0.0007640309049747884" pbc="T T T"
Pt      -0.00000012       0.00000002      19.95723426        4       0.00000000       0.00392281       0.00130322       0.00946304
Pt       2.80721404      -0.00000018      19.95723442        4       0.00000000      -0.00262609       0.00625699       0.01966721
Pt       5.61442782      -0.00000007      19.95723448        4       0.00000000      -0.00487081      -0.00007799       0.01438730
Pt       1.40360721       2.43111841      19.95723428        4       0.00000000      -0.00620046      -0.00844489      -0.01277348
Pt       4.21082083       2.43111835      19.95723436        4       0.00000000       0.00899767      -0.00229743      -0.01127255
Pt       7.01803478       2.43111845      19.95723424        4       0.00000000      -0.00389986       0.00586098       0.01099675
Pt       2.80721407       4.86223728      19.95723400        4       0.00000000       0.02818566      -0.02337459      -0.01539360
Pt       5.61442803       4.86223733      19.95723419        4       0.00000000      -0.01474719      -0.00115647       0.00086147
Pt       8.42164139       4.86223726      19.95723434        4       0.00000000      -0.00632995      -0.00349519       0.02506289
Pt       1.40360728       0.81037259      22.29206791        3       0.00000000       0.00523462       0.01331494      -0.05293794
Pt       4.21082130       0.81037249      22.29206784        3       0.00000000      -0.00885627       0.03768799      -0.07937200
Pt       7.01803471       0.81037256      22.29206781        3       0.00000000      -0.00426476      -0.01590554      -0.08074970
Pt       2.80721448       3.24149124      22.29206773        3       0.00000000      -0.00970554       0.00931442      -0.27270901
Pt       5.61442763       3.24149123      22.29206786        3       0.00000000      -0.04083142       0.00976847      -0.09145688
Pt       8.42164156       3.24149129      22.29206804        3       0.00000000       0.02464386       0.00993177      -0.07743527
Pt       4.21082092       5.67260997      22.29206793        3       0.00000000      -0.06127568      -0.04139502      -0.18536291
Pt       7.01803487       5.67261037      22.29206776        3       0.00000000      -0.01860963      -0.01203536       0.01656182
Pt       9.82524821       5.67261065      22.29206806        3       0.00000000       0.09327619      -0.06200008      -0.20349969
Pt      -0.00000053       1.62074569      24.58417386        2       0.00000000       0.06784764      -0.04155227      -0.09832869
Pt       2.80721443       1.62074549      24.58417398        2       0.00000000      -0.03237712      -0.16849607       0.17354128
Pt       5.61442778       1.62074537      24.58417377        2       0.00000000       0.00856713       0.02165480      -0.04564153
Pt       1.40360637       4.05186439      24.58417390        2       0.00000000      -0.09493307       0.07537962       0.17518342
Pt       4.21082088       4.05186403      24.58417379        2       0.00000000       0.13144547       0.03667744       0.12898700
Pt       7.01803504       4.05186408      24.58417406        2       0.00000000       0.01488387       0.11037723       0.15763912
Pt       2.80721282       6.48298343      24.58417376        2       0.00000000       0.03733402       0.04409579       0.01954155
Pt       5.61442796       6.48298325      24.58417391        2       0.00000000       0.17518401       0.02380587       0.24445069
Pt       8.42164222       6.48298341      24.58417381        2       0.00000000      -0.23337162      -0.01498621       0.20676199
Pt       0.05289293       0.01219213      26.90703570        1       0.00000000      -0.02179531      -0.01625063       0.00161382
Pt       2.80333382       0.24488459      27.59124000        1       0.00000000       0.03020402      -0.01440069      -0.02111171
Pt       5.67965410       0.00050757      26.96901597        1       0.00000000      -0.02048904       0.00818517       0.02433740
Pt       1.42406017       2.42199006      26.88004535        1       0.00000000       0.01842654       0.02180741       0.01016153
Pt       4.23205474       2.45587092      26.91719114        1       0.00000000      -0.03230890      -0.02812537      -0.00309126
Pt       7.04293282       2.38580469      26.88343505        1       0.00000000      -0.02046303      -0.00049297       0.00756667
Pt       2.82849214       4.86806738      26.90179888        1       0.00000000       0.01695823      -0.00373683      -0.01303828
Pt       5.54625400       4.81085130      27.00739966        1       0.00000000      -0.00754786      -0.00906895      -0.00228447
Pt       8.53554662       4.78094804      27.07107922        1       0.00000000      -0.00855515      -0.00268297       0.02310367
C        7.02728189       5.65229409      27.85418750        0       1.00000000       0.00886876       0.01702443      -0.00755070
H        8.20624245       7.18062264      26.23238262        0       0.00000000      -0.01992164       0.01752891       0.00412094
