38
Lattice="8.421641763931781 0.0 0.0 4.2108208819658905 7.293355709136913 0.0 0.0 0.0 46.87624170604845" Properties=species:S:1:pos:R:3:tags:I:1:initial_magmoms:R:1:forces:R:3 charge=0 spin=0 energy=-198.04622054775479 free_energy=-198.04622054775479 stress="0.00755251245573163 -0.00041202257853001356 5.143214002600871e-05 -0.00041202257853001356 0.007799971383064985 5.4576710681430995e-05 5.143214002600871e-05 5.4576710681430995e-05 -0.0007631169864907861" pbc="T T T"
Pt      -0.00000012       0.00000002      19.95723426        4       0.00000000      -0.00410425      -0.00540315       0.01978001
Pt       2.80721404      -0.00000018      19.95723442        4       0.00000000       0.00837069      -0.01214765       0.00080521
Pt       5.61442782      -0.00000007      19.95723448        4       0.00000000      -0.00250356       0.00900131      -0.01131049
Pt       1.40360721       2.43111841      19.95723428        4       0.00000000       0.00614607      -0.00375879       0.02499974
Pt       4.21082083       2.43111835      19.95723436        4       0.00000000      -0.00314600      -0.00630731       0.01085175
Pt       7.01803478       2.43111845      19.95723424        4       0.00000000       0.00255884      -0.00418283       0.01444519
Pt       2.80721407       4.86223728      19.95723400        4       0.00000000       0.01033046      -0.00115763      -0.01275696
Pt       5.61442803       4.86223733      19.95723419        4       0.00000000      -0.00308386       0.00272819       0.00955144
Pt       8.42164139       4.86223726      19.95723434        4       0.00000000       0.00614557       0.03610878      -0.01535257
Pt       1.40360728       0.81037259      22.29206791        3       0.00000000       0.01966662      -0.01002506       0.01637247
Pt       4.21082130       0.81037249      22.29206784        3       0.00000000       0.01197136      -0.04042749      -0.09183464
Pt       7.01803471       0.81037256      22.29206781        3       0.00000000      -0.02834878      -0.02644463      -0.07952160
Pt       2.80721448       3.24149124      22.29206773        3       0.00000000      -0.02083558       0.01646426      -0.07744655
Pt       5.61442763       3.24149123      22.29206786        3       0.00000000       0.01581581       0.00435521      -0.08078301
Pt       8.42164156       3.24149129      22.29206804        3       0.00000000       0.00689146       0.11185209      -0.20347081
Pt       4.21082092       5.67260997      22.29206793        3       0.00000000      -0.01406970      -0.00196171      -0.05255526
Pt       7.01803487       5.67261037      22.29206776        3       0.00000000       0.06645589      -0.03248242      -0.18520619
Pt       9.82524821       5.67261065      22.29206806        3       0.00000000      -0.00313228      -0.01316497      -0.27253938
Pt      -0.00000053       1.62074569      24.58417386        2       0.00000000       0.12956348      -0.19470455       0.20732252
Pt       2.80721443       1.62074549      24.58417398        2       0.00000000      -0.10275522      -0.04236154       0.15798928
Pt       5.61442778       1.62074537      24.58417377        2       0.00000000      -0.02296229      -0.00339336      -0.04539008
Pt       1.40360637       4.05186439      24.58417390        2       0.00000000      -0.01762201      -0.12005784       0.17546028
Pt       4.21082088       4.05186403      24.58417379        2       0.00000000       0.00208865       0.07939293      -0.09823087
Pt       7.01803504       4.05186408      24.58417406        2       0.00000000      -0.05667836       0.01016447       0.01946616
Pt       2.80721282       6.48298343      24.58417376        2       0.00000000       0.16204140       0.05605306       0.17361453
Pt       5.61442796       6.48298325      24.58417391        2       0.00000000      -0.10811929       0.13979724       0.24425764
Pt       8.42164222       6.48298341      24.58417381        2       0.00000000      -0.09734204       0.09554280       0.12885720
Pt      -0.21005002      -0.12589222      27.59135079        1       0.00000000      -0.00262837       0.03309888      -0.02121710
Pt       2.88586275      -0.03334748      27.00730419        1       0.00000000       0.01170725      -0.00211659      -0.00206925
Pt       5.58251649       0.00602343      26.91721301        1       0.00000000       0.04025003      -0.01430304      -0.00318528
Pt       1.41719015       2.57034312      27.07097411        1       0.00000000       0.00653388      -0.00588333       0.02326527
Pt       4.23793554       2.47531656      26.88355127        1       0.00000000       0.01010246      -0.01765222       0.00726029
Pt       6.98518000       2.48715318      26.96922582        1       0.00000000       0.00333743      -0.02167491       0.02373138
Pt       2.80502229       4.88435583      26.88010613        1       0.00000000      -0.02797635       0.00558717       0.00994283
Pt       5.57763020       4.90170872      26.90704944        1       0.00000000       0.02469267      -0.01017778       0.00156469
Pt       8.40597607       4.87774057      26.90180284        1       0.00000000      -0.00490231       0.01633023      -0.01306920
C        1.41665028       0.82851190      27.85417094        0       1.00000000      -0.01897400      -0.00093136      -0.00748374
H       -0.49606369       1.08510813      26.23248161        0       0.00000000      -0.00548588      -0.02575640       0.00388482
