38
Lattice="8.421641763931781 0.0 0.0 4.2108208819658905 7.293355709136913 0.0 0.0 0.0 46.87624170604845" Properties=species:S:1:pos:R:3:tags:I:1:initial_magmoms:R:1:forces:R:3 charge=0 spin=0 energy=-197.50808501919033 free_energy=-197.50808501919033 stress="0.009057381190359592 -1.3757590977547807e-07 1.9896559955157045e-09 -1.3757590977547807e-07 0.009057335555553436 4.692989463705999e-08 1.9896559955157045e-09 4.692989463705999e-08 -0.0008546661701984704" pbc="T T T"
Pt      -0.00000012       0.00000002      19.95723426        4       0.00000000      -0.02258660      -0.00967333      -0.03704415
Pt       2.80721404      -0.00000018      19.95723442        4       0.00000000      -0.00103327       0.00917503       0.01907836
Pt       5.61442782      -0.00000007      19.95723448        4       0.00000000       0.01967517      -0.01473197      -0.03726603
Pt       1.40360721       2.43111841      19.95723428        4       0.00000000       0.00847087      -0.00372867       0.01889588
Pt       4.21082083       2.43111835      19.95723436        4       0.00000000      -0.00743679      -0.00544155       0.01883831
Pt       7.01803478       2.43111845      19.95723424        4       0.00000000      -0.00029932      -0.00597719       0.02191432
Pt       2.80721407       4.86223728      19.95723400        4       0.00000000       0.00291491       0.02440520      -0.03720719
Pt       5.61442803       4.86223733      19.95723419        4       0.00000000      -0.00503688       0.00328892       0.02215592
Pt       8.42164139       4.86223726      19.95723434        4       0.00000000       0.00533445       0.00268131       0.02200210
Pt       1.40360728       0.81037259      22.29206791        3       0.00000000      -0.08907554      -0.05120529      -0.14867501
Pt       4.21082130       0.81037249      22.29206784        3       0.00000000       0.08896708      -0.05148475      -0.14872882
Pt       7.01803471       0.81037256      22.29206781        3       0.00000000      -0.00045515      -0.04877042      -0.19726641
Pt       2.80721448       3.24149124      22.29206773        3       0.00000000       0.00008869       0.10270073      -0.14903001
Pt       5.61442763       3.24149123      22.29206786        3       0.00000000      -0.01938471      -0.01737588      -0.01717624
Pt       8.42164156       3.24149129      22.29206804        3       0.00000000       0.02476372      -0.00803758      -0.01725135
Pt       4.21082092       5.67260997      22.29206793        3       0.00000000      -0.04215512       0.02482213      -0.19699597
Pt       7.01803487       5.67261037      22.29206776        3       0.00000000      -0.00537241       0.02540650      -0.01668395
Pt       9.82524821       5.67261065      22.29206806        3       0.00000000       0.04262036       0.02393839      -0.19712438
Pt      -0.00000053       1.62074569      24.58417386        2       0.00000000       0.24021389       0.10299797       0.31780753
Pt       2.80721443       1.62074549      24.58417398        2       0.00000000       0.00000239      -0.00000230      -0.59256709
Pt       5.61442778       1.62074537      24.58417377        2       0.00000000      -0.23774295       0.10493084       0.31644613
Pt       1.40360637       4.05186439      24.58417390        2       0.00000000       0.02801275      -0.25854746       0.31632891
Pt       4.21082088       4.05186403      24.58417379        2       0.00000000      -0.03101725      -0.25980377       0.31785569
Pt       7.01803504       4.05186408      24.58417406        2       0.00000000       0.00000499      -0.00000728      -0.01357470
Pt       2.80721282       6.48298343      24.58417376        2       0.00000000       0.00000459       0.00001513      -0.21587226
Pt       5.61442796       6.48298325      24.58417391        2       0.00000000       0.20970918       0.15360799       0.31614855
Pt       8.42164222       6.48298341      24.58417381        2       0.00000000      -0.20917521       0.15680097       0.31733280
Pt      -0.01805018      -0.00833731      26.90118284        1       0.00000000      -0.02740780      -0.01895208      -0.00334934
Pt       2.80556314      -0.10332444      27.29849686        1       0.00000000      -0.00589733      -0.03237218      -0.01024934
Pt       5.63067407      -0.01145175      26.90119021        1       0.00000000       0.03012116      -0.01430330      -0.00336467
Pt       1.31495577       2.48421083      27.29848854        1       0.00000000      -0.02507820       0.02128488      -0.01024297
Pt       4.30113012       2.48134928      27.29849606        1       0.00000000       0.03095561       0.01107613      -0.01024217
Pt       7.01834551       2.42903947      26.89637332        1       0.00000000      -0.00238899      -0.01879236       0.01887792
Pt       2.80901504       4.88203496      26.90115449        1       0.00000000      -0.00285681       0.03322871      -0.00317209
Pt       5.61248802       4.86300489      26.89636864        1       0.00000000      -0.01504938       0.01163835       0.01899246
Pt       8.42328653       4.86354604      26.89637190        1       0.00000000       0.01758078       0.00717000       0.01898549
C        2.80721482       1.62074227      28.18220448        0       1.00000000       0.00002134       0.00003828       0.01095595
H        2.80720040       1.62074300      26.17951069        0       0.00000000      -0.00001229      -0.00000031      -0.02953230
