38
Lattice="8.421641763931781 0.0 0.0 4.2108208819658905 7.293355709136913 0.0 0.0 0.0 46.87624170604845" Properties=species:S:1:pos:R:3:tags:I:1:initial_magmoms:R:1:forces:R:3 charge=0 spin=0 energy=-197.93908286770107 free_energy=-197.93908286770107 stress="0.007025828585028648 -1.1972461777531862e-07 1.5118198248842418e-08 -1.1972461777531862e-07 0.007025192026048899 -9.983510018685138e-09 1.5118198248842418e-08 -9.983510018685138e-09 -0.0010193358175456524" pbc="T T T"
Pt      -0.00000012       0.00000002      19.95723426        4       0.00000000       0.00607551      -0.00489750       0.01775479
Pt       2.80721404      -0.00000018      19.95723442        4       0.00000000      -0.00144058      -0.00943214      -0.02557682
Pt       5.61442782      -0.00000007      19.95723448        4       0.00000000      -0.00725013      -0.00274005       0.01778288
Pt       1.40360721       2.43111841      19.95723428        4       0.00000000      -0.00024311      -0.00441526       0.01463639
Pt       4.21082083       2.43111835      19.95723436        4       0.00000000       0.00392412       0.00199713       0.01476101
Pt       7.01803478       2.43111845      19.95723424        4       0.00000000       0.00117735       0.00764085       0.01769857
Pt       2.80721407       4.86223728      19.95723400        4       0.00000000      -0.00367627       0.00241770       0.01480708
Pt       5.61442803       4.86223733      19.95723419        4       0.00000000       0.00892042       0.00343102      -0.02548693
Pt       8.42164139       4.86223726      19.95723434        4       0.00000000      -0.00748249       0.00599629      -0.02557472
Pt       1.40360728       0.81037259      22.29206791        3       0.00000000       0.06028220      -0.04186817      -0.13186921
Pt       4.21082130       0.81037249      22.29206784        3       0.00000000      -0.06958625      -0.04305155      -0.13934004
Pt       7.01803471       0.81037256      22.29206781        3       0.00000000       0.00000298       0.00000481      -0.22161101
Pt       2.80721448       3.24149124      22.29206773        3       0.00000000      -0.00000624      -0.00000130      -0.10852233
Pt       5.61442763       3.24149123      22.29206786        3       0.00000000       0.00605276       0.07320628      -0.13173930
Pt       8.42164156       3.24149129      22.29206804        3       0.00000000      -0.00257332       0.08183809      -0.13914849
Pt       4.21082092       5.67260997      22.29206793        3       0.00000000       0.07216205      -0.03877788      -0.13893071
Pt       7.01803487       5.67261037      22.29206776        3       0.00000000      -0.00000035       0.00000087      -0.26968628
Pt       9.82524821       5.67261065      22.29206806        3       0.00000000      -0.06632140      -0.03134545      -0.13138096
Pt      -0.00000053       1.62074569      24.58417386        2       0.00000000       0.48941433       0.28973651       0.29068562
Pt       2.80721443       1.62074549      24.58417398        2       0.00000000       0.00867920       0.00058551      -0.07332560
Pt       5.61442778       1.62074537      24.58417377        2       0.00000000      -0.49564207       0.27904460       0.29085061
Pt       1.40360637       4.05186439      24.58417390        2       0.00000000      -0.00403341      -0.00794587      -0.07366929
Pt       4.21082088       4.05186403      24.58417379        2       0.00000000      -0.00473648       0.00743819      -0.07354549
Pt       7.01803504       4.05186408      24.58417406        2       0.00000000      -0.00236866      -0.12333707       0.27896100
Pt       2.80721282       6.48298343      24.58417376        2       0.00000000       0.00638610      -0.56878543       0.29057410
Pt       5.61442796       6.48298325      24.58417391        2       0.00000000      -0.10558234       0.06367114       0.27895257
Pt       8.42164222       6.48298341      24.58417381        2       0.00000000       0.10782527       0.05958668       0.27900553
Pt       0.12679802      -0.07121408      27.19009351        1       0.00000000       0.02528684      -0.01896136      -0.02214031
Pt       2.80823718       0.01337590      26.89837829        1       0.00000000      -0.00219969      -0.03059640      -0.01464599
Pt       5.48933356      -0.07421054      27.19008046        1       0.00000000      -0.02892679      -0.01247568      -0.02209224
Pt       1.41359099       2.43613058      26.89728012        1       0.00000000       0.02986822       0.01180947      -0.00597869
Pt       4.20147781       2.43727110      26.89729474        1       0.00000000      -0.02514494       0.01998642      -0.00602212
Pt       7.01629564       2.57650422      27.19011129        1       0.00000000       0.00370848       0.03263146      -0.02255728
Pt       2.80655700       4.85107408      26.89732728        1       0.00000000      -0.00464350      -0.03173764      -0.00596223
Pt       5.60230300       4.85645438      26.89844319        1       0.00000000       0.02763807       0.01332087      -0.01466616
Pt       8.43269768       4.85464359      26.89842666        1       0.00000000      -0.02545591       0.01706814      -0.01463533
C        7.01802437       0.81040624      27.90602878        0       1.00000000      -0.00009450      -0.00103121       0.03414694
H        7.01803394       0.81037591      25.35766812        0       0.00000000       0.00000422      -0.00001208      -0.00250976
