38
Lattice="8.421641763931781 0.0 0.0 4.2108208819658905 7.293355709136913 0.0 0.0 0.0 46.87624170604845" Properties=species:S:1:pos:R:3:tags:I:1:initial_magmoms:R:1:forces:R:3 charge=0 spin=0 energy=-197.50797630031826 free_energy=-197.50797630031826 stress="0.009008827619254589 -1.280111519008642e-07 2.0586256255228363e-08 -1.280111519008642e-07 0.00900962483137846 3.504891878947092e-07 2.0586256255228363e-08 3.504891878947092e-07 -0.000919908401556313" pbc="T T T"
Pt      -0.00000012       0.00000002      19.95723426        4       0.00000000      -0.02255660      -0.00972157      -0.03708533
Pt       2.80721404      -0.00000018      19.95723442        4       0.00000000      -0.00103510       0.00888358       0.01950841
Pt       5.61442782      -0.00000007      19.95723448        4       0.00000000       0.01969641      -0.01467785      -0.03730747
Pt       1.40360721       2.43111841      19.95723428        4       0.00000000       0.00821230      -0.00358324       0.01931494
Pt       4.21082083       2.43111835      19.95723436        4       0.00000000      -0.00717993      -0.00529231       0.01925156
Pt       7.01803478       2.43111845      19.95723424        4       0.00000000      -0.00035199      -0.00608237       0.02200490
Pt       2.80721407       4.86223728      19.95723400        4       0.00000000       0.00286023       0.02436096      -0.03719017
Pt       5.61442803       4.86223733      19.95723419        4       0.00000000      -0.00509245       0.00338529       0.02223925
Pt       8.42164139       4.86223726      19.95723434        4       0.00000000       0.00544100       0.00268786       0.02208535
Pt       1.40360728       0.81037259      22.29206791        3       0.00000000      -0.08926702      -0.05116420      -0.15167077
Pt       4.21082130       0.81037249      22.29206784        3       0.00000000       0.08903939      -0.05166832      -0.15173347
Pt       7.01803471       0.81037256      22.29206781        3       0.00000000      -0.00051312      -0.04934416      -0.19480741
Pt       2.80721448       3.24149124      22.29206773        3       0.00000000       0.00020658       0.10279761      -0.15199968
Pt       5.61442763       3.24149123      22.29206786        3       0.00000000      -0.01977345      -0.01769585      -0.01649972
Pt       8.42164156       3.24149129      22.29206804        3       0.00000000       0.02523497      -0.00821075      -0.01657813
Pt       4.21082092       5.67260997      22.29206793        3       0.00000000      -0.04262025       0.02517039      -0.19451110
Pt       7.01803487       5.67261037      22.29206776        3       0.00000000      -0.00545765       0.02592222      -0.01598576
Pt       9.82524821       5.67261065      22.29206806        3       0.00000000       0.04314423       0.02419454      -0.19464472
Pt      -0.00000053       1.62074569      24.58417386        2       0.00000000       0.23393458       0.10497049       0.31806192
Pt       2.80721443       1.62074549      24.58417398        2       0.00000000      -0.00002459      -0.00036011      -0.66264814
Pt       5.61442778       1.62074537      24.58417377        2       0.00000000      -0.23125747       0.10832930       0.31656966
Pt       1.40360637       4.05186439      24.58417390        2       0.00000000       0.02184657      -0.25455806       0.31644934
Pt       4.21082088       4.05186403      24.58417379        2       0.00000000      -0.02619328      -0.25525102       0.31811970
Pt       7.01803504       4.05186408      24.58417406        2       0.00000000       0.00001126      -0.00002909      -0.01978588
Pt       2.80721282       6.48298343      24.58417376        2       0.00000000       0.00001745      -0.00007398      -0.24067436
Pt       5.61442796       6.48298325      24.58417391        2       0.00000000       0.20949420       0.14630832       0.31633559
Pt       8.42164222       6.48298341      24.58417381        2       0.00000000      -0.20779990       0.15035695       0.31768474
Pt      -0.02087225      -0.01136094      26.89803803        1       0.00000000      -0.00512540      -0.00259064       0.00820570
Pt       2.80527940      -0.10508900      27.29334447        1       0.00000000      -0.00613031      -0.01482039      -0.00181789
Pt       5.63468681      -0.01242634      26.89804772        1       0.00000000       0.00471675      -0.00325180       0.00819431
Pt       1.31376655       2.48510306      27.29334899        1       0.00000000      -0.01099693       0.01352050      -0.00211899
Pt       4.30262211       2.48175595      27.29339964        1       0.00000000       0.01715455       0.00292403      -0.00216946
Pt       7.01911937       2.43487145      26.90037789        1       0.00000000      -0.00544158      -0.04668920       0.00931753
Pt       2.80781780       4.88602540      26.89814039        1       0.00000000       0.00030493       0.00539667       0.00806166
Pt       5.61708560       4.85934950      26.90034425        1       0.00000000      -0.03743590       0.02809095       0.00950023
Pt       8.41792166       4.86121880      26.90035311        1       0.00000000       0.04295696       0.01842172       0.00949679
C        2.80721796       1.62061392      28.17382556        0       1.00000000      -0.00004471      -0.00144121       0.01495730
H        2.80723470       1.62150529      26.17351262        0       0.00000000       0.00002526       0.00078468       0.03386933
