38
Lattice="8.421641763931781 0.0 0.0 4.2108208819658905 7.293355709136913 0.0 0.0 0.0 46.87624170604845" Properties=species:S:1:pos:R:3:tags:I:1:initial_magmoms:R:1:forces:R:3 charge=0 spin=0 energy=-197.98579955776455 free_energy=-197.98579955776455 stress="0.007734612561762333 3.388534969417378e-05 -1.7198484783875756e-05 3.388534969417378e-05 0.007407207041978836 8.317998435813934e-05 -1.7198484783875756e-05 8.317998435813934e-05 -0.0006751271430402994" pbc="T T T"
Pt      -0.00000012       0.00000002      19.95723426        4       0.00000000       0.00579087       0.02103924       0.00340279
Pt       2.80721404      -0.00000018      19.95723442        4       0.00000000      -0.00161929      -0.00299367       0.00832014
Pt       5.61442782      -0.00000007      19.95723448        4       0.00000000       0.00496881      -0.00007844       0.00848674
Pt       1.40360721       2.43111841      19.95723428        4       0.00000000      -0.01717069      -0.00641611      -0.01326532
Pt       4.21082083       2.43111835      19.95723436        4       0.00000000      -0.00019862       0.00633190       0.01843515
Pt       7.01803478       2.43111845      19.95723424        4       0.00000000       0.01136392      -0.01161505      -0.01432242
Pt       2.80721407       4.86223728      19.95723400        4       0.00000000      -0.00573469       0.00024959       0.02792306
Pt       5.61442803       4.86223733      19.95723419        4       0.00000000       0.00329579      -0.00157604       0.02673875
Pt       8.42164139       4.86223726      19.95723434        4       0.00000000      -0.00049528       0.01103261      -0.01038191
Pt       1.40360728       0.81037259      22.29206791        3       0.00000000      -0.01683649       0.04230135      -0.12891471
Pt       4.21082130       0.81037249      22.29206784        3       0.00000000      -0.00046954       0.01237377      -0.07832737
Pt       7.01803471       0.81037256      22.29206781        3       0.00000000       0.02363286       0.03614249      -0.11890069
Pt       2.80721448       3.24149124      22.29206773        3       0.00000000      -0.07110895      -0.03121738      -0.13121575
Pt       5.61442763       3.24149123      22.29206786        3       0.00000000       0.06902740      -0.03164979      -0.12984870
Pt       8.42164156       3.24149129      22.29206804        3       0.00000000       0.00275647       0.00692456      -0.26223397
Pt       4.21082092       5.67260997      22.29206793        3       0.00000000       0.00173064       0.04155150      -0.01731021
Pt       7.01803487       5.67261037      22.29206776        3       0.00000000       0.01023243      -0.02337643      -0.06741383
Pt       9.82524821       5.67261065      22.29206806        3       0.00000000      -0.01139473      -0.02244431      -0.07168268
Pt      -0.00000053       1.62074569      24.58417386        2       0.00000000      -0.01074234      -0.14031351       0.19656280
Pt       2.80721443       1.62074549      24.58417398        2       0.00000000       0.00822049       0.00176680       0.00133031
Pt       5.61442778       1.62074537      24.58417377        2       0.00000000      -0.01453820       0.01553842       0.00301475
Pt       1.40360637       4.05186439      24.58417390        2       0.00000000       0.20444374       0.10732681       0.29002935
Pt       4.21082088       4.05186403      24.58417379        2       0.00000000       0.00517110       0.15956505      -0.16839957
Pt       7.01803504       4.05186408      24.58417406        2       0.00000000      -0.20964760       0.12130793       0.28817570
Pt       2.80721282       6.48298343      24.58417376        2       0.00000000       0.08478267      -0.10793789       0.23357970
Pt       5.61442796       6.48298325      24.58417391        2       0.00000000      -0.09563663      -0.12346676       0.23854698
Pt       8.42164222       6.48298341      24.58417381        2       0.00000000       0.00167874      -0.03679054      -0.08908737
Pt      -0.00177800       0.12732002      27.03375802        1       0.00000000       0.00099727       0.00807574      -0.01611327
Pt       2.82093748      -0.01377913      26.89525829        1       0.00000000      -0.01322534      -0.01273643       0.00327038
Pt       5.59398458      -0.00725465      26.89570023        1       0.00000000       0.01863141      -0.01166978      -0.00539068
Pt       1.40973158       2.43132898      26.90614428        1       0.00000000      -0.00541426      -0.00185224      -0.00263725
Pt       4.20825147       2.31040392      27.01391078        1       0.00000000      -0.01192436      -0.00294128       0.00117093
Pt       7.01005131       2.43418114      26.90535689        1       0.00000000       0.02063013      -0.01408853      -0.00839245
Pt       2.68146992       4.82743397      27.23918469        1       0.00000000      -0.03033326      -0.01668172      -0.02466227
Pt       5.74293688       4.81831681      27.26809853        1       0.00000000      -0.00995566       0.02489858       0.00080967
Pt       8.42173884       4.84354270      26.89414723        1       0.00000000      -0.00436822       0.01466965       0.00385593
C        4.20727923       5.75836999      27.94699593        0       1.00000000       0.04361211      -0.01121723       0.00460813
H        4.22948970       3.97377013      26.33076575        0       0.00000000       0.00984732      -0.02003294       0.00023907
