38
Lattice="8.421641763931781 0.0 0.0 4.2108208819658905 7.293355709136913 0.0 0.0 0.0 46.87624170604845" Properties=species:S:1:pos:R:3:tags:I:1:initial_magmoms:R:1:forces:R:3 charge=0 spin=0 energy=-197.50808692653897 free_energy=-197.50808692653897 stress="0.009057431481778622 -1.4401530279428698e-07 1.0087951807236095e-08 -1.4401530279428698e-07 0.009057407267391682 4.9477758778948555e-08 1.0087951807236095e-08 4.9477758778948555e-08 -0.0008545835153199732" pbc="T T T"
Pt      -0.00000012       0.00000002      19.95723426        4       0.00000000      -0.00029613      -0.00597895       0.02191395
Pt       2.80721404      -0.00000018      19.95723442        4       0.00000000       0.00846997      -0.00372710       0.01888610
Pt       5.61442782      -0.00000007      19.95723448        4       0.00000000      -0.00743919      -0.00543998       0.01882857
Pt       1.40360721       2.43111841      19.95723428        4       0.00000000       0.00533197       0.00268687       0.02200323
Pt       4.21082083       2.43111835      19.95723436        4       0.00000000       0.00291590       0.02441134      -0.03720749
Pt       7.01803478       2.43111845      19.95723424        4       0.00000000      -0.00503628       0.00329340       0.02215649
Pt       2.80721407       4.86223728      19.95723400        4       0.00000000       0.01967690      -0.01473915      -0.03725658
Pt       5.61442803       4.86223733      19.95723419        4       0.00000000      -0.02259084      -0.00967638      -0.03704430
Pt       8.42164139       4.86223726      19.95723434        4       0.00000000      -0.00103002       0.00916807       0.01908739
Pt       1.40360728       0.81037259      22.29206791        3       0.00000000       0.02475623      -0.00803530      -0.01724812
Pt       4.21082130       0.81037249      22.29206784        3       0.00000000       0.00009404       0.10270724      -0.14903188
Pt       7.01803471       0.81037256      22.29206781        3       0.00000000      -0.01938561      -0.01737237      -0.01717280
Pt       2.80721448       3.24149124      22.29206773        3       0.00000000       0.04260466       0.02395403      -0.19712505
Pt       5.61442763       3.24149123      22.29206786        3       0.00000000      -0.04215060       0.02481805      -0.19699447
Pt       8.42164156       3.24149129      22.29206804        3       0.00000000      -0.00536545       0.02541392      -0.01668868
Pt       4.21082092       5.67260997      22.29206793        3       0.00000000      -0.00045633      -0.04877228      -0.19726811
Pt       7.01803487       5.67261037      22.29206776        3       0.00000000      -0.08907644      -0.05121563      -0.14867707
Pt       9.82524821       5.67261065      22.29206806        3       0.00000000       0.08897713      -0.05150475      -0.14873300
Pt      -0.00000053       1.62074569      24.58417386        2       0.00000000       0.00001034      -0.00001017      -0.01356698
Pt       2.80721443       1.62074549      24.58417398        2       0.00000000       0.02800082      -0.25853983       0.31634149
Pt       5.61442778       1.62074537      24.58417377        2       0.00000000      -0.03101410      -0.25980294       0.31786901
Pt       1.40360637       4.05186439      24.58417390        2       0.00000000      -0.20915808       0.15680298       0.31733769
Pt       4.21082088       4.05186403      24.58417379        2       0.00000000      -0.00000728       0.00002682      -0.21585877
Pt       7.01803504       4.05186408      24.58417406        2       0.00000000       0.20970795       0.15361241       0.31615928
Pt       2.80721282       6.48298343      24.58417376        2       0.00000000      -0.23773183       0.10491753       0.31645620
Pt       5.61442796       6.48298325      24.58417391        2       0.00000000       0.24020606       0.10299511       0.31781885
Pt       8.42164222       6.48298341      24.58417381        2       0.00000000      -0.00000070      -0.00000937      -0.59256506
Pt       0.00031123      -0.00207673      26.89637783        1       0.00000000      -0.00239377      -0.01880513       0.01885902
Pt       2.71855663       0.05309563      27.29849978        1       0.00000000      -0.02502168       0.02124887      -0.01024306
Pt       5.70474225       0.05023362      27.29850675        1       0.00000000       0.03092529       0.01106215      -0.01025515
Pt       1.40525039       2.43242642      26.89637634        1       0.00000000       0.01759096       0.00717435       0.01896596
Pt       4.21262211       2.45091733      26.90115573        1       0.00000000      -0.00285683       0.03321273      -0.00317642
Pt       7.01609617       2.43188511      26.89637355        1       0.00000000      -0.01505962       0.01164054       0.01896963
Pt       2.82346193       4.85078492      26.90119120        1       0.00000000       0.03010480      -0.01429641      -0.00337358
Pt       5.59637719       4.85389850      26.90118356        1       0.00000000      -0.02739637      -0.01894104      -0.00335404
Pt       8.41999039       4.75890497      27.29850635        1       0.00000000      -0.00589238      -0.03230162      -0.01025112
C        8.42164289       6.48298049      28.18219955        0       1.00000000      -0.00000077       0.00002284       0.01092618
H        8.42162823       6.48298054      26.17950433        0       0.00000000      -0.00001308      -0.00000077      -0.02948747
