38
Lattice="8.421641763931781 0.0 0.0 4.2108208819658905 7.293355709136913 0.0 0.0 0.0 46.87624170604845" Properties=species:S:1:pos:R:3:tags:I:1:initial_magmoms:R:1:forces:R:3 charge=0 spin=0 energy=-192.90315795620205 free_energy=-192.90315795620205 stress="0.010137400589883327 -9.46749167951566e-08 7.048155836741898e-09 -9.46749167951566e-08 0.01013740710914135 1.6468676422576323e-09 7.048155836741898e-09 1.6468676422576323e-09 -0.00024293031310662627" pbc="T T T"
Pt      -0.00000012       0.00000002      19.95723426        4       0.00000000       0.00161547       0.00398164       0.01717527
Pt       2.80721404      -0.00000018      19.95723442        4       0.00000000      -0.00269118       0.00218768       0.01645772
Pt       5.61442782      -0.00000007      19.95723448        4       0.00000000      -0.00000066       0.00000421       0.01529383
Pt       1.40360721       2.43111841      19.95723428        4       0.00000000      -0.00000057       0.00000006      -0.01067974
Pt       4.21082083       2.43111835      19.95723436        4       0.00000000      -0.00424865      -0.00058961       0.01717317
Pt       7.01803478       2.43111845      19.95723424        4       0.00000000       0.00323833       0.00123991       0.01647828
Pt       2.80721407       4.86223728      19.95723400        4       0.00000000      -0.00054873      -0.00342719       0.01650218
Pt       5.61442803       4.86223733      19.95723419        4       0.00000000      -0.00000212      -0.00000296       0.01379854
Pt       8.42164139       4.86223726      19.95723434        4       0.00000000       0.00263859      -0.00339528       0.01718080
Pt       1.40360728       0.81037259      22.29206791        3       0.00000000      -0.00102225       0.00571961      -0.04146288
Pt       4.21082130       0.81037249      22.29206784        3       0.00000000       0.00187633      -0.00285421      -0.05212896
Pt       7.01803471       0.81037256      22.29206781        3       0.00000000      -0.00340467      -0.00022393      -0.05213454
Pt       2.80721448       3.24149124      22.29206773        3       0.00000000      -0.00446357      -0.00370300      -0.04144920
Pt       5.61442763       3.24149123      22.29206786        3       0.00000000      -0.00046357       0.00110767      -0.05100414
Pt       8.42164156       3.24149129      22.29206804        3       0.00000000       0.00547959      -0.00200916      -0.04147217
Pt       4.21082092       5.67260997      22.29206793        3       0.00000000       0.00120125      -0.00012004      -0.05100719
Pt       7.01803487       5.67261037      22.29206776        3       0.00000000      -0.00074214      -0.00098531      -0.05102422
Pt       9.82524821       5.67261065      22.29206806        3       0.00000000       0.00153878       0.00307204      -0.05214220
Pt      -0.00000053       1.62074569      24.58417386        2       0.00000000       0.00113866       0.00466361       0.00825906
Pt       2.80721443       1.62074549      24.58417398        2       0.00000000      -0.00461604      -0.00139094       0.00822649
Pt       5.61442778       1.62074537      24.58417377        2       0.00000000       0.00621409      -0.00272608       0.03086229
Pt       1.40360637       4.05186439      24.58417390        2       0.00000000       0.00348853      -0.00329543       0.00813053
Pt       4.21082088       4.05186403      24.58417379        2       0.00000000      -0.00141356       0.00041735       0.02884844
Pt       7.01803504       4.05186408      24.58417406        2       0.00000000       0.00030988      -0.00148394       0.02887060
Pt       2.80721282       6.48298343      24.58417376        2       0.00000000      -0.00540566      -0.00398568       0.03084888
Pt       5.61442796       6.48298325      24.58417391        2       0.00000000       0.00110455       0.00104085       0.02894493
Pt       8.42164222       6.48298341      24.58417381        2       0.00000000      -0.00081747       0.00676598       0.03084348
Pt      -0.00658731       0.00838076      26.91596966        1       0.00000000      -0.00339992       0.00156242       0.01315030
Pt       2.81261729       0.00961507      26.91644819        1       0.00000000       0.00137136       0.00244391       0.01191863
Pt       5.61443035      -0.00000265      26.91690341        1       0.00000000       0.00000279      -0.00000940       0.01367318
Pt       1.40360400       2.43112062      26.91456722        1       0.00000000      -0.00000619       0.00001036       0.02312916
Pt       4.20686736       2.42120501      26.91597144        1       0.00000000       0.00027722      -0.00368338       0.01316279
Pt       7.02363436       2.42163144      26.91643232        1       0.00000000       0.00151553      -0.00237780       0.01190402
Pt       2.79620896       4.86211191      26.91641494        1       0.00000000      -0.00289648      -0.00007698       0.01199507
Pt       5.61442660       4.86223981      26.90652581        1       0.00000000      -0.00000187      -0.00000683       0.01441360
Pt       8.43218082       4.86377160      26.91593627        1       0.00000000       0.00313370       0.00213046       0.01327829
C        5.61442491       4.86223543      29.94594699        0       1.00000000      -0.00001159      -0.00000349       0.02501511
H        5.61443139       4.86223821      28.77175806        0       0.00000000       0.00001225       0.00000264      -0.04102911
