38
Lattice="8.421641763931781 0.0 0.0 4.2108208819658905 7.293355709136913 0.0 0.0 0.0 46.87624170604845" Properties=species:S:1:pos:R:3:tags:I:1:initial_magmoms:R:1:forces:R:3 charge=0 spin=0 energy=-197.50808692653897 free_energy=-197.50808692653897 stress="0.009057417511940002 -1.4215667931694043e-07 1.3151286282209185e-08 -1.4215667931694043e-07 0.009057379327714443 4.4543202903923884e-08 1.3151286282209185e-08 4.4543202903923884e-08 -0.0008546042954549193" pbc="T T T"
Pt      -0.00000012       0.00000002      19.95723426        4       0.00000000      -0.00029630      -0.00597901       0.02191423
Pt       2.80721404      -0.00000018      19.95723442        4       0.00000000       0.00847009      -0.00372699       0.01888629
Pt       5.61442782      -0.00000007      19.95723448        4       0.00000000      -0.00743902      -0.00543995       0.01882866
Pt       1.40360721       2.43111841      19.95723428        4       0.00000000       0.00533206       0.00268693       0.02200354
Pt       4.21082083       2.43111835      19.95723436        4       0.00000000       0.00291599       0.02441142      -0.03720700
Pt       7.01803478       2.43111845      19.95723424        4       0.00000000      -0.00503647       0.00329354       0.02215713
Pt       2.80721407       4.86223728      19.95723400        4       0.00000000       0.01967684      -0.01473903      -0.03725666
Pt       5.61442803       4.86223733      19.95723419        4       0.00000000      -0.02259065      -0.00967658      -0.03704396
Pt       8.42164139       4.86223726      19.95723434        4       0.00000000      -0.00103015       0.00916803       0.01908733
Pt       1.40360728       0.81037259      22.29206791        3       0.00000000       0.02475666      -0.00803514      -0.01724833
Pt       4.21082130       0.81037249      22.29206784        3       0.00000000       0.00009470       0.10270702      -0.14903218
Pt       7.01803471       0.81037256      22.29206781        3       0.00000000      -0.01938598      -0.01737229      -0.01717339
Pt       2.80721448       3.24149124      22.29206773        3       0.00000000       0.04260550       0.02395348      -0.19712445
Pt       5.61442763       3.24149123      22.29206786        3       0.00000000      -0.04214863       0.02481709      -0.19698715
Pt       8.42164156       3.24149129      22.29206804        3       0.00000000      -0.00536546       0.02541406      -0.01668925
Pt       4.21082092       5.67260997      22.29206793        3       0.00000000      -0.00045608      -0.04877279      -0.19726856
Pt       7.01803487       5.67261037      22.29206776        3       0.00000000      -0.08907600      -0.05121578      -0.14867611
Pt       9.82524821       5.67261065      22.29206806        3       0.00000000       0.08897716      -0.05150442      -0.14873281
Pt      -0.00000053       1.62074569      24.58417386        2       0.00000000       0.00001045      -0.00000966      -0.01356720
Pt       2.80721443       1.62074549      24.58417398        2       0.00000000       0.02799904      -0.25853798       0.31634051
Pt       5.61442778       1.62074537      24.58417377        2       0.00000000      -0.03101356      -0.25979978       0.31786731
Pt       1.40360637       4.05186439      24.58417390        2       0.00000000      -0.20915739       0.15680097       0.31733480
Pt       4.21082088       4.05186403      24.58417379        2       0.00000000      -0.00000763       0.00002659      -0.21586639
Pt       7.01803504       4.05186408      24.58417406        2       0.00000000       0.20970710       0.15361071       0.31615919
Pt       2.80721282       6.48298343      24.58417376        2       0.00000000      -0.23772861       0.10491730       0.31645465
Pt       5.61442796       6.48298325      24.58417391        2       0.00000000       0.24020371       0.10299496       0.31781673
Pt       8.42164222       6.48298341      24.58417381        2       0.00000000      -0.00000130      -0.00000984      -0.59259397
Pt       0.00031129      -0.00207644      26.89637846        1       0.00000000      -0.00239433      -0.01880531       0.01886195
Pt       2.71855881       0.05309415      27.29849387        1       0.00000000      -0.02503341       0.02125938      -0.01023763
Pt       5.70473973       0.05023220      27.29850098        1       0.00000000       0.03093342       0.01106957      -0.01024866
Pt       1.40525022       2.43242664      26.89637648        1       0.00000000       0.01759127       0.00717251       0.01896952
Pt       4.21262176       2.45091854      26.90115601        1       0.00000000      -0.00285537       0.03320975      -0.00317619
Pt       7.01609670       2.43188479      26.89637408        1       0.00000000      -0.01506080       0.01164285       0.01897187
Pt       2.82346270       4.85078420      26.90119146        1       0.00000000       0.03010355      -0.01429493      -0.00337323
Pt       5.59637608       4.85389789      26.90118382        1       0.00000000      -0.02739260      -0.01894107      -0.00335358
Pt       8.41999072       4.75890819      27.29850057        1       0.00000000      -0.00589673      -0.03232742      -0.01025260
C        8.42164306       6.48297968      28.18220190        0       1.00000000       0.00000257       0.00003210       0.01093262
H        8.42162844       6.48298076      26.17950449        0       0.00000000      -0.00001356      -0.00000020      -0.02947729
