38
Lattice="8.421641763931781 0.0 0.0 4.2108208819658905 7.293355709136913 0.0 0.0 0.0 46.87624170604845" Properties=species:S:1:pos:R:3:tags:I:1:initial_magmoms:R:1:forces:R:3 charge=0 spin=0 energy=-197.5084493227792 free_energy=-197.5084493227792 stress="0.009107129648327827 -3.516136644066137e-07 9.381487586779258e-08 -3.516136644066137e-07 0.009108161553740501 5.462130161504319e-07 9.381487586779258e-08 5.462130161504319e-07 -0.0007796830032020807" pbc="T T T"
Pt      -0.00000012       0.00000002      19.95723426        4       0.00000000      -0.00033401      -0.00618281       0.02228809
Pt       2.80721404      -0.00000018      19.95723442        4       0.00000000       0.00861197      -0.00378584       0.01936316
Pt       5.61442782      -0.00000007      19.95723448        4       0.00000000      -0.00757035      -0.00553349       0.01933108
Pt       1.40360721       2.43111841      19.95723428        4       0.00000000       0.00553413       0.00276195       0.02237850
Pt       4.21082083       2.43111835      19.95723436        4       0.00000000       0.00272811       0.02447610      -0.03708779
Pt       7.01803478       2.43111845      19.95723424        4       0.00000000      -0.00520584       0.00341411       0.02253304
Pt       2.80721407       4.86223728      19.95723400        4       0.00000000       0.01979379      -0.01459696      -0.03709267
Pt       5.61442803       4.86223733      19.95723419        4       0.00000000      -0.02247704      -0.00982489      -0.03681572
Pt       8.42164139       4.86223726      19.95723434        4       0.00000000      -0.00104537       0.00932021       0.01956212
Pt       1.40360728       0.81037259      22.29206791        3       0.00000000       0.02430963      -0.00792049      -0.01890059
Pt       4.21082130       0.81037249      22.29206784        3       0.00000000       0.00029380       0.10215393      -0.15129447
Pt       7.01803471       0.81037256      22.29206781        3       0.00000000      -0.01906298      -0.01708025      -0.01881382
Pt       2.80721448       3.24149124      22.29206773        3       0.00000000       0.04259102       0.02394877      -0.19426426
Pt       5.61442763       3.24149123      22.29206786        3       0.00000000      -0.04216511       0.02480796      -0.19412801
Pt       8.42164156       3.24149129      22.29206804        3       0.00000000      -0.00526712       0.02495892      -0.01836569
Pt       4.21082092       5.67260997      22.29206793        3       0.00000000      -0.00044849      -0.04877095      -0.19442232
Pt       7.01803487       5.67261037      22.29206776        3       0.00000000      -0.08861378      -0.05072357      -0.15093705
Pt       9.82524821       5.67261065      22.29206806        3       0.00000000       0.08833440      -0.05136431      -0.15098217
Pt      -0.00000053       1.62074569      24.58417386        2       0.00000000      -0.00004999       0.00004855       0.02966804
Pt       2.80721443       1.62074549      24.58417398        2       0.00000000       0.01936828      -0.25071263       0.33149534
Pt       5.61442778       1.62074537      24.58417377        2       0.00000000      -0.02473052      -0.25230184       0.33128437
Pt       1.40360637       4.05186439      24.58417390        2       0.00000000      -0.20564017       0.14755055       0.33017045
Pt       4.21082088       4.05186403      24.58417379        2       0.00000000      -0.00003059      -0.00007423      -0.22959816
Pt       7.01803504       4.05186408      24.58417406        2       0.00000000       0.20730087       0.14188731       0.33086038
Pt       2.80721282       6.48298343      24.58417376        2       0.00000000      -0.22663619       0.10879114       0.33174729
Pt       5.61442796       6.48298325      24.58417391        2       0.00000000       0.23039521       0.10479976       0.33043778
Pt       8.42164222       6.48298341      24.58417381        2       0.00000000       0.00047401       0.00056419      -0.64363188
Pt       0.00209028      -0.00666165      26.90764625        1       0.00000000      -0.00642764       0.01076673      -0.01780144
Pt       2.71919791       0.05586071      27.29444346        1       0.00000000       0.00287310      -0.00089185      -0.00057307
Pt       5.70684653       0.04852983      27.29450421        1       0.00000000      -0.00099255      -0.00116869      -0.00149830
Pt       1.40848231       2.43617102      26.90763854        1       0.00000000      -0.00615075      -0.01009870      -0.01770324
Pt       4.21204661       2.45799825      26.90393190        1       0.00000000      -0.00071569      -0.01357106      -0.00520705
Pt       7.01138444       2.43301303      26.90767433        1       0.00000000       0.01158885      -0.00117988      -0.01783967
Pt       2.82993843       4.84785266      26.90384634        1       0.00000000      -0.01155419       0.00754159      -0.00501054
Pt       5.59059788       4.84992742      26.90376945        1       0.00000000       0.01221953       0.00601428      -0.00469042
Pt       8.41745772       4.75816156      27.29439672        1       0.00000000      -0.00011899       0.00448070       0.00018902
C        8.42181640       6.48326583      28.18089587        0       1.00000000      -0.00032604      -0.00121926      -0.01810724
H        8.42080554       6.48179928      26.17529555        0       0.00000000      -0.00085330      -0.00128511       0.02345688
