38
Lattice="8.421641763931781 0.0 0.0 4.2108208819658905 7.293355709136913 0.0 0.0 0.0 46.87624170604845" Properties=species:S:1:pos:R:3:tags:I:1:initial_magmoms:R:1:forces:R:3 charge=0 spin=0 energy=-197.98926902492764 free_energy=-197.98926902492764 stress="0.007691472303122282 3.870666114380583e-05 -4.003731010016054e-05 3.870666114380583e-05 0.00736750103533268 9.975545981433243e-05 -4.003731010016054e-05 9.975545981433243e-05 -0.0007290674257092178" pbc="T T T"
Pt      -0.00000012       0.00000002      19.95723426        4       0.00000000      -0.02111673      -0.00834907      -0.01379725
Pt       2.80721404      -0.00000018      19.95723442        4       0.00000000       0.00050216       0.00510940       0.01825504
Pt       5.61442782      -0.00000007      19.95723448        4       0.00000000       0.00706642      -0.01154325      -0.01382038
Pt       1.40360721       2.43111841      19.95723428        4       0.00000000      -0.00469664      -0.00014810       0.02831379
Pt       4.21082083       2.43111835      19.95723436        4       0.00000000       0.00409585      -0.00268547       0.02632785
Pt       7.01803478       2.43111845      19.95723424        4       0.00000000      -0.00083649       0.01020711      -0.01069058
Pt       2.80721407       4.86223728      19.95723400        4       0.00000000       0.00641923       0.02032322       0.00257974
Pt       5.61442803       4.86223733      19.95723419        4       0.00000000      -0.00119952      -0.00418728       0.00788668
Pt       8.42164139       4.86223726      19.95723434        4       0.00000000       0.00502201      -0.00073460       0.00874798
Pt       1.40360728       0.81037259      22.29206791        3       0.00000000      -0.07947563      -0.03675171      -0.14530928
Pt       4.21082130       0.81037249      22.29206784        3       0.00000000       0.06213560      -0.03105769      -0.12060637
Pt       7.01803471       0.81037256      22.29206781        3       0.00000000       0.00485378       0.00582124      -0.26135683
Pt       2.80721448       3.24149124      22.29206773        3       0.00000000       0.00127148       0.03923523      -0.01786391
Pt       5.61442763       3.24149123      22.29206786        3       0.00000000       0.01061117      -0.02349219      -0.06525813
Pt       8.42164156       3.24149129      22.29206804        3       0.00000000      -0.00875538      -0.02493692      -0.07349297
Pt       4.21082092       5.67260997      22.29206793        3       0.00000000      -0.01538314       0.04408070      -0.13654166
Pt       7.01803487       5.67261037      22.29206776        3       0.00000000      -0.00177720       0.00864143      -0.07601408
Pt       9.82524821       5.67261065      22.29206806        3       0.00000000       0.02536484       0.03102894      -0.11168233
Pt      -0.00000053       1.62074569      24.58417386        2       0.00000000       0.18769105       0.10408132       0.27550840
Pt       2.80721443       1.62074549      24.58417398        2       0.00000000       0.00244980       0.16303878      -0.16191098
Pt       5.61442778       1.62074537      24.58417377        2       0.00000000      -0.20298640       0.13641413       0.28084761
Pt       1.40360637       4.05186439      24.58417390        2       0.00000000       0.08302389      -0.09449429       0.20712604
Pt       4.21082088       4.05186403      24.58417379        2       0.00000000      -0.08615202      -0.13281685       0.24613452
Pt       7.01803504       4.05186408      24.58417406        2       0.00000000      -0.01216794      -0.02195754      -0.09587317
Pt       2.80721282       6.48298343      24.58417376        2       0.00000000      -0.01819448      -0.12151309       0.17714792
Pt       5.61442796       6.48298325      24.58417391        2       0.00000000       0.01410791       0.00890918       0.00297773
Pt       8.42164222       6.48298341      24.58417381        2       0.00000000      -0.01416869       0.03086256       0.00643578
Pt       0.00128903       0.00870093      26.90525624        1       0.00000000       0.00005324       0.01163409      -0.00060297
Pt       2.79196243      -0.11059170      27.02247701        1       0.00000000       0.00382079       0.01874851      -0.01183913
Pt       5.61039537       0.01885829      26.90592622        1       0.00000000       0.00422719      -0.01036480      -0.00649076
Pt       1.27798026       2.40647509      27.19160912        1       0.00000000       0.01770032      -0.00273729      -0.00099058
Pt       4.34572238       2.39790194      27.31006873        1       0.00000000       0.02148372      -0.00503891       0.01124367
Pt       7.01669826       2.44028562      26.89409264        1       0.00000000      -0.01159416      -0.03327097       0.00351833
Pt       2.79966667       5.00004950      27.02298285        1       0.00000000       0.00167439      -0.00842701       0.01763409
Pt       5.61941753       4.86069642      26.89699730        1       0.00000000      -0.00223111      -0.02497894       0.00173036
Pt       8.40140871       4.87310695      26.89211968        1       0.00000000      -0.00299302      -0.01058224       0.00130302
C        2.78991939       3.33575218      27.93459543        0       1.00000000      -0.02083525      -0.01290038      -0.00262875
H        2.95816090       1.53604685      26.32323769        0       0.00000000       0.04098913      -0.01516729       0.00305146
