38
Lattice="8.421641763931781 0.0 0.0 4.2108208819658905 7.293355709136913 0.0 0.0 0.0 46.87624170604845" Properties=species:S:1:pos:R:3:tags:I:1:initial_magmoms:R:1:forces:R:3 charge=0 spin=0 energy=-192.90316177089932 free_energy=-192.90316177089932 stress="0.01013739500194788 -9.596188021987473e-08 1.0796950888902757e-08 -9.596188021987473e-08 0.010137399658560753 -6.028291199555724e-09 1.0796950888902757e-08 -6.028291199555724e-09 -0.00024295665207318962" pbc="T T T"
Pt      -0.00000012       0.00000002      19.95723426        4       0.00000000       0.00263926      -0.00339146       0.01718083
Pt       2.80721404      -0.00000018      19.95723442        4       0.00000000      -0.00055176      -0.00342081       0.01649213
Pt       5.61442782      -0.00000007      19.95723448        4       0.00000000      -0.00000031       0.00000407       0.01378944
Pt       1.40360721       2.43111841      19.95723428        4       0.00000000      -0.00000117       0.00000183       0.01530358
Pt       4.21082083       2.43111835      19.95723436        4       0.00000000       0.00161571       0.00398422       0.01717640
Pt       7.01803478       2.43111845      19.95723424        4       0.00000000      -0.00269044       0.00218605       0.01646696
Pt       2.80721407       4.86223728      19.95723400        4       0.00000000       0.00324060       0.00123537       0.01647900
Pt       5.61442803       4.86223733      19.95723419        4       0.00000000      -0.00000150      -0.00000456      -0.01068110
Pt       8.42164139       4.86223726      19.95723434        4       0.00000000      -0.00424930      -0.00059603       0.01717207
Pt       1.40360728       0.81037259      22.29206791        3       0.00000000       0.00152866       0.00308640      -0.05214123
Pt       4.21082130       0.81037249      22.29206784        3       0.00000000       0.00120179      -0.00011579      -0.05100690
Pt       7.01803471       0.81037256      22.29206781        3       0.00000000      -0.00073791      -0.00097588      -0.05102621
Pt       2.80721448       3.24149124      22.29206773        3       0.00000000      -0.00341355      -0.00022588      -0.05213527
Pt       5.61442763       3.24149123      22.29206786        3       0.00000000      -0.00101722       0.00571634      -0.04146757
Pt       8.42164156       3.24149129      22.29206804        3       0.00000000       0.00188126      -0.00286058      -0.05213290
Pt       4.21082092       5.67260997      22.29206793        3       0.00000000       0.00547361      -0.00200780      -0.04146916
Pt       7.01803487       5.67261037      22.29206776        3       0.00000000      -0.00445951      -0.00371065      -0.04144560
Pt       9.82524821       5.67261065      22.29206806        3       0.00000000      -0.00045958       0.00109608      -0.05100217
Pt      -0.00000053       1.62074569      24.58417386        2       0.00000000      -0.00080542       0.00677091       0.03083964
Pt       2.80721443       1.62074549      24.58417398        2       0.00000000      -0.00542450      -0.00397746       0.03085294
Pt       5.61442778       1.62074537      24.58417377        2       0.00000000       0.00111017       0.00104956       0.02894475
Pt       1.40360637       4.05186439      24.58417390        2       0.00000000       0.00622011      -0.00273482       0.03085578
Pt       4.21082088       4.05186403      24.58417379        2       0.00000000       0.00113353       0.00466725       0.00825722
Pt       7.01803504       4.05186408      24.58417406        2       0.00000000      -0.00461289      -0.00139303       0.00822158
Pt       2.80721282       6.48298343      24.58417376        2       0.00000000       0.00032466      -0.00149316       0.02887195
Pt       5.61442796       6.48298325      24.58417391        2       0.00000000       0.00348058      -0.00329127       0.00813342
Pt       8.42164222       6.48298341      24.58417381        2       0.00000000      -0.00142441       0.00040996       0.02884949
Pt       0.01053908       0.00153437      26.91593575        1       0.00000000       0.00313425       0.00213007       0.01327645
Pt       2.79620906      -0.00012499      26.91641528        1       0.00000000      -0.00289931      -0.00007408       0.01198866
Pt       5.61442608       0.00000307      26.90652623        1       0.00000000      -0.00000161      -0.00000485       0.01441408
Pt       1.40360951       2.43111628      26.91690292        1       0.00000000       0.00000735      -0.00001422       0.01367011
Pt       4.20423360       2.43949959      26.91596986        1       0.00000000      -0.00340303       0.00156277       0.01315374
Pt       7.02343772       2.44073376      26.91644832        1       0.00000000       0.00137226       0.00244436       0.01191916
Pt       2.81281349       4.85275047      26.91643177        1       0.00000000       0.00151571      -0.00237812       0.01190158
Pt       5.61442493       4.86223935      26.91456683        1       0.00000000      -0.00000361       0.00001111       0.02313861
Pt       8.41768806       4.85232418      26.91597054        1       0.00000000       0.00027416      -0.00368330       0.01317009
C        5.61441984       0.00000229      29.94594532        0       1.00000000      -0.00002697       0.00001333       0.02505294
H        5.61443766      -0.00000587      28.77175745        0       0.00000000       0.00003000      -0.00001583      -0.04106431
