38
Lattice="8.421641763931781 0.0 0.0 4.2108208819658905 7.293355709136913 0.0 0.0 0.0 46.87624170604845" Properties=species:S:1:pos:R:3:tags:I:1:initial_magmoms:R:1:forces:R:3 charge=0 spin=0 energy=-197.939519650538 free_energy=-197.939519650538 stress="0.0070369066670536995 -1.5236274748531287e-06 -1.1844023219964583e-06 -1.5236274748531287e-06 0.007045476697385311 -3.3632989016041392e-06 -1.1844023219964583e-06 -3.3632989016041392e-06 -0.0010360275628045201" pbc="T T T"
Pt      -0.00000012       0.00000002      19.95723426        4       0.00000000       0.00845289       0.00311201      -0.02559624
Pt       2.80721404      -0.00000018      19.95723442        4       0.00000000      -0.00698521       0.00575445      -0.02566070
Pt       5.61442782      -0.00000007      19.95723448        4       0.00000000      -0.00376704       0.00257864       0.01477049
Pt       1.40360721       2.43111841      19.95723428        4       0.00000000      -0.00148169      -0.00889849      -0.02558174
Pt       4.21082083       2.43111835      19.95723436        4       0.00000000      -0.00765686      -0.00316545       0.01826562
Pt       7.01803478       2.43111845      19.95723424        4       0.00000000       0.00664283      -0.00504863       0.01822646
Pt       2.80721407       4.86223728      19.95723400        4       0.00000000       0.00411116       0.00201863       0.01474735
Pt       5.61442803       4.86223733      19.95723419        4       0.00000000       0.00101109       0.00821534       0.01815826
Pt       8.42164139       4.86223726      19.95723434        4       0.00000000      -0.00033156      -0.00455782       0.01463885
Pt       1.40360728       0.81037259      22.29206791        3       0.00000000      -0.00003654      -0.00007579      -0.27012363
Pt       4.21082130       0.81037249      22.29206784        3       0.00000000      -0.06679214      -0.03084692      -0.12893797
Pt       7.01803471       0.81037256      22.29206781        3       0.00000000       0.07189821      -0.03847672      -0.13669665
Pt       2.80721448       3.24149124      22.29206773        3       0.00000000      -0.06915089      -0.04290496      -0.13709362
Pt       5.61442763       3.24149123      22.29206786        3       0.00000000       0.00001013       0.00004660      -0.22581016
Pt       8.42164156       3.24149129      22.29206804        3       0.00000000       0.06006946      -0.04245904      -0.12943402
Pt       4.21082092       5.67260997      22.29206793        3       0.00000000       0.00668877       0.07337118      -0.12935491
Pt       7.01803487       5.67261037      22.29206776        3       0.00000000      -0.00268029       0.08139463      -0.13698241
Pt       9.82524821       5.67261065      22.29206806        3       0.00000000       0.00000749      -0.00001093      -0.10972936
Pt      -0.00000053       1.62074569      24.58417386        2       0.00000000      -0.10867551       0.06837495       0.26652071
Pt       2.80721443       1.62074549      24.58417398        2       0.00000000       0.11371802       0.05968126       0.26682648
Pt       5.61442778       1.62074537      24.58417377        2       0.00000000       0.00688478      -0.57242608       0.29367095
Pt       1.40360637       4.05186439      24.58417390        2       0.00000000       0.00797442      -0.00106918      -0.07608916
Pt       4.21082088       4.05186403      24.58417379        2       0.00000000      -0.49879956       0.28022209       0.29418474
Pt       7.01803504       4.05186408      24.58417406        2       0.00000000       0.49186581       0.29171565       0.29391870
Pt       2.80721282       6.48298343      24.58417376        2       0.00000000      -0.00287822       0.00765194      -0.07621032
Pt       5.61442796       6.48298325      24.58417391        2       0.00000000      -0.00520849      -0.12812690       0.26577848
Pt       8.42164222       6.48298341      24.58417381        2       0.00000000      -0.00501414      -0.00634673      -0.07645164
Pt      -0.00942476      -0.00035860      26.89458297        1       0.00000000       0.01541275      -0.01268457       0.00146571
Pt       2.81203883      -0.00817672      26.89444855        1       0.00000000       0.00508554       0.02274073       0.00174764
Pt       5.61378766      -0.01986635      26.90068012        1       0.00000000      -0.00852067       0.01499444      -0.01290972
Pt       1.40802626       2.43925729      26.89428220        1       0.00000000      -0.01923950      -0.00679453       0.00196639
Pt       4.08931292       2.35751129      27.18467443        1       0.00000000      -0.03564178      -0.01957617      -0.01687603
Pt       7.14265097       2.36248011      27.18463963        1       0.00000000       0.02910265      -0.01617886      -0.01451960
Pt       2.79033784       4.87268264      26.90062433        1       0.00000000       0.01726824      -0.00060431      -0.01269406
Pt       5.61144219       5.00494661      27.18455347        1       0.00000000       0.00051047       0.01899599      -0.00989760
Pt       8.43907990       4.87154477      26.90050288        1       0.00000000      -0.00891087      -0.01493600      -0.01233682
C        5.61421885       3.24094560      27.91130303        0       1.00000000       0.00495630       0.01398922       0.01813129
H        5.61439534       3.24139356      25.36083345        0       0.00000000       0.00009970       0.00033032      -0.01403175
