38
Lattice="8.421641763931781 0.0 0.0 4.2108208819658905 7.293355709136913 0.0 0.0 0.0 46.87624170604845" Properties=species:S:1:pos:R:3:tags:I:1:initial_magmoms:R:1:forces:R:3 charge=0 spin=0 energy=-197.9858605929208 free_energy=-197.9858605929208 stress="0.007505593355745077 -0.0001709410862531513 -6.680466321995482e-05 -0.0001709410862531513 0.007611971348524094 -5.406835043686442e-05 -6.680466321995482e-05 -5.406835043686442e-05 -0.0006829246995039284" pbc="T T T"
Pt      -0.00000012       0.00000002      19.95723426        4       0.00000000       0.01420493      -0.01154542      -0.01344377
Pt       2.80721404      -0.00000018      19.95723442        4       0.00000000      -0.02128408      -0.00557172       0.00345996
Pt       5.61442782      -0.00000007      19.95723448        4       0.00000000       0.00268497      -0.00510888       0.02798707
Pt       1.40360721       2.43111841      19.95723428        4       0.00000000       0.00341297       0.00021204       0.00818314
Pt       4.21082083       2.43111835      19.95723436        4       0.00000000      -0.00026218       0.00367285       0.02682946
Pt       7.01803478       2.43111845      19.95723424        4       0.00000000      -0.00544746      -0.00330421       0.01824690
Pt       2.80721407       4.86223728      19.95723400        4       0.00000000      -0.00921109      -0.00594093      -0.01015177
Pt       5.61442803       4.86223733      19.95723419        4       0.00000000       0.00444641       0.01556741      -0.01431372
Pt       8.42164139       4.86223726      19.95723434        4       0.00000000      -0.00232736       0.00426560       0.00854431
Pt       1.40360728       0.81037259      22.29206791        3       0.00000000      -0.02809031      -0.03549545      -0.12910531
Pt       4.21082130       0.81037249      22.29206784        3       0.00000000      -0.03726787      -0.01950216      -0.01798501
Pt       7.01803471       0.81037256      22.29206781        3       0.00000000       0.06240000      -0.04612090      -0.13134077
Pt       2.80721448       3.24149124      22.29206773        3       0.00000000       0.01495998       0.02054020      -0.06747180
Pt       5.61442763       3.24149123      22.29206786        3       0.00000000      -0.00714300       0.07507652      -0.12941158
Pt       8.42164156       3.24149129      22.29206804        3       0.00000000      -0.01046325      -0.00654137      -0.07845995
Pt       4.21082092       5.67260997      22.29206793        3       0.00000000      -0.00727510      -0.00091955      -0.26162282
Pt       7.01803487       5.67261037      22.29206776        3       0.00000000      -0.04266638       0.00261891      -0.11848707
Pt       9.82524821       5.67261065      22.29206806        3       0.00000000       0.02510537       0.00133655      -0.07139127
Pt      -0.00000053       1.62074569      24.58417386        2       0.00000000      -0.00482585       0.00697728       0.00119807
Pt       2.80721443       1.62074549      24.58417398        2       0.00000000       0.15346955      -0.02183311       0.23799755
Pt       5.61442778       1.62074537      24.58417377        2       0.00000000      -0.14027813      -0.07486546      -0.17489669
Pt       1.40360637       4.05186439      24.58417390        2       0.00000000       0.03121107       0.01990062      -0.08751319
Pt       4.21082088       4.05186403      24.58417379        2       0.00000000      -0.00121521      -0.24212736       0.28592902
Pt       7.01803504       4.05186408      24.58417406        2       0.00000000      -0.00539444      -0.02025227       0.00255527
Pt       2.80721282       6.48298343      24.58417376        2       0.00000000      -0.19488323       0.12240100       0.28629774
Pt       5.61442796       6.48298325      24.58417391        2       0.00000000       0.12594299       0.06034818       0.19727291
Pt       8.42164222       6.48298341      24.58417381        2       0.00000000       0.04947079       0.12696850       0.23267433
Pt      -0.00514573       0.00536335      26.90564826        1       0.00000000       0.01249244      -0.00363042      -0.00123369
Pt       2.69521736      -0.06655847      27.03459272        1       0.00000000       0.00316383       0.00144242      -0.01535899
Pt       5.70715198      -0.09047934      27.23563625        1       0.00000000       0.01174785      -0.01611121      -0.01656238
Pt       1.40931802       2.45004201      26.89555947        1       0.00000000       0.01766719      -0.00506514       0.00248546
Pt       4.18488529       2.56316565      27.26592457        1       0.00000000      -0.02134280      -0.01426018       0.00142690
Pt       7.12550776       2.48999525      27.01444506        1       0.00000000       0.00560287      -0.01030823       0.00180511
Pt       2.82450514       4.87237160      26.89455024        1       0.00000000      -0.01504811      -0.01454866       0.00475230
Pt       5.61526386       4.85203147      26.90485126        1       0.00000000       0.00453695       0.03101023      -0.00711535
Pt       8.43806939       4.84861808      26.89582342        1       0.00000000       0.00250758       0.02296373      -0.00567506
C        4.13660328       0.76419919      27.94560288        0       1.00000000      -0.00264966       0.02959304       0.00029729
H        5.67408970       1.67837319      26.33000140        0       0.00000000       0.01204758       0.01815747       0.00359710
