38
Lattice="8.421641763931781 0.0 0.0 4.2108208819658905 7.293355709136913 0.0 0.0 0.0 46.87624170604845" Properties=species:S:1:pos:R:3:tags:I:1:initial_magmoms:R:1:forces:R:3 charge=0 spin=0 energy=-192.90314460476162 free_energy=-192.90314460476162 stress="0.010230018757283688 -1.1236141261861121e-07 9.814805856933617e-09 -1.1236141261861121e-07 0.010230020619928837 -7.665043710858299e-09 9.814805856933617e-09 -7.665043710858299e-09 -7.246590394061059e-05" pbc="T T T"
Pt      -0.00000012       0.00000002      19.95723426        4       0.00000000       0.00148129       0.00418402       0.01719580
Pt       2.80721404      -0.00000018      19.95723442        4       0.00000000      -0.00276143       0.00228526       0.01643327
Pt       5.61442782      -0.00000007      19.95723448        4       0.00000000       0.00000006       0.00000339       0.01532091
Pt       1.40360721       2.43111841      19.95723428        4       0.00000000      -0.00000022       0.00000082      -0.01058699
Pt       4.21082083       2.43111835      19.95723436        4       0.00000000      -0.00435783      -0.00080679       0.01718734
Pt       7.01803478       2.43111845      19.95723424        4       0.00000000       0.00335946       0.00125391       0.01645040
Pt       2.80721407       4.86223728      19.95723400        4       0.00000000      -0.00059947      -0.00353843       0.01647648
Pt       5.61442803       4.86223733      19.95723419        4       0.00000000      -0.00000199      -0.00000373       0.01367772
Pt       8.42164139       4.86223726      19.95723434        4       0.00000000       0.00288239      -0.00338085       0.01719881
Pt       1.40360728       0.81037259      22.29206791        3       0.00000000      -0.00103445       0.00493488      -0.04000401
Pt       4.21082130       0.81037249      22.29206784        3       0.00000000       0.00242697      -0.00311006      -0.05282077
Pt       7.01803471       0.81037256      22.29206781        3       0.00000000      -0.00390436      -0.00057030      -0.05282268
Pt       2.80721448       3.24149124      22.29206773        3       0.00000000      -0.00377405      -0.00332254      -0.03999604
Pt       5.61442763       3.24149123      22.29206786        3       0.00000000      -0.00040659       0.00115733      -0.05311218
Pt       8.42164156       3.24149129      22.29206804        3       0.00000000       0.00480228      -0.00160517      -0.04001552
Pt       4.21082092       5.67260997      22.29206793        3       0.00000000       0.00122069      -0.00019988      -0.05309350
Pt       7.01803487       5.67261037      22.29206776        3       0.00000000      -0.00081903      -0.00096260      -0.05311118
Pt       9.82524821       5.67261065      22.29206806        3       0.00000000       0.00148675       0.00368022      -0.05281394
Pt      -0.00000053       1.62074569      24.58417386        2       0.00000000       0.00746930       0.00755136       0.04062414
Pt       2.80721443       1.62074549      24.58417398        2       0.00000000      -0.01028434       0.00264916       0.04059109
Pt       5.61442778       1.62074537      24.58417377        2       0.00000000       0.00673807      -0.00656318       0.05939240
Pt       1.40360637       4.05186439      24.58417390        2       0.00000000       0.00281578      -0.01021095       0.04053070
Pt       4.21082088       4.05186403      24.58417379        2       0.00000000      -0.01134979      -0.00626035       0.03709792
Pt       7.01803504       4.05186408      24.58417406        2       0.00000000       0.01109551      -0.00670187       0.03713472
Pt       2.80721282       6.48298343      24.58417376        2       0.00000000      -0.00899847      -0.00254571       0.05937198
Pt       5.61442796       6.48298325      24.58417391        2       0.00000000       0.00026350       0.01297731       0.03716805
Pt       8.42164222       6.48298341      24.58417381        2       0.00000000       0.00225779       0.00910108       0.05937148
Pt      -0.00770353       0.00832136      26.92150092        1       0.00000000      -0.00204690       0.00622447      -0.01042126
Pt       2.81191671       0.01077963      26.92152929        1       0.00000000       0.00626924       0.00300846      -0.00975120
Pt       5.61443209       0.00000180      26.92543975        1       0.00000000      -0.00000571      -0.00000763      -0.02470254
Pt       1.40360042       2.43111756      26.92612117        1       0.00000000       0.00001028       0.00000800      -0.02824290
Pt       4.20746053       2.42028049      26.92150537        1       0.00000000      -0.00437902      -0.00489911      -0.01041969
Pt       7.02501231       2.42166787      26.92151700        1       0.00000000      -0.00053288      -0.00693780      -0.00977037
Pt       2.79553323       4.86090957      26.92152280        1       0.00000000      -0.00574491       0.00394008      -0.00976034
Pt       5.61442682       4.86223926      26.90124197        1       0.00000000      -0.00000153      -0.00000092       0.03183593
Pt       8.43270336       4.86475840      26.92150386        1       0.00000000       0.00642268      -0.00133127      -0.01042020
C        5.61442649       4.86223976      29.93894769        0       1.00000000      -0.00000452       0.00000718      -0.00346852
H        5.61442946       4.86223503      28.76323548        0       0.00000000       0.00000538      -0.00000769      -0.00772500
