36
Lattice="8.421641763931781 0.0 0.0 4.2108208819658905 7.293355709136913 0.0 0.0 0.0 46.87624170604845" Properties=species:S:1:pos:R:3:tags:I:1:forces:R:3 charge=0 spin=0 energy=-187.00367709663286 free_energy=-187.00367709663286 stress="0.010496639646589756 1.626756285233455e-09 -2.6120530738360515e-10 1.626756285233455e-09 0.01049666665494442 -8.907363735488616e-11 -2.6120530738360515e-10 -8.907363735488616e-11 4.6217664930736646e-05" pbc="T T T"
Pt      -0.00000009      -0.00000005      19.95723448        4      -0.00000106       0.00000362       0.01626836
Pt       2.80721394      -0.00000007      19.95723443        4      -0.00000009       0.00000172       0.01627093
Pt       5.61442789      -0.00000015      19.95723457        4      -0.00000016       0.00000234       0.01627131
Pt       1.40360722       2.43111840      19.95723437        4      -0.00000072       0.00000170       0.01628102
Pt       4.21082082       2.43111841      19.95723445        4       0.00000250       0.00000061       0.01627188
Pt       7.01803481       2.43111846      19.95723431        4      -0.00000060       0.00000049       0.01628045
Pt       2.80721420       4.86223732      19.95723416        4      -0.00000350      -0.00000397       0.01627845
Pt       5.61442789       4.86223739      19.95723438        4       0.00000156      -0.00000522       0.01627661
Pt       8.42164144       4.86223715      19.95723425        4       0.00000227      -0.00000161       0.01627966
Pt       1.40360728       0.81037259      22.29206790        3      -0.00000162       0.00000493      -0.04298044
Pt       4.21082133       0.81037252      22.29206787        3      -0.00000161       0.00000400      -0.04298265
Pt       7.01803475       0.81037260      22.29206779        3       0.00000053       0.00000267      -0.04298391
Pt       2.80721445       3.24149126      22.29206774        3      -0.00000854       0.00000337      -0.04298445
Pt       5.61442766       3.24149124      22.29206785        3       0.00000454       0.00000152      -0.04298558
Pt       8.42164162       3.24149128      22.29206804        3       0.00000295       0.00000122      -0.04298786
Pt       4.21082094       5.67260999      22.29206746        3      -0.00000430       0.00000153      -0.04296491
Pt       7.01803460       5.67261034      22.29206779        3       0.00000125      -0.00000645      -0.04298329
Pt       9.82524817       5.67261056      22.29206810        3       0.00000640      -0.00001156      -0.04298557
Pt      -0.00000051       1.62074570      24.58417388        2       0.00000451      -0.00000261       0.04298386
Pt       2.80721443       1.62074551      24.58417397        2      -0.00000744       0.00000271       0.04298280
Pt       5.61442780       1.62074537      24.58417374        2       0.00000218       0.00000514       0.04298134
Pt       1.40360637       4.05186436      24.58417384        2       0.00000654       0.00000193       0.04298537
Pt       4.21082088       4.05186395      24.58417390        2      -0.00000182       0.00000809       0.04297900
Pt       7.01803507       4.05186404      24.58417407        2      -0.00000217       0.00000436       0.04298093
Pt       2.80721279       6.48298348      24.58417393        2       0.00001528      -0.00001069       0.04298016
Pt       5.61442804       6.48298329      24.58417397        2      -0.00000764      -0.00000275       0.04297857
Pt       8.42164225       6.48298343      24.58417376        2      -0.00000825      -0.00000828       0.04298399
Pt       0.00000042       0.00000002      26.91900741        1       0.00000122       0.00000084      -0.01627962
Pt       2.80721391      -0.00000016      26.91900722        1       0.00000011       0.00000250      -0.01627088
Pt       5.61442793      -0.00000012      26.91900707        1      -0.00000144       0.00000089      -0.01626849
Pt       1.40360721       2.43111848      26.91900739        1      -0.00000006       0.00000143      -0.01628043
Pt       4.21082085       2.43111857      26.91900722        1       0.00000084       0.00000054      -0.01627173
Pt       7.01803486       2.43111864      26.91900728        1       0.00000012      -0.00000114      -0.01627110
Pt       2.80721398       4.86223728      26.91900751        1      -0.00000450      -0.00000224      -0.01628125
Pt       5.61442796       4.86223739      26.91900729        1      -0.00000093      -0.00000166      -0.01627254
Pt       8.42164130       4.86223715      26.91900732        1       0.00000390       0.00000005      -0.01628002
