36
Lattice="8.421641763931781 0.0 0.0 4.2108208819658905 7.293355709136913 0.0 0.0 0.0 46.87624170604845" Properties=species:S:1:pos:R:3:tags:I:1:forces:R:3 charge=0 spin=0 energy=-186.93033381965532 free_energy=-186.93033381965532 stress="0.008562121540307999 -2.445474711620932e-09 -7.655146516682976e-10 -2.445474711620932e-09 0.008562123402953148 -1.8463900408605127e-09 -7.655146516682976e-10 -1.8463900408605127e-09 -0.0033283403608947992" pbc="T T T"
Pt       0.00000000       0.00000000      20.00000000        4       0.00000203      -0.00000289      -0.22563674
Pt       2.80721392       0.00000000      20.00000000        4       0.00000035      -0.00000208      -0.22563577
Pt       5.61442784       0.00000000      20.00000000        4      -0.00000248      -0.00000119      -0.22563501
Pt       1.40360696       2.43111857      20.00000000        4       0.00000129       0.00000010      -0.22563788
Pt       4.21082088       2.43111857      20.00000000        4       0.00000190      -0.00000000      -0.22563598
Pt       7.01803480       2.43111857      20.00000000        4      -0.00000271      -0.00000040      -0.22563827
Pt       2.80721392       4.86223714      20.00000000        4       0.00000082       0.00000083      -0.22563769
Pt       5.61442784       4.86223714      20.00000000        4      -0.00000220       0.00000168      -0.22563614
Pt       8.42164176       4.86223714      20.00000000        4       0.00000145       0.00000276      -0.22563736
Pt       1.40360696       0.81037286      22.29208057        3       0.00000154      -0.00000386       0.21236116
Pt       4.21082088       0.81037286      22.29208057        3       0.00000372      -0.00000321       0.21236083
Pt       7.01803480       0.81037286      22.29208057        3      -0.00000401      -0.00000294       0.21236153
Pt       2.80721392       3.24149143      22.29208057        3       0.00000093      -0.00000075       0.21235909
Pt       5.61442784       3.24149143      22.29208057        3      -0.00000338       0.00000007       0.21236056
Pt       8.42164176       3.24149143      22.29208057        3       0.00000264       0.00000087       0.21236108
Pt       4.21082088       5.67261000      22.29208057        3       0.00000480       0.00000151       0.21235888
Pt       7.01803480       5.67261000      22.29208057        3      -0.00000232       0.00000348       0.21235995
Pt       9.82524872       5.67261000      22.29208057        3      -0.00000261       0.00000404       0.21236134
Pt       0.00000000       1.62074571      24.58416114        2       0.00000315      -0.00000143      -0.21236034
Pt       2.80721392       1.62074571      24.58416114        2       0.00000086      -0.00000291      -0.21236001
Pt       5.61442784       1.62074571      24.58416114        2      -0.00000287      -0.00000308      -0.21236071
Pt       1.40360696       4.05186428      24.58416114        2      -0.00000308       0.00000156      -0.21236053
Pt       4.21082088       4.05186428      24.58416114        2       0.00000490      -0.00000006      -0.21235989
Pt       7.01803480       4.05186428      24.58416114        2      -0.00000247       0.00000020      -0.21236064
Pt       2.80721392       6.48298285      24.58416114        2      -0.00000715       0.00000228      -0.21236084
Pt       5.61442784       6.48298285      24.58416114        2      -0.00000161       0.00000216      -0.21236090
Pt       8.42164176       6.48298285      24.58416114        2       0.00000515       0.00000371      -0.21235976
Pt       0.00000000       0.00000000      26.87624171        1       0.00000248      -0.00000201       0.22563723
Pt       2.80721392       0.00000000      26.87624171        1       0.00000065      -0.00000142       0.22563589
Pt       5.61442784       0.00000000      26.87624171        1      -0.00000206      -0.00000203       0.22563428
Pt       1.40360696       2.43111857      26.87624171        1       0.00000121      -0.00000033       0.22563809
Pt       4.21082088       2.43111857      26.87624171        1       0.00000196      -0.00000034       0.22563651
Pt       7.01803480       2.43111857      26.87624171        1      -0.00000245       0.00000006       0.22563818
Pt       2.80721392       4.86223714      26.87624171        1       0.00000047       0.00000167       0.22563736
Pt       5.61442784       4.86223714      26.87624171        1      -0.00000218       0.00000101       0.22563578
Pt       8.42164176       4.86223714      26.87624171        1       0.00000153       0.00000285       0.22563696
