40
Lattice="8.421641763931781 0.0 0.0 4.2108208819658905 7.293355709136913 0.0 0.0 0.0 46.87624170604845" Properties=species:S:1:pos:R:3:tags:I:1:initial_magmoms:R:1:forces:R:3 charge=0 spin=0 energy=-206.89762617892944 free_energy=-206.89762617892944 stress="0.01038543600589037 -3.593545670810272e-06 1.8822636320692254e-06 -3.593545670810272e-06 0.010358870029449463 1.207003242598148e-05 1.8822636320692254e-06 1.207003242598148e-05 -0.0003246153355576098" pbc="T T T"
Pt      -0.00000001       0.00000004      19.95723550        4       0.00000000       0.00199008      -0.00379596       0.01916046
Pt       2.80721400      -0.00000009      19.95723557        4       0.00000000      -0.00004997      -0.00027623       0.01332291
Pt       5.61442776      -0.00000012      19.95723555        4       0.00000000      -0.00171112      -0.00529258       0.01720697
Pt       1.40360718       2.43111835      19.95723542        4       0.00000000       0.00521149       0.00023667       0.01718085
Pt       4.21082079       2.43111843      19.95723552        4       0.00000000      -0.00382693      -0.00054707       0.01916206
Pt       7.01803481       2.43111844      19.95723550        4       0.00000000      -0.00002066      -0.00026388       0.02533133
Pt       2.80721421       4.86223734      19.95723529        4       0.00000000       0.00029679      -0.00022166      -0.03662725
Pt       5.61442795       4.86223729      19.95723542        4       0.00000000      -0.00315115       0.00373431       0.01723203
Pt       8.42164148       4.86223724      19.95723551        4       0.00000000       0.00175581       0.00303694       0.01927571
Pt       1.40360717       0.81037261      22.29206804        3       0.00000000       0.00293928       0.00067264      -0.00248444
Pt       4.21082121       0.81037256      22.29206808        3       0.00000000      -0.00043960      -0.00469659      -0.00228555
Pt       7.01803485       0.81037259      22.29206811        3       0.00000000       0.00443432      -0.01259283      -0.06683039
Pt       2.80721434       3.24149110      22.29206780        3       0.00000000      -0.00194706       0.07481273      -0.15147519
Pt       5.61442775       3.24149130      22.29206801        3       0.00000000      -0.01246032       0.00027063      -0.06740228
Pt       8.42164144       3.24149143      22.29206808        3       0.00000000       0.00747857       0.00830199      -0.06739236
Pt       4.21082099       5.67261006      22.29206776        3       0.00000000      -0.06439619      -0.04073159      -0.14944693
Pt       7.01803485       5.67260985      22.29206778        3       0.00000000      -0.00298582       0.00054902      -0.00256009
Pt       9.82524820       5.67261061      22.29206807        3       0.00000000       0.06675765      -0.03811342      -0.15027578
Pt      -0.00000053       1.62074559      24.58417356        2       0.00000000       0.00698557      -0.00029099      -0.02733839
Pt       2.80721447       1.62074548      24.58417379        2       0.00000000      -0.00367308      -0.24313402       0.25351772
Pt       5.61442782       1.62074544      24.58417375        2       0.00000000      -0.00662480       0.00030655      -0.02343711
Pt       1.40360648       4.05186445      24.58417388        2       0.00000000       0.00846639       0.01560673      -0.04811985
Pt       4.21082098       4.05186402      24.58417384        2       0.00000000      -0.00939883       0.01250165      -0.04840764
Pt       7.01803473       4.05186413      24.58417382        2       0.00000000       0.00065192       0.01377345      -0.01175752
Pt       2.80721282       6.48298339      24.58417358        2       0.00000000       0.00169435      -0.00800510      -0.05186716
Pt       5.61442787       6.48298335      24.58417389        2       0.00000000       0.21832557       0.12149616       0.25443047
Pt       8.42164231       6.48298348      24.58417365        2       0.00000000      -0.21376209       0.12984484       0.25650382
Pt       0.00339551       0.00218818      26.89536860        1       0.00000000      -0.00781574      -0.00198039       0.00764716
Pt       2.80976660       0.00883848      27.14689982        1       0.00000000      -0.01020344      -0.00873372       0.00311464
Pt       5.61450604       0.00195455      26.89656692        1       0.00000000       0.00174608      -0.00322576       0.00774489
Pt       1.40431913       2.43977514      26.89598722        1       0.00000000       0.01164376      -0.00195773       0.00473958
Pt       4.20823733       2.43867740      26.89491692        1       0.00000000       0.00345838      -0.00011209       0.00746809
Pt       7.01922016       2.43313051      26.90685664        1       0.00000000      -0.00422987       0.01507321      -0.00150767
Pt       2.80812489       4.86957122      26.91366503        1       0.00000000      -0.00105857      -0.00807676      -0.00349441
Pt       5.61240317       4.86907979      26.89998167        1       0.00000000       0.00346105      -0.00005844      -0.00761268
Pt       8.42396738       4.87131805      26.89875220        1       0.00000000      -0.00399614      -0.00876979      -0.00367255
C        2.79895541       0.02096244      29.23071934        0       1.00000000       0.02257820      -0.04007741       0.00759671
H        3.67915108      -0.53957866      29.58245066        0       0.00000000      -0.02505842       0.02014946      -0.02085855
H        1.87009807      -0.46143269      29.57024758        0       0.00000000       0.00797307       0.00883351      -0.00350328
H        2.84221101       1.06667669      29.56875797        0       0.00000000      -0.00103863       0.00175356      -0.00227815
