40
Lattice="8.421641763931781 0.0 0.0 4.2108208819658905 7.293355709136913 0.0 0.0 0.0 46.87624170604845" Properties=species:S:1:pos:R:3:tags:I:1:initial_magmoms:R:1:forces:R:3 charge=0 spin=0 energy=-206.8947632486316 free_energy=-206.8947632486316 stress="0.010365230962634087 -2.7584667350311065e-06 -1.5422758679051185e-06 -2.7584667350311065e-06 0.010314473882317543 -7.786028959344549e-07 -1.5422758679051185e-06 -7.786028959344549e-07 -0.00033792006433941424" pbc="T T T"
Pt      -0.00000001       0.00000004      19.95723550        4       0.00000000       0.00170232      -0.00460823       0.01938468
Pt       2.80721400      -0.00000009      19.95723557        4       0.00000000       0.00039109      -0.00068369       0.01322189
Pt       5.61442776      -0.00000012      19.95723555        4       0.00000000      -0.00169043      -0.00600627       0.01715735
Pt       1.40360718       2.43111835      19.95723542        4       0.00000000       0.00529359       0.00001934       0.01735398
Pt       4.21082079       2.43111843      19.95723552        4       0.00000000      -0.00413877      -0.00093622       0.01906797
Pt       7.01803481       2.43111844      19.95723550        4       0.00000000       0.00042875      -0.00109033       0.02515852
Pt       2.80721421       4.86223734      19.95723529        4       0.00000000       0.00024781      -0.00036074      -0.03667609
Pt       5.61442795       4.86223729      19.95723542        4       0.00000000      -0.00331922       0.00293947       0.01753562
Pt       8.42164148       4.86223724      19.95723551        4       0.00000000       0.00194594       0.00243053       0.01934115
Pt       1.40360717       0.81037261      22.29206804        3       0.00000000       0.00314032      -0.00176813      -0.00479268
Pt       4.21082121       0.81037256      22.29206808        3       0.00000000      -0.00139580      -0.00683906      -0.00227683
Pt       7.01803485       0.81037259      22.29206811        3       0.00000000       0.00456352      -0.01397073      -0.06586278
Pt       2.80721434       3.24149110      22.29206780        3       0.00000000      -0.00193770       0.07256137      -0.14983100
Pt       5.61442775       3.24149130      22.29206801        3       0.00000000      -0.01186638      -0.00200140      -0.06794358
Pt       8.42164144       3.24149143      22.29206808        3       0.00000000       0.00719422       0.00582023      -0.06750213
Pt       4.21082099       5.67261006      22.29206776        3       0.00000000      -0.06464271      -0.04295924      -0.14755103
Pt       7.01803485       5.67260985      22.29206778        3       0.00000000      -0.00241908      -0.00211119      -0.00549676
Pt       9.82524820       5.67261061      22.29206807        3       0.00000000       0.06573918      -0.03984390      -0.14944038
Pt      -0.00000053       1.62074559      24.58417356        2       0.00000000       0.00794130       0.00756776      -0.00738369
Pt       2.80721447       1.62074548      24.58417379        2       0.00000000      -0.00418725      -0.23614718       0.26451361
Pt       5.61442782       1.62074544      24.58417375        2       0.00000000      -0.00746192       0.00644566      -0.02929472
Pt       1.40360648       4.05186445      24.58417388        2       0.00000000       0.01260933       0.01720299      -0.05646617
Pt       4.21082098       4.05186402      24.58417384        2       0.00000000      -0.01556602       0.02245263      -0.05089124
Pt       7.01803473       4.05186413      24.58417382        2       0.00000000       0.00044750       0.02123002      -0.00787235
Pt       2.80721282       6.48298339      24.58417358        2       0.00000000       0.00667445      -0.00207800      -0.05007194
Pt       5.61442787       6.48298335      24.58417389        2       0.00000000       0.20543364       0.12510161       0.25120711
Pt       8.42164231       6.48298348      24.58417365        2       0.00000000      -0.20459019       0.13881963       0.24498834
Pt       0.00159377       0.01197787      26.90066070        1       0.00000000      -0.00540821      -0.00360072      -0.01640886
Pt       2.80588847       0.00174692      27.13805860        1       0.00000000       0.00256420       0.03552774       0.01924483
Pt       5.61889757       0.01559307      26.89670718        1       0.00000000      -0.02065231      -0.02064979       0.01475382
Pt       1.40712923       2.44883182      26.89730568        1       0.00000000       0.00427928      -0.02623232      -0.00163551
Pt       4.21157056       2.44790958      26.89604121        1       0.00000000      -0.02529509      -0.01699468      -0.00045664
Pt       7.01324909       2.44591716      26.90942540        1       0.00000000       0.03114176      -0.00239930      -0.00861881
Pt       2.80296081       4.88006257      26.91484357        1       0.00000000       0.02150909      -0.02166085      -0.00310406
Pt       5.60787905       4.87456258      26.90012532        1       0.00000000       0.01108582       0.00947684      -0.00479613
Pt       8.43031025       4.88067366      26.89655920        1       0.00000000      -0.02475334      -0.02746238      -0.00183723
C        2.80109847       0.00786182      29.22270822        0       1.00000000       0.02600759       0.02008764      -0.03164415
H        3.32445513       0.91567391      29.55380361        0       0.00000000       0.00612163       0.03093731       0.02600288
H        3.32428253      -0.89105101      29.57779110        0       0.00000000       0.00703293      -0.03576610      -0.01352780
H        1.75653717       0.01257119      29.56322876        0       0.00000000      -0.03417075      -0.00245030       0.01245100
