40
Lattice="8.421641763931781 0.0 0.0 4.2108208819658905 7.293355709136913 0.0 0.0 0.0 46.87624170604845" Properties=species:S:1:pos:R:3:tags:I:1:initial_magmoms:R:1:forces:R:3 charge=0 spin=0 energy=-206.89338995761597 free_energy=-206.89338995761597 stress="0.010475249029695988 -8.798800081422087e-06 4.906711183139123e-06 -8.798800081422087e-06 0.010345511138439178 3.279883458162658e-05 4.906711183139123e-06 3.279883458162658e-05 -0.00027788785519078374" pbc="T T T"
Pt      -0.00000001       0.00000004      19.95723550        4       0.00000000       0.00029404      -0.00153631       0.01309044
Pt       2.80721400      -0.00000009      19.95723557        4       0.00000000      -0.00114826      -0.00717566       0.01685135
Pt       5.61442776      -0.00000012      19.95723555        4       0.00000000       0.00212050      -0.00539877       0.01935283
Pt       1.40360718       2.43111835      19.95723542        4       0.00000000      -0.00337569      -0.00213950       0.01967953
Pt       4.21082079       2.43111843      19.95723552        4       0.00000000       0.00062482      -0.00202045       0.02512841
Pt       7.01803481       2.43111844      19.95723550        4       0.00000000       0.00541980      -0.00132329       0.01714359
Pt       2.80721421       4.86223734      19.95723529        4       0.00000000      -0.00302788       0.00215545       0.01762152
Pt       5.61442795       4.86223729      19.95723542        4       0.00000000       0.00223284       0.00129602       0.01965696
Pt       8.42164148       4.86223724      19.95723551        4       0.00000000      -0.00003217       0.00044715      -0.03664983
Pt       1.40360717       0.81037261      22.29206804        3       0.00000000      -0.00016522      -0.01108320      -0.00318121
Pt       4.21082121       0.81037256      22.29206808        3       0.00000000       0.00440207      -0.01879317      -0.06594540
Pt       7.01803485       0.81037259      22.29206811        3       0.00000000       0.00472956      -0.00523367      -0.00186420
Pt       2.80721434       3.24149110      22.29206780        3       0.00000000      -0.01196882      -0.00552011      -0.06632021
Pt       5.61442775       3.24149130      22.29206801        3       0.00000000       0.00851240       0.00170339      -0.06579364
Pt       8.42164144       3.24149143      22.29206808        3       0.00000000      -0.00105474       0.07192902      -0.15534639
Pt       4.21082099       5.67261006      22.29206776        3       0.00000000      -0.00272702      -0.00625364      -0.00891976
Pt       7.01803485       5.67260985      22.29206778        3       0.00000000       0.06489146      -0.04270549      -0.14861849
Pt       9.82524820       5.67261061      22.29206807        3       0.00000000      -0.06326305      -0.04637961      -0.14818875
Pt      -0.00000053       1.62074559      24.58417356        2       0.00000000      -0.00518447      -0.22338820       0.28660324
Pt       2.80721447       1.62074548      24.58417379        2       0.00000000      -0.01738555       0.02489871      -0.01666871
Pt       5.61442782       1.62074544      24.58417375        2       0.00000000       0.01066792       0.01414931      -0.00762703
Pt       1.40360648       4.05186445      24.58417388        2       0.00000000      -0.01555091       0.02925446      -0.04050389
Pt       4.21082098       4.05186402      24.58417384        2       0.00000000       0.00240985       0.03442639      -0.01342322
Pt       7.01803473       4.05186413      24.58417382        2       0.00000000       0.00345069       0.03456938      -0.03965646
Pt       2.80721282       6.48298339      24.58417358        2       0.00000000       0.20010386       0.14669815       0.26328650
Pt       5.61442787       6.48298335      24.58417389        2       0.00000000      -0.20333049       0.14285590       0.24990620
Pt       8.42164231       6.48298348      24.58417365        2       0.00000000       0.01014394       0.01597874      -0.03990652
Pt       0.00216608       0.02760586      27.14396004        1       0.00000000      -0.01979718       0.00342355      -0.00320948
Pt       2.80656948       0.03010820      26.89814795        1       0.00000000       0.00489610      -0.02769011      -0.00280487
Pt       5.61461558       0.03232023      26.90566699        1       0.00000000       0.00309227      -0.03470989      -0.01868354
Pt       1.39842313       2.46625909      26.90219180        1       0.00000000      -0.01259193      -0.02810067      -0.01578717
Pt       4.20789715       2.45900602      26.90667785        1       0.00000000       0.00393901      -0.00199323       0.00231009
Pt       7.01673298       2.46635406      26.90156599        1       0.00000000       0.01807553      -0.02424821      -0.01774762
Pt       2.80354769       4.89198220      26.89993915        1       0.00000000      -0.01990918       0.00258125      -0.01585471
Pt       5.61078911       4.89330253      26.90348893        1       0.00000000       0.01701274      -0.00642994      -0.01916846
Pt       8.41564511       4.89898212      26.91303742        1       0.00000000       0.01800146      -0.03203551      -0.00141251
C        0.01856151       0.01443211      29.22714259        0       1.00000000      -0.01394816      -0.00032907       0.00741168
H       -0.50952806       0.91166813      29.58243118        0       0.00000000       0.02074241       0.01725633      -0.01314019
H        1.06887942       0.01830969      29.55570872        0       0.00000000      -0.02989778       0.00452829       0.01643600
H       -0.49717803      -0.89456046      29.57042819        0       0.00000000       0.01859493      -0.01366372      -0.00805608
