40
Lattice="8.421641763931781 0.0 0.0 4.2108208819658905 7.293355709136913 0.0 0.0 0.0 46.87624170604845" Properties=species:S:1:pos:R:3:tags:I:1:initial_magmoms:R:1:forces:R:3 charge=0 spin=0 energy=-206.89713789767944 free_energy=-206.89713789767944 stress="0.010351884178817272 -1.664606315898709e-05 -8.640527994430158e-06 -1.664606315898709e-05 0.010365765541791916 1.6025865988922305e-05 -8.640527994430158e-06 1.6025865988922305e-05 -0.0003570383123587817" pbc="T T T"
Pt      -0.00000001       0.00000004      19.95723550        4       0.00000000       0.00231061      -0.00338097       0.01944471
Pt       2.80721400      -0.00000009      19.95723557        4       0.00000000       0.00051208       0.00019269       0.01316996
Pt       5.61442776      -0.00000012      19.95723555        4       0.00000000      -0.00135893      -0.00478674       0.01746164
Pt       1.40360718       2.43111835      19.95723542        4       0.00000000       0.00559347       0.00066852       0.01688227
Pt       4.21082079       2.43111843      19.95723552        4       0.00000000      -0.00364116       0.00019557       0.01926772
Pt       7.01803481       2.43111844      19.95723550        4       0.00000000       0.00057000       0.00014086       0.02529164
Pt       2.80721421       4.86223734      19.95723529        4       0.00000000      -0.00040669      -0.00091034      -0.03676158
Pt       5.61442795       4.86223729      19.95723542        4       0.00000000      -0.00249889       0.00411306       0.01739961
Pt       8.42164148       4.86223724      19.95723551        4       0.00000000       0.00208156       0.00337634       0.01912440
Pt       1.40360717       0.81037261      22.29206804        3       0.00000000       0.00477521       0.00151631      -0.00258064
Pt       4.21082121       0.81037256      22.29206808        3       0.00000000       0.00147745      -0.00275866      -0.00472616
Pt       7.01803485       0.81037259      22.29206811        3       0.00000000       0.00631457      -0.01115607      -0.06623548
Pt       2.80721434       3.24149110      22.29206780        3       0.00000000      -0.00047594       0.07446344      -0.14903626
Pt       5.61442775       3.24149130      22.29206801        3       0.00000000      -0.01038737       0.00204791      -0.06710247
Pt       8.42164144       3.24149143      22.29206808        3       0.00000000       0.00923328       0.00950975      -0.06777652
Pt       4.21082099       5.67261006      22.29206776        3       0.00000000      -0.06490558      -0.04043443      -0.15142959
Pt       7.01803485       5.67260985      22.29206778        3       0.00000000      -0.00099674       0.00264160      -0.00104621
Pt       9.82524820       5.67261061      22.29206807        3       0.00000000       0.06766827      -0.03628664      -0.15004738
Pt      -0.00000053       1.62074559      24.58417356        2       0.00000000      -0.00158050      -0.00447886      -0.02216412
Pt       2.80721447       1.62074548      24.58417379        2       0.00000000      -0.00875198      -0.24122533       0.24231592
Pt       5.61442782       1.62074544      24.58417375        2       0.00000000      -0.01080916      -0.00512153      -0.02652502
Pt       1.40360648       4.05186445      24.58417388        2       0.00000000       0.00366227       0.00932583      -0.05134441
Pt       4.21082098       4.05186402      24.58417384        2       0.00000000      -0.01512626       0.00744630      -0.04830543
Pt       7.01803473       4.05186413      24.58417382        2       0.00000000      -0.00685884       0.00796407      -0.00821320
Pt       2.80721282       6.48298339      24.58417358        2       0.00000000      -0.00236961      -0.01172239      -0.04779404
Pt       5.61442787       6.48298335      24.58417389        2       0.00000000       0.21198347       0.11732484       0.25483206
Pt       8.42164231       6.48298348      24.58417365        2       0.00000000      -0.21632737       0.11911678       0.25167164
Pt      -0.00228323      -0.00288436      26.89706773        1       0.00000000      -0.02373162       0.00008418       0.00054580
Pt       2.79764794      -0.00262853      27.14119714        1       0.00000000       0.02064100       0.01955901      -0.00050872
Pt       5.60518850      -0.00428652      26.89617377        1       0.00000000       0.01185743      -0.00498655       0.00387688
Pt       1.39910965       2.43215509      26.89592460        1       0.00000000       0.00442898       0.00593834       0.00498945
Pt       4.20353870       2.43152596      26.89568587        1       0.00000000      -0.00284119       0.00607282      -0.00008539
Pt       7.00886670       2.42766947      26.90813520        1       0.00000000       0.01023222       0.01223510      -0.00562291
Pt       2.79911634       4.86206255      26.91310219        1       0.00000000       0.00635778      -0.00084231      -0.00225472
Pt       5.60285273       4.86644282      26.89969953        1       0.00000000       0.01199577      -0.01572197      -0.00343156
Pt       8.41783252       4.86057142      26.89904461        1       0.00000000      -0.00507724       0.00266041      -0.00408485
C        2.80608722       0.03264085      29.22334523        0       1.00000000      -0.00864831      -0.00345963       0.02378980
H        3.65747368      -0.57074626      29.57234657        0       0.00000000      -0.00573777       0.01410510      -0.00291505
H        1.85561149      -0.39346890      29.57715307        0       0.00000000      -0.00089063      -0.00890192      -0.00809290
H        2.90599118       1.07906509      29.54946853        0       0.00000000       0.01172654      -0.02452434      -0.00197860
