40
Lattice="8.421641763931781 0.0 0.0 4.2108208819658905 7.293355709136913 0.0 0.0 0.0 46.87624170604845" Properties=species:S:1:pos:R:3:tags:I:1:initial_magmoms:R:1:forces:R:3 charge=0 spin=0 energy=-206.8953049356433 free_energy=-206.8953049356433 stress="0.010379456914961338 -1.1402784366509877e-05 -3.1075605875230394e-06 -1.1402784366509877e-05 0.010334230959415436 2.7890995625057258e-05 -3.1075605875230394e-06 2.7890995625057258e-05 -0.00035311654210090637" pbc="T T T"
Pt      -0.00000001       0.00000004      19.95723550        4       0.00000000       0.00275403      -0.00397428       0.01926241
Pt       2.80721400      -0.00000009      19.95723557        4       0.00000000       0.00050807      -0.00070387       0.01327986
Pt       5.61442776      -0.00000012      19.95723555        4       0.00000000      -0.00125058      -0.00551715       0.01720990
Pt       1.40360718       2.43111835      19.95723542        4       0.00000000       0.00561841       0.00030360       0.01713346
Pt       4.21082079       2.43111843      19.95723552        4       0.00000000      -0.00338184      -0.00047869       0.01926837
Pt       7.01803481       2.43111844      19.95723550        4       0.00000000       0.00031036      -0.00045237       0.02519845
Pt       2.80721421       4.86223734      19.95723529        4       0.00000000       0.00004478      -0.00002276      -0.03673919
Pt       5.61442795       4.86223729      19.95723542        4       0.00000000      -0.00291266       0.00365963       0.01733727
Pt       8.42164148       4.86223724      19.95723551        4       0.00000000       0.00274753       0.00274106       0.01933392
Pt       1.40360717       0.81037261      22.29206804        3       0.00000000       0.00511984      -0.00112993      -0.00234597
Pt       4.21082121       0.81037256      22.29206808        3       0.00000000       0.00142911      -0.00538744      -0.00453708
Pt       7.01803485       0.81037259      22.29206811        3       0.00000000       0.00625163      -0.01335750      -0.06790251
Pt       2.80721434       3.24149110      22.29206780        3       0.00000000      -0.00045231       0.07473197      -0.15162165
Pt       5.61442775       3.24149130      22.29206801        3       0.00000000      -0.01091514      -0.00086093      -0.06563142
Pt       8.42164144       3.24149143      22.29206808        3       0.00000000       0.00914163       0.00706720      -0.06572637
Pt       4.21082099       5.67261006      22.29206776        3       0.00000000      -0.06363746      -0.04133144      -0.14978006
Pt       7.01803485       5.67260985      22.29206778        3       0.00000000      -0.00087418      -0.00038535      -0.00387355
Pt       9.82524820       5.67261061      22.29206807        3       0.00000000       0.06750049      -0.03802912      -0.14902695
Pt      -0.00000053       1.62074559      24.58417356        2       0.00000000       0.00414193       0.00342298      -0.01772893
Pt       2.80721447       1.62074548      24.58417379        2       0.00000000      -0.01192978      -0.23907989       0.25807762
Pt       5.61442782       1.62074544      24.58417375        2       0.00000000      -0.01683496       0.00461093      -0.01722895
Pt       1.40360648       4.05186445      24.58417388        2       0.00000000       0.00306937       0.01452964      -0.05624226
Pt       4.21082098       4.05186402      24.58417384        2       0.00000000      -0.01311229       0.00973172      -0.05945111
Pt       7.01803473       4.05186413      24.58417382        2       0.00000000      -0.00393709       0.01848978      -0.02930859
Pt       2.80721282       6.48298339      24.58417358        2       0.00000000      -0.00152691      -0.00648277      -0.06247449
Pt       5.61442787       6.48298335      24.58417389        2       0.00000000       0.21061987       0.12820998       0.26138458
Pt       8.42164231       6.48298348      24.58417365        2       0.00000000      -0.21681017       0.13216965       0.25083053
Pt      -0.00885616       0.00725466      26.89708314        1       0.00000000       0.01491355      -0.00592622      -0.00499390
Pt       2.80141795       0.01232074      27.14494292        1       0.00000000       0.00359045      -0.00054043      -0.00298164
Pt       5.61143763       0.00459056      26.89350063        1       0.00000000      -0.01987434      -0.00065742       0.02020329
Pt       1.39630651       2.44492760      26.89831297        1       0.00000000       0.01494672      -0.02313215       0.00373884
Pt       4.19709272       2.44253553      26.89901277        1       0.00000000       0.01811228      -0.01435609      -0.00959798
Pt       7.00893180       2.44470844      26.90674101        1       0.00000000       0.00784221      -0.02490370       0.00194768
Pt       2.80373409       4.86943710      26.90859053        1       0.00000000      -0.00804021       0.00739709       0.01591760
Pt       5.60761895       4.86908911      26.89648329        1       0.00000000      -0.00546122       0.02937109       0.00901319
Pt       8.41668590       4.87179835      26.89791439        1       0.00000000       0.00798822       0.00866367      -0.00319497
C        2.79662055       0.01808887      29.22817088        0       1.00000000      -0.02800403      -0.01592377       0.02040637
H        1.74778365       0.02256086      29.56274935        0       0.00000000       0.02932390      -0.00013877       0.00214987
H        3.32227362       0.91706311      29.58346000        0       0.00000000      -0.00447621       0.00178119      -0.03468413
H        3.31108916      -0.89197274      29.57038733        0       0.00000000      -0.00254294      -0.00410911       0.00337868
