40
Lattice="8.421641763931781 0.0 0.0 4.2108208819658905 7.293355709136913 0.0 0.0 0.0 46.87624170604845" Properties=species:S:1:pos:R:3:tags:I:1:initial_magmoms:R:1:forces:R:3 charge=0 spin=0 energy=-206.1541054422351 free_energy=-206.1541054422351 stress="0.010495259426534176 1.3050949746684637e-05 1.0812279469973873e-05 1.3050949746684637e-05 0.009710760787129402 5.1753464504145086e-05 1.0812279469973873e-05 5.1753464504145086e-05 -0.0002518619876354933" pbc="T T T"
Pt      -0.00000001       0.00000004      19.95723550        4       0.00000000       0.00174925       0.00074260       0.01679204
Pt       2.80721400      -0.00000009      19.95723557        4       0.00000000      -0.00053983      -0.00052563       0.01613923
Pt       5.61442776      -0.00000012      19.95723555        4       0.00000000       0.00065130      -0.00770045       0.02619535
Pt       1.40360718       2.43111835      19.95723542        4       0.00000000      -0.00075929       0.00245602       0.02315490
Pt       4.21082079       2.43111843      19.95723552        4       0.00000000      -0.00030676       0.00211833       0.02248007
Pt       7.01803481       2.43111844      19.95723550        4       0.00000000       0.00171009       0.00306207       0.01942272
Pt       2.80721421       4.86223734      19.95723529        4       0.00000000       0.01501362      -0.00047153      -0.00142020
Pt       5.61442795       4.86223729      19.95723542        4       0.00000000      -0.00105586       0.00413550       0.01339825
Pt       8.42164148       4.86223724      19.95723551        4       0.00000000      -0.01590997       0.00143828      -0.00235415
Pt       1.40360717       0.81037261      22.29206804        3       0.00000000       0.00285945       0.01708398      -0.02952316
Pt       4.21082121       0.81037256      22.29206808        3       0.00000000       0.00164789      -0.00697647      -0.03920935
Pt       7.01803485       0.81037259      22.29206811        3       0.00000000       0.00271363       0.00059705      -0.03528957
Pt       2.80721434       3.24149110      22.29206780        3       0.00000000      -0.00308697       0.03863205      -0.08807418
Pt       5.61442775       3.24149130      22.29206801        3       0.00000000      -0.00082141       0.00786372      -0.07090210
Pt       8.42164144       3.24149143      22.29206808        3       0.00000000       0.00169748       0.04174684      -0.09048356
Pt       4.21082099       5.67261006      22.29206776        3       0.00000000      -0.02325536      -0.00970234      -0.06537183
Pt       7.01803485       5.67260985      22.29206778        3       0.00000000       0.02196678      -0.00661193      -0.06918574
Pt       9.82524820       5.67261061      22.29206807        3       0.00000000      -0.00038518      -0.04378756      -0.11147740
Pt      -0.00000053       1.62074559      24.58417356        2       0.00000000      -0.04369237      -0.15337390       0.07910389
Pt       2.80721447       1.62074548      24.58417379        2       0.00000000       0.04141126      -0.14962538       0.06812134
Pt       5.61442782       1.62074544      24.58417375        2       0.00000000      -0.00573625      -0.01931597      -0.01143401
Pt       1.40360648       4.05186445      24.58417388        2       0.00000000      -0.00095178       0.05703704      -0.18250628
Pt       4.21082098       4.05186402      24.58417384        2       0.00000000      -0.05480022      -0.03401437      -0.10866472
Pt       7.01803473       4.05186413      24.58417382        2       0.00000000       0.05991923      -0.02821888      -0.11034610
Pt       2.80721282       6.48298339      24.58417358        2       0.00000000       0.19010791       0.12201183       0.33356038
Pt       5.61442787       6.48298335      24.58417389        2       0.00000000       0.00106062       0.05513887       0.08498923
Pt       8.42164231       6.48298348      24.58417365        2       0.00000000      -0.19056328       0.13578191       0.33073235
Pt       0.02429562      -0.03327662      27.00983079        1       0.00000000      -0.03490077      -0.00382426      -0.00902142
Pt       2.78604304      -0.03448978      27.00665224        1       0.00000000       0.03564858      -0.00201661      -0.00776916
Pt       5.61583794      -0.01442311      26.91189973        1       0.00000000      -0.00122647      -0.00548758      -0.03761353
Pt       1.40224098       2.46574719      26.87195611        1       0.00000000       0.00152038       0.01727593      -0.00780923
Pt       4.20902815       2.40760627      26.91138884        1       0.00000000      -0.00116400      -0.02511555       0.00613836
Pt       7.01724383       2.40749498      26.91070724        1       0.00000000       0.00465491      -0.02728847       0.00757239
Pt       2.80421094       4.84904935      26.91352739        1       0.00000000      -0.00062316       0.00991379       0.01204187
Pt       5.61373380       4.79078115      26.88016807        1       0.00000000       0.00208259      -0.02308013       0.00213887
Pt       8.42420080       4.84922476      26.91266189        1       0.00000000       0.00213156       0.01143165       0.01260686
C        1.40261700       0.04756207      28.89603082        0       1.00000000      -0.00407641       0.04283962      -0.01434383
H        2.28237099      -0.52555965      29.24961260        0       0.00000000       0.03219881      -0.01759959       0.01468357
H        0.52502924      -0.52646330      29.25267022        0       0.00000000      -0.03501715      -0.01888233       0.02588672
H        1.40312733       1.06543878      29.30114946        0       0.00000000      -0.00187271       0.01231188      -0.02235893
