40
Lattice="8.421641763931781 0.0 0.0 4.2108208819658905 7.293355709136913 0.0 0.0 0.0 46.87624170604845" Properties=species:S:1:pos:R:3:tags:I:1:initial_magmoms:R:1:forces:R:3 charge=0 spin=0 energy=-206.8921768838855 free_energy=-206.8921768838855 stress="0.01045306771993637 -1.1115991583210416e-05 1.9345209238963434e-06 -1.1115991583210416e-05 0.010326092131435871 5.718340980820358e-05 1.9345209238963434e-06 5.718340980820358e-05 -0.00034555039019323885" pbc="T T T"
Pt      -0.00000001       0.00000004      19.95723550        4       0.00000000       0.00233270      -0.00580160       0.01881632
Pt       2.80721400      -0.00000009      19.95723557        4       0.00000000       0.00047679      -0.00201924       0.01296797
Pt       5.61442776      -0.00000012      19.95723555        4       0.00000000      -0.00121031      -0.00734896       0.01678797
Pt       1.40360718       2.43111835      19.95723542        4       0.00000000       0.00544812      -0.00215518       0.01721696
Pt       4.21082079       2.43111843      19.95723552        4       0.00000000      -0.00335192      -0.00249516       0.01936004
Pt       7.01803481       2.43111844      19.95723550        4       0.00000000       0.00004733      -0.00254174       0.02514213
Pt       2.80721421       4.86223734      19.95723529        4       0.00000000       0.00002713       0.00073067      -0.03673677
Pt       5.61442795       4.86223729      19.95723542        4       0.00000000      -0.00262216       0.00199955       0.01764208
Pt       8.42164148       4.86223724      19.95723551        4       0.00000000       0.00240519       0.00119705       0.01934276
Pt       1.40360717       0.81037261      22.29206804        3       0.00000000       0.00364796      -0.00741013      -0.00003942
Pt       4.21082121       0.81037256      22.29206808        3       0.00000000      -0.00069058      -0.01127739      -0.00126730
Pt       7.01803485       0.81037259      22.29206811        3       0.00000000       0.00489596      -0.01998614      -0.06639818
Pt       2.80721434       3.24149110      22.29206780        3       0.00000000      -0.00163631       0.07226582      -0.15693493
Pt       5.61442775       3.24149130      22.29206801        3       0.00000000      -0.01236256      -0.00732633      -0.06581006
Pt       8.42164144       3.24149143      22.29206808        3       0.00000000       0.00796789       0.00000399      -0.06751265
Pt       4.21082099       5.67261006      22.29206776        3       0.00000000      -0.06338967      -0.04781089      -0.14904915
Pt       7.01803485       5.67260985      22.29206778        3       0.00000000      -0.00178882      -0.00843755      -0.00807102
Pt       9.82524820       5.67261061      22.29206807        3       0.00000000       0.06458892      -0.04417790      -0.14784774
Pt      -0.00000053       1.62074559      24.58417356        2       0.00000000       0.00875985       0.03002193      -0.01643569
Pt       2.80721447       1.62074548      24.58417379        2       0.00000000      -0.00291211      -0.22305736       0.27410415
Pt       5.61442782       1.62074544      24.58417375        2       0.00000000      -0.01368453       0.02243928      -0.00486948
Pt       1.40360648       4.05186445      24.58417388        2       0.00000000       0.00648175       0.04012131      -0.04093831
Pt       4.21082098       4.05186402      24.58417384        2       0.00000000      -0.01012956       0.03249338      -0.04776144
Pt       7.01803473       4.05186413      24.58417382        2       0.00000000      -0.00128916       0.03698889      -0.01687581
Pt       2.80721282       6.48298339      24.58417358        2       0.00000000      -0.00468637       0.02445625      -0.04640245
Pt       5.61442787       6.48298335      24.58417389        2       0.00000000       0.20729464       0.14938581       0.23870820
Pt       8.42164231       6.48298348      24.58417365        2       0.00000000      -0.20286655       0.15521161       0.24831581
Pt       0.00089846       0.03616771      26.89843445        1       0.00000000      -0.03440342      -0.01696371      -0.00148011
Pt       2.79880959       0.03824487      27.14410281        1       0.00000000       0.03842957      -0.00969832      -0.02014455
Pt       5.60858073       0.03275020      26.90160065        1       0.00000000       0.01277607      -0.01254773      -0.00576025
Pt       1.40791429       2.47072330      26.89873741        1       0.00000000      -0.01028964      -0.01056581       0.00040473
Pt       4.20358845       2.47019391      26.90101817        1       0.00000000       0.01775272      -0.02023559      -0.01683384
Pt       7.01604150       2.46640822      26.90773093        1       0.00000000      -0.00426742      -0.01289203      -0.00560923
Pt       2.81011420       4.90648807      26.91138673        1       0.00000000      -0.02557456      -0.04172736       0.00495438
Pt       5.61191686       4.90256219      26.89891933        1       0.00000000      -0.00937813      -0.02903221      -0.00170542
Pt       8.41814612       4.89985370      26.90061880        1       0.00000000       0.02601465      -0.01934426      -0.02026645
C        2.79525910       0.01954518      29.22547058        0       1.00000000       0.02043347      -0.00285574       0.02280551
H        3.31155751      -0.89512667      29.55394663        0       0.00000000      -0.01907958       0.01574068       0.01770578
H        1.74734052       0.02151827      29.55998230        0       0.00000000       0.01016891      -0.00337412       0.01932569
H        3.32329491       0.91534302      29.58665220        0       0.00000000      -0.01433647      -0.01197375      -0.02885022
