40
Lattice="8.421641763931781 0.0 0.0 4.2108208819658905 7.293355709136913 0.0 0.0 0.0 46.87624170604845" Properties=species:S:1:pos:R:3:tags:I:1:initial_magmoms:R:1:forces:R:3 charge=0 spin=0 energy=-206.8948738748523 free_energy=-206.8948738748523 stress="0.01036992110311985 -2.236973273284093e-07 5.1442448238958605e-06 -2.236973273284093e-07 0.010313307866454124 -3.1531637887383113e-06 5.1442448238958605e-06 -3.1531637887383113e-06 -0.0003377995453774929" pbc="T T T"
Pt      -0.00000001       0.00000004      19.95723550        4       0.00000000      -0.00013147      -0.00069653       0.01318378
Pt       2.80721400      -0.00000009      19.95723557        4       0.00000000      -0.00136752      -0.00603296       0.01718587
Pt       5.61442776      -0.00000012      19.95723555        4       0.00000000       0.00198419      -0.00451366       0.01937476
Pt       1.40360718       2.43111835      19.95723542        4       0.00000000      -0.00389683      -0.00080408       0.01943915
Pt       4.21082079       2.43111843      19.95723552        4       0.00000000      -0.00015409      -0.00096514       0.02532516
Pt       7.01803481       2.43111844      19.95723550        4       0.00000000       0.00541957      -0.00030242       0.01711872
Pt       2.80721421       4.86223734      19.95723529        4       0.00000000      -0.00293837       0.00308433       0.01747731
Pt       5.61442795       4.86223729      19.95723542        4       0.00000000       0.00222785       0.00230191       0.01939831
Pt       8.42164148       4.86223724      19.95723551        4       0.00000000      -0.00006629      -0.00036375      -0.03692918
Pt       1.40360717       0.81037261      22.29206804        3       0.00000000      -0.00115803      -0.00691586      -0.00500439
Pt       4.21082121       0.81037256      22.29206808        3       0.00000000       0.00388892      -0.01471342      -0.06535950
Pt       7.01803485       0.81037259      22.29206811        3       0.00000000       0.00412112      -0.00178644      -0.00275478
Pt       2.80721434       3.24149110      22.29206780        3       0.00000000      -0.01230239      -0.00126441      -0.06652912
Pt       5.61442775       3.24149130      22.29206801        3       0.00000000       0.00756791       0.00532859      -0.06730741
Pt       8.42164144       3.24149143      22.29206808        3       0.00000000      -0.00179594       0.07225133      -0.15073910
Pt       4.21082099       5.67261006      22.29206776        3       0.00000000      -0.00297917      -0.00192794      -0.00531014
Pt       7.01803485       5.67260985      22.29206778        3       0.00000000       0.06623507      -0.03978731      -0.14829053
Pt       9.82524820       5.67261061      22.29206807        3       0.00000000      -0.06404015      -0.04259153      -0.14955865
Pt      -0.00000053       1.62074559      24.58417356        2       0.00000000      -0.00081195      -0.23462462       0.26695257
Pt       2.80721447       1.62074548      24.58417379        2       0.00000000      -0.00805431       0.00951195      -0.00828912
Pt       5.61442782       1.62074544      24.58417375        2       0.00000000       0.00635823       0.00665106      -0.02908793
Pt       1.40360648       4.05186445      24.58417388        2       0.00000000      -0.01316724       0.01292630      -0.05231832
Pt       4.21082098       4.05186402      24.58417384        2       0.00000000       0.00014631       0.02144678      -0.00844821
Pt       7.01803473       4.05186413      24.58417382        2       0.00000000       0.01287662       0.02603691      -0.04867965
Pt       2.80721282       6.48298339      24.58417358        2       0.00000000       0.20701474       0.13231993       0.24500036
Pt       5.61442787       6.48298335      24.58417389        2       0.00000000      -0.20173155       0.12973852       0.24781051
Pt       8.42164231       6.48298348      24.58417365        2       0.00000000      -0.00178632      -0.00266168      -0.04955454
Pt       0.00267813       0.00101703      27.13829555        1       0.00000000      -0.00914698       0.03985300       0.01691639
Pt       2.80470986       0.01099934      26.90007483        1       0.00000000       0.01447299      -0.00618664      -0.01328835
Pt       5.61048623       0.01685143      26.89611520        1       0.00000000       0.01917876      -0.02199171       0.01531991
Pt       1.40255328       2.44767891      26.89840273        1       0.00000000      -0.01026017      -0.02057843      -0.00603690
Pt       4.21528448       2.44652877      26.90899505        1       0.00000000      -0.02748496      -0.00488968      -0.00816056
Pt       7.01821181       2.44783794      26.89627412        1       0.00000000       0.02954517      -0.01253734      -0.00176388
Pt       2.79967512       4.88217989      26.89779810        1       0.00000000       0.01262986      -0.03160231      -0.00549579
Pt       5.61964982       4.87508591      26.89991381        1       0.00000000      -0.00505741       0.00210906      -0.00440682
Pt       8.42646287       4.87950157      26.91495279        1       0.00000000      -0.02052644      -0.02138077      -0.00468222
C        0.00756475       0.00585136      29.22262957        0       1.00000000      -0.02409079       0.02199739      -0.02963126
H        1.05252047       0.01355152      29.56226759        0       0.00000000       0.02885308      -0.00463931       0.01445594
H       -0.51399282      -0.89380476      29.57826377        0       0.00000000      -0.00187915      -0.03825496      -0.01530454
H       -0.51791663       0.91226536      29.55370136        0       0.00000000      -0.00769262       0.03645558       0.02797251
