40
Lattice="8.421641763931781 0.0 0.0 4.2108208819658905 7.293355709136913 0.0 0.0 0.0 46.87624170604845" Properties=species:S:1:pos:R:3:tags:I:1:initial_magmoms:R:1:forces:R:3 charge=0 spin=0 energy=-206.89339567966186 free_energy=-206.89339567966186 stress="0.010473298840224743 -8.655341844132636e-06 5.011486791772768e-06 -8.655341844132636e-06 0.010343874804675579 3.254993862356059e-05 5.011486791772768e-06 3.254993862356059e-05 -0.00027611240511760116" pbc="T T T"
Pt      -0.00000001       0.00000004      19.95723550        4       0.00000000       0.00027623      -0.00152495       0.01310028
Pt       2.80721400      -0.00000009      19.95723557        4       0.00000000      -0.00115750      -0.00717388       0.01685672
Pt       5.61442776      -0.00000012      19.95723555        4       0.00000000       0.00212584      -0.00541190       0.01935200
Pt       1.40360718       2.43111835      19.95723542        4       0.00000000      -0.00338104      -0.00212464       0.01967660
Pt       4.21082079       2.43111843      19.95723552        4       0.00000000       0.00062412      -0.00200786       0.02512873
Pt       7.01803481       2.43111844      19.95723550        4       0.00000000       0.00540698      -0.00130921       0.01713337
Pt       2.80721421       4.86223734      19.95723529        4       0.00000000      -0.00304055       0.00216457       0.01761473
Pt       5.61442795       4.86223729      19.95723542        4       0.00000000       0.00222687       0.00129284       0.01964927
Pt       8.42164148       4.86223724      19.95723551        4       0.00000000      -0.00002832       0.00042480      -0.03664738
Pt       1.40360717       0.81037261      22.29206804        3       0.00000000      -0.00017773      -0.01104170      -0.00323256
Pt       4.21082121       0.81037256      22.29206808        3       0.00000000       0.00437273      -0.01877655      -0.06599616
Pt       7.01803485       0.81037259      22.29206811        3       0.00000000       0.00470272      -0.00519274      -0.00189544
Pt       2.80721434       3.24149110      22.29206780        3       0.00000000      -0.01198002      -0.00551407      -0.06630170
Pt       5.61442775       3.24149130      22.29206801        3       0.00000000       0.00849066       0.00172960      -0.06576053
Pt       8.42164144       3.24149143      22.29206808        3       0.00000000      -0.00107820       0.07189002      -0.15531678
Pt       4.21082099       5.67261006      22.29206776        3       0.00000000      -0.00273935      -0.00620435      -0.00885833
Pt       7.01803485       5.67260985      22.29206778        3       0.00000000       0.06490095      -0.04269364      -0.14863822
Pt       9.82524820       5.67261061      22.29206807        3       0.00000000      -0.06328660      -0.04635855      -0.14808902
Pt      -0.00000053       1.62074559      24.58417356        2       0.00000000      -0.00512922      -0.22371410       0.28677580
Pt       2.80721447       1.62074548      24.58417379        2       0.00000000      -0.01745968       0.02501330      -0.01659664
Pt       5.61442782       1.62074544      24.58417375        2       0.00000000       0.01084063       0.01411052      -0.00803975
Pt       1.40360648       4.05186445      24.58417388        2       0.00000000      -0.01538025       0.02941699      -0.04085365
Pt       4.21082098       4.05186402      24.58417384        2       0.00000000       0.00234700       0.03432990      -0.01362957
Pt       7.01803473       4.05186413      24.58417382        2       0.00000000       0.00352651       0.03451669      -0.03998405
Pt       2.80721282       6.48298339      24.58417358        2       0.00000000       0.20033762       0.14658833       0.26355535
Pt       5.61442787       6.48298335      24.58417389        2       0.00000000      -0.20352772       0.14275822       0.25003225
Pt       8.42164231       6.48298348      24.58417365        2       0.00000000       0.01038713       0.01577640      -0.04037617
Pt       0.00244375       0.02722628      27.14409783        1       0.00000000      -0.02046058       0.00471106      -0.00084341
Pt       2.80675634       0.02991593      26.89792483        1       0.00000000       0.00402905      -0.02706795      -0.00210285
Pt       5.61469767       0.03230586      26.90555516        1       0.00000000       0.00375878      -0.03520688      -0.01822107
Pt       1.39835149       2.46647955      26.90212663        1       0.00000000      -0.01196986      -0.02990536      -0.01554648
Pt       4.20810472       2.45883934      26.90666602        1       0.00000000       0.00311309      -0.00192058       0.00239915
Pt       7.01679799       2.46632551      26.90154975        1       0.00000000       0.01850641      -0.02516855      -0.01748869
Pt       2.80367079       4.89178401      26.89997380        1       0.00000000      -0.02004904       0.00315965      -0.01579750
Pt       5.61085259       4.89298591      26.90345525        1       0.00000000       0.01701496      -0.00549143      -0.01882664
Pt       8.41569290       4.89889002      26.91301328        1       0.00000000       0.01829565      -0.03187582      -0.00115549
C        0.01885135       0.01436924      29.22757845        0       1.00000000      -0.01416532       0.00023949       0.00160564
H       -0.49686205      -0.89445279      29.57101849        0       0.00000000       0.01710314      -0.01639012      -0.00758261
H       -0.50914153       0.91164516      29.58263335        0       0.00000000       0.01948295       0.01944087      -0.01244110
H        1.06911703       0.01828040      29.55594936        0       0.00000000      -0.02685928       0.00451188       0.01734183
