40
Lattice="8.421641763931781 0.0 0.0 4.2108208819658905 7.293355709136913 0.0 0.0 0.0 46.87624170604845" Properties=species:S:1:pos:R:3:tags:I:1:initial_magmoms:R:1:forces:R:3 charge=0 spin=0 energy=-206.15261389560425 free_energy=-206.15261389560425 stress="0.010550731793045998 1.4765915693715215e-05 3.762939013540745e-05 1.4765915693715215e-05 0.009660557843744755 0.00012732233153656125 3.762939013540745e-05 0.00012732233153656125 -0.0002939275582320988" pbc="T T T"
Pt      -0.00000001       0.00000004      19.95723550        4       0.00000000       0.00040161      -0.00103074       0.01651830
Pt       2.80721400      -0.00000009      19.95723557        4       0.00000000       0.00023973      -0.00261555       0.01566847
Pt       5.61442776      -0.00000012      19.95723555        4       0.00000000       0.00053438      -0.00916536       0.02574677
Pt       1.40360718       2.43111835      19.95723542        4       0.00000000      -0.00096786       0.00112951       0.02273647
Pt       4.21082079       2.43111843      19.95723552        4       0.00000000      -0.00020889      -0.00000869       0.02358643
Pt       7.01803481       2.43111844      19.95723550        4       0.00000000       0.00107081       0.00133991       0.01984356
Pt       2.80721421       4.86223734      19.95723529        4       0.00000000       0.01391532       0.00151078      -0.00008467
Pt       5.61442795       4.86223729      19.95723542        4       0.00000000      -0.00084372       0.00322602       0.01316784
Pt       8.42164148       4.86223724      19.95723551        4       0.00000000      -0.01547216       0.00313220      -0.00330438
Pt       1.40360717       0.81037261      22.29206804        3       0.00000000       0.00233641       0.01566836      -0.03132108
Pt       4.21082121       0.81037256      22.29206808        3       0.00000000      -0.00074475      -0.00938975      -0.03775780
Pt       7.01803485       0.81037259      22.29206811        3       0.00000000       0.00422627      -0.00171429      -0.03172943
Pt       2.80721434       3.24149110      22.29206780        3       0.00000000      -0.00516509       0.03949038      -0.09146059
Pt       5.61442775       3.24149130      22.29206801        3       0.00000000      -0.00041483       0.00343251      -0.07177389
Pt       8.42164144       3.24149143      22.29206808        3       0.00000000       0.00215936       0.04436472      -0.09634022
Pt       4.21082099       5.67261006      22.29206776        3       0.00000000      -0.02131097      -0.01250190      -0.06338100
Pt       7.01803485       5.67260985      22.29206778        3       0.00000000       0.02010449      -0.00905502      -0.06961729
Pt       9.82524820       5.67261061      22.29206807        3       0.00000000      -0.00381736      -0.04312209      -0.10586610
Pt      -0.00000053       1.62074559      24.58417356        2       0.00000000      -0.04146467      -0.14613852       0.08342572
Pt       2.80721447       1.62074548      24.58417379        2       0.00000000       0.04028570      -0.13087004       0.05958104
Pt       5.61442782       1.62074544      24.58417375        2       0.00000000      -0.00331732       0.00034383      -0.04683058
Pt       1.40360648       4.05186445      24.58417388        2       0.00000000      -0.00107038       0.08973851      -0.20267510
Pt       4.21082098       4.05186402      24.58417384        2       0.00000000      -0.06025764      -0.01883348      -0.09270999
Pt       7.01803473       4.05186413      24.58417382        2       0.00000000       0.06611594      -0.01342629      -0.09336095
Pt       2.80721282       6.48298339      24.58417358        2       0.00000000       0.20067987       0.12549223       0.31919399
Pt       5.61442787       6.48298335      24.58417389        2       0.00000000       0.00040488       0.07403354       0.09507769
Pt       8.42164231       6.48298348      24.58417365        2       0.00000000      -0.19088298       0.13240506       0.30200300
Pt       0.02551334      -0.02363075      27.01330617        1       0.00000000       0.02744677      -0.01506750       0.00554847
Pt       2.79108336      -0.02275426      27.00452641        1       0.00000000      -0.00168489      -0.01629922      -0.01588852
Pt       5.61711558       0.00054048      26.90339252        1       0.00000000       0.00570454      -0.02513059       0.02558593
Pt       1.40375310       2.48318932      26.86522855        1       0.00000000       0.00020956      -0.01849299       0.01490702
Pt       4.21528616       2.41789204      26.91010724        1       0.00000000      -0.03676661       0.00478352       0.00267699
Pt       7.01529353       2.41779742      26.91018919        1       0.00000000       0.04169571       0.00190375       0.00194694
Pt       2.80205233       4.86759395      26.91675737        1       0.00000000       0.03262644      -0.02927076       0.00094381
Pt       5.61588445       4.80397215      26.87906215        1       0.00000000       0.00444763      -0.01185841       0.00482490
Pt       8.43032764       4.86810102      26.91668319        1       0.00000000      -0.03072395      -0.03066314       0.00127667
C        1.39529530      -0.04884694      28.89924604        0       1.00000000      -0.02391763       0.00518389       0.00346331
H        2.28111105       0.52796786      29.23716193        0       0.00000000      -0.01741701      -0.00894638      -0.01385253
H        1.40019846      -1.06238615      29.31570459        0       0.00000000      -0.00971847       0.00146927      -0.02302566
H        0.52000722       0.53155401      29.25372743        0       0.00000000       0.00156182       0.00495259       0.03325618
