40
Lattice="8.421641763931781 0.0 0.0 4.2108208819658905 7.293355709136913 0.0 0.0 0.0 46.87624170604845" Properties=species:S:1:pos:R:3:tags:I:1:initial_magmoms:R:1:forces:R:3 charge=0 spin=0 energy=-206.89431883640015 free_energy=-206.89431883640015 stress="0.010363928973674774 -9.24039886740502e-06 -7.692398867220618e-06 -9.24039886740502e-06 0.010265367105603218 1.4184971405484248e-05 -7.692398867220618e-06 1.4184971405484248e-05 -0.0004108930588699877" pbc="T T T"
Pt      -0.00000001       0.00000004      19.95723550        4       0.00000000       0.00009799      -0.00161967       0.01313718
Pt       2.80721400      -0.00000009      19.95723557        4       0.00000000      -0.00133572      -0.00667511       0.01696221
Pt       5.61442776      -0.00000012      19.95723555        4       0.00000000       0.00217880      -0.00477962       0.01926040
Pt       1.40360718       2.43111835      19.95723542        4       0.00000000      -0.00380566      -0.00139721       0.01933845
Pt       4.21082079       2.43111843      19.95723552        4       0.00000000       0.00023308      -0.00147329       0.02518464
Pt       7.01803481       2.43111844      19.95723550        4       0.00000000       0.00554877      -0.00071281       0.01723348
Pt       2.80721421       4.86223734      19.95723529        4       0.00000000      -0.00332976       0.00255222       0.01755773
Pt       5.61442795       4.86223729      19.95723542        4       0.00000000       0.00225187       0.00160726       0.01940663
Pt       8.42164148       4.86223724      19.95723551        4       0.00000000      -0.00009093       0.00025011      -0.03693949
Pt       1.40360717       0.81037261      22.29206804        3       0.00000000      -0.00067136      -0.01029929      -0.00491241
Pt       4.21082121       0.81037256      22.29206808        3       0.00000000       0.00380292      -0.01633990      -0.06728359
Pt       7.01803485       0.81037259      22.29206811        3       0.00000000       0.00473329      -0.00349732      -0.00192525
Pt       2.80721434       3.24149110      22.29206780        3       0.00000000      -0.01207255      -0.00421331      -0.06545530
Pt       5.61442775       3.24149130      22.29206801        3       0.00000000       0.00830423       0.00320996      -0.06690357
Pt       8.42164144       3.24149143      22.29206808        3       0.00000000      -0.00160160       0.07220987      -0.15141548
Pt       4.21082099       5.67261006      22.29206776        3       0.00000000      -0.00249076      -0.00441732      -0.00640008
Pt       7.01803485       5.67260985      22.29206778        3       0.00000000       0.06453795      -0.04070422      -0.14833610
Pt       9.82524820       5.67261061      22.29206807        3       0.00000000      -0.06454522      -0.04417057      -0.14667892
Pt      -0.00000053       1.62074559      24.58417356        2       0.00000000      -0.00767112      -0.22906595       0.26163435
Pt       2.80721447       1.62074548      24.58417379        2       0.00000000      -0.00707474       0.02204833      -0.02658401
Pt       5.61442782       1.62074544      24.58417375        2       0.00000000       0.00742072       0.01292878      -0.01539267
Pt       1.40360648       4.05186445      24.58417388        2       0.00000000      -0.01587372       0.02482420      -0.06182255
Pt       4.21082098       4.05186402      24.58417384        2       0.00000000      -0.00226664       0.03093788      -0.02652976
Pt       7.01803473       4.05186413      24.58417382        2       0.00000000       0.01263719       0.02737242      -0.05839986
Pt       2.80721282       6.48298339      24.58417358        2       0.00000000       0.20056111       0.13593376       0.24161515
Pt       5.61442787       6.48298335      24.58417389        2       0.00000000      -0.20579727       0.14228150       0.23478583
Pt       8.42164231       6.48298348      24.58417365        2       0.00000000       0.01142198      -0.00053557      -0.05728114
Pt      -0.00537429       0.01761555      27.13490311        1       0.00000000       0.00837262      -0.00072086       0.00684259
Pt       2.81235236       0.02174734      26.89164629        1       0.00000000      -0.01660496      -0.01616374       0.01668248
Pt       5.61282757       0.02346443      26.89851120        1       0.00000000       0.00212683      -0.01690916       0.00466360
Pt       1.39917149       2.45437646      26.89445545        1       0.00000000      -0.00233636      -0.02396714       0.01220128
Pt       4.21132856       2.46258143      26.90767455        1       0.00000000      -0.00618858      -0.04048927      -0.00141929
Pt       7.01875519       2.45906381      26.89987651        1       0.00000000       0.00646825      -0.02303733      -0.01140929
Pt       2.79817622       4.88506214      26.89813462        1       0.00000000       0.00979579      -0.00141014      -0.00507344
Pt       5.61725099       4.88732149      26.89416045        1       0.00000000      -0.00413749       0.00036572       0.01538950
Pt       8.42154691       4.88388862      26.91468040        1       0.00000000      -0.00443712      -0.00094565      -0.00097701
C        0.00037991       0.01197116      29.21787018        0       1.00000000       0.04225180       0.01176920      -0.01222993
H       -0.52983509      -0.88243394      29.57315498        0       0.00000000      -0.01751518      -0.03965670      -0.01702919
H       -0.50743810       0.92437354      29.55953251        0       0.00000000      -0.00746173       0.03771378       0.02135677
H        1.04986510      -0.00079442      29.54674221        0       0.00000000      -0.00543656       0.00719612       0.02714617
