40
Lattice="8.421641763931781 0.0 0.0 4.2108208819658905 7.293355709136913 0.0 0.0 0.0 46.87624170604845" Properties=species:S:1:pos:R:3:tags:I:1:initial_magmoms:R:1:forces:R:3 charge=0 spin=0 energy=-206.89055754489624 free_energy=-206.89055754489624 stress="0.010426228865981102 2.68326675723074e-06 1.3490167475538328e-05 2.68326675723074e-06 0.01029884722083807 7.457011815859005e-05 1.3490167475538328e-05 7.457011815859005e-05 -0.0003536473959684372" pbc="T T T"
Pt      -0.00000001       0.00000004      19.95723550        4       0.00000000      -0.00031888      -0.00265167       0.01299269
Pt       2.80721400      -0.00000009      19.95723557        4       0.00000000      -0.00183052      -0.00800075       0.01650842
Pt       5.61442776      -0.00000012      19.95723555        4       0.00000000       0.00175291      -0.00590674       0.01871138
Pt       1.40360718       2.43111835      19.95723542        4       0.00000000      -0.00403355      -0.00308699       0.01919416
Pt       4.21082079       2.43111843      19.95723552        4       0.00000000      -0.00026472      -0.00289937       0.02526488
Pt       7.01803481       2.43111844      19.95723550        4       0.00000000       0.00531936      -0.00262316       0.01732650
Pt       2.80721421       4.86223734      19.95723529        4       0.00000000      -0.00336767       0.00145443       0.01755856
Pt       5.61442795       4.86223729      19.95723542        4       0.00000000       0.00150228       0.00098053       0.01936322
Pt       8.42164148       4.86223724      19.95723551        4       0.00000000       0.00013568       0.00119797      -0.03698575
Pt       1.40360717       0.81037261      22.29206804        3       0.00000000      -0.00268492      -0.01452391      -0.00024791
Pt       4.21082121       0.81037256      22.29206808        3       0.00000000       0.00221810      -0.02155120      -0.06610856
Pt       7.01803485       0.81037259      22.29206811        3       0.00000000       0.00197926      -0.00752943      -0.00012450
Pt       2.80721434       3.24149110      22.29206780        3       0.00000000      -0.01452776      -0.00900428      -0.06548990
Pt       5.61442775       3.24149130      22.29206801        3       0.00000000       0.00682468      -0.00104746      -0.06778595
Pt       8.42164144       3.24149143      22.29206808        3       0.00000000      -0.00334787       0.07226229      -0.15783253
Pt       4.21082099       5.67261006      22.29206776        3       0.00000000      -0.00469406      -0.01036578      -0.00829457
Pt       7.01803485       5.67260985      22.29206778        3       0.00000000       0.06251159      -0.04550397      -0.14880165
Pt       9.82524820       5.67261061      22.29206807        3       0.00000000      -0.06422483      -0.04829737      -0.14720815
Pt      -0.00000053       1.62074559      24.58417356        2       0.00000000      -0.00001343      -0.22335091       0.27466950
Pt       2.80721447       1.62074548      24.58417379        2       0.00000000      -0.00251758       0.03525674      -0.01526628
Pt       5.61442782       1.62074544      24.58417375        2       0.00000000       0.01559201       0.02785790      -0.00660860
Pt       1.40360648       4.05186445      24.58417388        2       0.00000000      -0.00385267       0.03909324      -0.05522839
Pt       4.21082098       4.05186402      24.58417384        2       0.00000000       0.00309392       0.04678468      -0.01301376
Pt       7.01803473       4.05186413      24.58417382        2       0.00000000       0.01110916       0.04169278      -0.05577654
Pt       2.80721282       6.48298339      24.58417358        2       0.00000000       0.21413870       0.15510826       0.24142538
Pt       5.61442787       6.48298335      24.58417389        2       0.00000000      -0.20243239       0.16336794       0.23858446
Pt       8.42164231       6.48298348      24.58417365        2       0.00000000       0.00998621       0.03194000      -0.05346211
Pt       0.00653566       0.04914834      27.14647859        1       0.00000000       0.00753720      -0.03544207      -0.00935341
Pt       2.81249389       0.04082462      26.89805663        1       0.00000000       0.02381749      -0.01555318       0.00166649
Pt       5.62610731       0.03713076      26.89973346        1       0.00000000      -0.02717926       0.00539304       0.00502390
Pt       1.40455876       2.47454047      26.89650952        1       0.00000000       0.02001850      -0.01799798       0.01290281
Pt       4.22155752       2.47561749      26.90733437        1       0.00000000      -0.01651455      -0.02505455      -0.00816465
Pt       7.03145181       2.47829627      26.90060690        1       0.00000000      -0.02364882      -0.02549278      -0.01065112
Pt       2.80791669       4.90753130      26.90199696        1       0.00000000       0.01276330      -0.03143867      -0.02357910
Pt       5.62335097       4.90927921      26.89674496        1       0.00000000      -0.01271331      -0.02372534       0.00387431
Pt       8.42799416       4.91087939      26.90980368        1       0.00000000      -0.00177657      -0.03721225       0.01738015
C        0.01448012       0.01936276      29.22887772        0       1.00000000      -0.03063178      -0.00757571      -0.00455283
H        1.05812500       0.01668934      29.57191371        0       0.00000000       0.04891571       0.00096824       0.00005367
H       -0.50050843      -0.89922274      29.54525777        0       0.00000000      -0.01318237       0.00673037       0.04154231
H       -0.51166713       0.91272665      29.59670206        0       0.00000000      -0.01545875      -0.00425272      -0.02950641
