40
Lattice="8.421641763931781 0.0 0.0 4.2108208819658905 7.293355709136913 0.0 0.0 0.0 46.87624170604845" Properties=species:S:1:pos:R:3:tags:I:1:initial_magmoms:R:1:forces:R:3 charge=0 spin=0 energy=-206.15309836215698 free_energy=-206.15309836215698 stress="0.010531618259847164 1.0093836863234174e-05 -3.604225895514901e-08 1.0093836863234174e-05 0.009699750691652298 0.00012293050531297922 -3.604225895514901e-08 0.00012293050531297922 -0.0002528552431613207" pbc="T T T"
Pt      -0.00000001       0.00000004      19.95723550        4       0.00000000       0.00093725      -0.00064244       0.01642968
Pt       2.80721400      -0.00000009      19.95723557        4       0.00000000      -0.00002989      -0.00214324       0.01559631
Pt       5.61442776      -0.00000012      19.95723555        4       0.00000000       0.00046107      -0.00835212       0.02645421
Pt       1.40360718       2.43111835      19.95723542        4       0.00000000      -0.00074024       0.00151319       0.02274023
Pt       4.21082079       2.43111843      19.95723552        4       0.00000000      -0.00005892       0.00093340       0.02325223
Pt       7.01803481       2.43111844      19.95723550        4       0.00000000       0.00086057       0.00229691       0.02002997
Pt       2.80721421       4.86223734      19.95723529        4       0.00000000       0.01495204       0.00178367      -0.00115456
Pt       5.61442795       4.86223729      19.95723542        4       0.00000000      -0.00088476       0.00410471       0.01336614
Pt       8.42164148       4.86223724      19.95723551        4       0.00000000      -0.01495330       0.00359234      -0.00277118
Pt       1.40360717       0.81037261      22.29206804        3       0.00000000       0.00296997       0.01782457      -0.02975046
Pt       4.21082121       0.81037256      22.29206808        3       0.00000000       0.00006043      -0.00705457      -0.03631549
Pt       7.01803485       0.81037259      22.29206811        3       0.00000000       0.00446975       0.00034569      -0.03377481
Pt       2.80721434       3.24149110      22.29206780        3       0.00000000      -0.00436725       0.04323078      -0.09398409
Pt       5.61442775       3.24149130      22.29206801        3       0.00000000      -0.00041298       0.00595192      -0.07056396
Pt       8.42164144       3.24149143      22.29206808        3       0.00000000       0.00318894       0.04561622      -0.09487820
Pt       4.21082099       5.67261006      22.29206776        3       0.00000000      -0.02135883      -0.01080538      -0.06553394
Pt       7.01803485       5.67260985      22.29206778        3       0.00000000       0.02084203      -0.00657098      -0.06686363
Pt       9.82524820       5.67261061      22.29206807        3       0.00000000       0.00127703      -0.04046414      -0.10852773
Pt      -0.00000053       1.62074559      24.58417356        2       0.00000000      -0.03937388      -0.14644367       0.07407802
Pt       2.80721447       1.62074548      24.58417379        2       0.00000000       0.03947112      -0.14256033       0.06552692
Pt       5.61442782       1.62074544      24.58417375        2       0.00000000      -0.00597190      -0.02038705      -0.01312863
Pt       1.40360648       4.05186445      24.58417388        2       0.00000000      -0.00269999       0.07248956      -0.19159701
Pt       4.21082098       4.05186402      24.58417384        2       0.00000000      -0.05338929      -0.02848028      -0.10508952
Pt       7.01803473       4.05186413      24.58417382        2       0.00000000       0.05675793      -0.01976119      -0.10649472
Pt       2.80721282       6.48298339      24.58417358        2       0.00000000       0.18488380       0.12331592       0.33431393
Pt       5.61442787       6.48298335      24.58417389        2       0.00000000       0.00569672       0.06895368       0.09024312
Pt       8.42164231       6.48298348      24.58417365        2       0.00000000      -0.19178224       0.13710225       0.33677915
Pt       0.02275834      -0.03218136      27.00844905        1       0.00000000      -0.04173335      -0.00853205      -0.00720645
Pt       2.78128746      -0.03281521      27.01142611        1       0.00000000       0.03764112      -0.00547563      -0.00931770
Pt       5.61400062      -0.01192510      26.91333486        1       0.00000000      -0.00060898      -0.00050946      -0.03819885
Pt       1.40283402       2.47131479      26.87009528        1       0.00000000      -0.00123394       0.00738520      -0.01362541
Pt       4.21004029       2.41175711      26.90948696        1       0.00000000      -0.00196460      -0.02836339       0.00470781
Pt       7.01716264       2.41313090      26.90902926        1       0.00000000       0.00123159      -0.03274095       0.00536860
Pt       2.80454650       4.85353993      26.91438138        1       0.00000000      -0.00334989       0.00841906       0.01323612
Pt       5.61418420       4.79899888      26.87992099        1       0.00000000      -0.00049131      -0.03533531       0.00792003
Pt       8.42474355       4.85497539      26.91398211        1       0.00000000       0.00063615       0.00829864       0.01333781
C        1.40430837      -0.04901725      28.90206409        0       1.00000000       0.00370668      -0.03281844      -0.01454519
H        1.40304261      -1.06126378      29.32067170        0       0.00000000       0.00080173      -0.01215978      -0.01943398
H        0.52518728       0.53038428      29.24610830        0       0.00000000      -0.02441811       0.01875736       0.01506737
H        2.28362049       0.52871652      29.24790968        0       0.00000000       0.02897777       0.01768500       0.02430761
