40
Lattice="8.421641763931781 0.0 0.0 4.2108208819658905 7.293355709136913 0.0 0.0 0.0 46.87624170604845" Properties=species:S:1:pos:R:3:tags:I:1:initial_magmoms:R:1:forces:R:3 charge=0 spin=0 energy=-206.89427878207886 free_energy=-206.89427878207886 stress="0.010373545810580254 2.1339516024454497e-05 1.719204919936601e-05 2.1339516024454497e-05 0.01029628049582243 3.753745477297343e-05 1.719204919936601e-05 3.753745477297343e-05 -0.0003916562127415091" pbc="T T T"
Pt      -0.00000001       0.00000004      19.95723550        4       0.00000000      -0.00065832      -0.00099134       0.01321031
Pt       2.80721400      -0.00000009      19.95723557        4       0.00000000      -0.00328316      -0.00548381       0.01709278
Pt       5.61442776      -0.00000012      19.95723555        4       0.00000000       0.00113302      -0.00433217       0.01924469
Pt       1.40360718       2.43111835      19.95723542        4       0.00000000      -0.00457637      -0.00063641       0.01900111
Pt       4.21082079       2.43111843      19.95723552        4       0.00000000      -0.00080009      -0.00047085       0.02529285
Pt       7.01803481       2.43111844      19.95723550        4       0.00000000       0.00442359      -0.00006681       0.01744028
Pt       2.80721421       4.86223734      19.95723529        4       0.00000000      -0.00418128       0.00315503       0.01725913
Pt       5.61442795       4.86223729      19.95723542        4       0.00000000       0.00143698       0.00247450       0.01917429
Pt       8.42164148       4.86223724      19.95723551        4       0.00000000       0.00000786      -0.00005317      -0.03717265
Pt       1.40360717       0.81037261      22.29206804        3       0.00000000      -0.00425766      -0.00671929      -0.00172955
Pt       4.21082121       0.81037256      22.29206808        3       0.00000000       0.00068018      -0.01434222      -0.06839831
Pt       7.01803485       0.81037259      22.29206811        3       0.00000000      -0.00024305      -0.00095745      -0.00623657
Pt       2.80721434       3.24149110      22.29206780        3       0.00000000      -0.01540694      -0.00107546      -0.06379865
Pt       5.61442775       3.24149130      22.29206801        3       0.00000000       0.00613406       0.00670985      -0.06367149
Pt       8.42164144       3.24149143      22.29206808        3       0.00000000      -0.00441371       0.07498564      -0.15239219
Pt       4.21082099       5.67261006      22.29206776        3       0.00000000      -0.00613740      -0.00013210      -0.00357471
Pt       7.01803485       5.67260985      22.29206778        3       0.00000000       0.06391537      -0.03800609      -0.15073256
Pt       9.82524820       5.67261061      22.29206807        3       0.00000000      -0.06673793      -0.04053434      -0.14877751
Pt      -0.00000053       1.62074559      24.58417356        2       0.00000000       0.01064006      -0.23639391       0.25268844
Pt       2.80721447       1.62074548      24.58417379        2       0.00000000       0.00197101       0.00865931      -0.02348158
Pt       5.61442782       1.62074544      24.58417375        2       0.00000000       0.02089965       0.01510121      -0.01958606
Pt       1.40360648       4.05186445      24.58417388        2       0.00000000       0.00282730       0.01171871      -0.06550100
Pt       4.21082098       4.05186402      24.58417384        2       0.00000000       0.00830899       0.02093124      -0.02719870
Pt       7.01803473       4.05186413      24.58417382        2       0.00000000       0.01044670       0.01049100      -0.05962971
Pt       2.80721282       6.48298339      24.58417358        2       0.00000000       0.22643678       0.12357192       0.24576440
Pt       5.61442787       6.48298335      24.58417389        2       0.00000000      -0.20534104       0.13168058       0.25685927
Pt       8.42164231       6.48298348      24.58417365        2       0.00000000       0.00972347      -0.00714248      -0.07398583
Pt       0.01181097       0.01778190      27.14328379        1       0.00000000      -0.00060127      -0.01724611       0.00245172
Pt       2.82105258       0.00754994      26.89353540        1       0.00000000      -0.01258618      -0.01001205       0.00754407
Pt       5.62263785       0.00944996      26.88852477        1       0.00000000       0.01920824      -0.00895096       0.03985680
Pt       1.41877882       2.44626177      26.89757725        1       0.00000000      -0.01437786      -0.02373483       0.01146577
Pt       4.22566876       2.44802298      26.90741818        1       0.00000000      -0.00519450      -0.02856552      -0.00137644
Pt       7.04296106       2.44230488      26.90145209        1       0.00000000      -0.04402950      -0.00005490      -0.01660603
Pt       2.81499484       4.87383406      26.89994553        1       0.00000000      -0.00088134       0.01353010      -0.00877446
Pt       5.62475443       4.87040978      26.89653460        1       0.00000000       0.00579116       0.02563287       0.00550104
Pt       8.43123065       4.86813340      26.90526718        1       0.00000000       0.00162810       0.02155011       0.02914409
C        0.02382023       0.01945894      29.22702981        0       1.00000000       0.03684517      -0.01796489      -0.00043800
H       -0.49082024      -0.89271284      29.56165595        0       0.00000000       0.01047073      -0.01790615       0.02628665
H       -0.50304996       0.91484349      29.58798692        0       0.00000000      -0.00017910       0.01890770      -0.03574859
H        1.07412665       0.02437646      29.55833186        0       0.00000000      -0.04904200      -0.00732645       0.00353281
