40
Lattice="8.421641763931781 0.0 0.0 4.2108208819658905 7.293355709136913 0.0 0.0 0.0 46.87624170604845" Properties=species:S:1:pos:R:3:tags:I:1:initial_magmoms:R:1:forces:R:3 charge=0 spin=0 energy=-206.8942749673816 free_energy=-206.8942749673816 stress="0.010372904129326344 2.1306359485606663e-05 1.6936264728428796e-05 2.1306359485606663e-05 0.010296573862433434 3.758798266062513e-05 1.6936264728428796e-05 3.758798266062513e-05 -0.0003927706857211888" pbc="T T T"
Pt      -0.00000001       0.00000004      19.95723550        4       0.00000000      -0.00065546      -0.00098844       0.01320794
Pt       2.80721400      -0.00000009      19.95723557        4       0.00000000      -0.00328167      -0.00548444       0.01709270
Pt       5.61442776      -0.00000012      19.95723555        4       0.00000000       0.00113232      -0.00432958       0.01924503
Pt       1.40360718       2.43111835      19.95723542        4       0.00000000      -0.00457864      -0.00063330       0.01900485
Pt       4.21082079       2.43111843      19.95723552        4       0.00000000      -0.00080339      -0.00047181       0.02529278
Pt       7.01803481       2.43111844      19.95723550        4       0.00000000       0.00441789      -0.00006387       0.01744238
Pt       2.80721421       4.86223734      19.95723529        4       0.00000000      -0.00417909       0.00315739       0.01726257
Pt       5.61442795       4.86223729      19.95723542        4       0.00000000       0.00144277       0.00247708       0.01917259
Pt       8.42164148       4.86223724      19.95723551        4       0.00000000      -0.00000186      -0.00005335      -0.03717341
Pt       1.40360717       0.81037261      22.29206804        3       0.00000000      -0.00425998      -0.00670830      -0.00175034
Pt       4.21082121       0.81037256      22.29206808        3       0.00000000       0.00067809      -0.01433403      -0.06840203
Pt       7.01803485       0.81037259      22.29206811        3       0.00000000      -0.00024042      -0.00095341      -0.00623451
Pt       2.80721434       3.24149110      22.29206780        3       0.00000000      -0.01540526      -0.00106732      -0.06380680
Pt       5.61442775       3.24149130      22.29206801        3       0.00000000       0.00612512       0.00670906      -0.06367788
Pt       8.42164144       3.24149143      22.29206808        3       0.00000000      -0.00441366       0.07498704      -0.15237989
Pt       4.21082099       5.67261006      22.29206776        3       0.00000000      -0.00613332      -0.00011725      -0.00358879
Pt       7.01803485       5.67260985      22.29206778        3       0.00000000       0.06390728      -0.03799375      -0.15069321
Pt       9.82524820       5.67261061      22.29206807        3       0.00000000      -0.06674027      -0.04053535      -0.14879183
Pt      -0.00000053       1.62074559      24.58417356        2       0.00000000       0.01062254      -0.23629233       0.25252438
Pt       2.80721447       1.62074548      24.58417379        2       0.00000000       0.00201267       0.00863109      -0.02347497
Pt       5.61442782       1.62074544      24.58417375        2       0.00000000       0.02092366       0.01513755      -0.01952919
Pt       1.40360648       4.05186445      24.58417388        2       0.00000000       0.00278381       0.01172690      -0.06541032
Pt       4.21082098       4.05186402      24.58417384        2       0.00000000       0.00836507       0.02085771      -0.02714895
Pt       7.01803473       4.05186413      24.58417382        2       0.00000000       0.01051507       0.01051887      -0.05956018
Pt       2.80721282       6.48298339      24.58417358        2       0.00000000       0.22634289       0.12349340       0.24567519
Pt       5.61442787       6.48298335      24.58417389        2       0.00000000      -0.20528620       0.13158150       0.25676048
Pt       8.42164231       6.48298348      24.58417365        2       0.00000000       0.00962341      -0.00722429      -0.07402638
Pt       0.01165730       0.01776910      27.14315084        1       0.00000000      -0.00018349      -0.01722011       0.00183396
Pt       2.82096754       0.00751749      26.89355578        1       0.00000000      -0.01236970      -0.00998947       0.00742126
Pt       5.62254503       0.00940479      26.88849828        1       0.00000000       0.01942873      -0.00883492       0.03997405
Pt       1.41879637       2.44620700      26.89756877        1       0.00000000      -0.01442405      -0.02351796       0.01145007
Pt       4.22568484       2.44795886      26.90744581        1       0.00000000      -0.00523498      -0.02840061      -0.00147784
Pt       7.04301110       2.44232323      26.90145831        1       0.00000000      -0.04430154      -0.00005721      -0.01665227
Pt       2.81505915       4.87379165      26.89994039        1       0.00000000      -0.00115434       0.01347405      -0.00880252
Pt       5.62478203       4.87037507      26.89655526        1       0.00000000       0.00571508       0.02557897       0.00538031
Pt       8.43127548       4.86815967      26.90532530        1       0.00000000       0.00147063       0.02131835       0.02894157
C        0.02385667       0.01943454      29.22681664        0       1.00000000       0.03580205      -0.01804124       0.00043013
H        1.07419244       0.02425853      29.55791419        0       0.00000000      -0.04802996      -0.00728310       0.00417859
H       -0.49074374      -0.89277601      29.56146226        0       0.00000000       0.01046893      -0.01714574       0.02631884
H       -0.50286418       0.91487258      29.58793086        0       0.00000000      -0.00010074       0.01809256      -0.03602882
