40
Lattice="8.421641763931781 0.0 0.0 4.2108208819658905 7.293355709136913 0.0 0.0 0.0 46.87624170604845" Properties=species:S:1:pos:R:3:tags:I:1:initial_magmoms:R:1:forces:R:3 charge=0 spin=0 energy=-206.89660765475952 free_energy=-206.89660765475952 stress="0.010354160331189632 -1.675488965702243e-05 -1.3806839888275135e-05 -1.675488965702243e-05 0.01037582103163004 1.5287099813576788e-05 -1.3806839888275135e-05 1.5287099813576788e-05 -0.00035821369965560734" pbc="T T T"
Pt      -0.00000001       0.00000004      19.95723550        4       0.00000000       0.00246781      -0.00347296       0.01946157
Pt       2.80721400      -0.00000009      19.95723557        4       0.00000000       0.00092507       0.00020708       0.01311805
Pt       5.61442776      -0.00000012      19.95723555        4       0.00000000      -0.00122799      -0.00492173       0.01751745
Pt       1.40360718       2.43111835      19.95723542        4       0.00000000       0.00582246       0.00070772       0.01677601
Pt       4.21082079       2.43111843      19.95723552        4       0.00000000      -0.00346607       0.00026412       0.01926636
Pt       7.01803481       2.43111844      19.95723550        4       0.00000000       0.00081885       0.00009311       0.02520610
Pt       2.80721421       4.86223734      19.95723529        4       0.00000000      -0.00043768      -0.00106705      -0.03682359
Pt       5.61442795       4.86223729      19.95723542        4       0.00000000      -0.00209679       0.00415193       0.01742815
Pt       8.42164148       4.86223724      19.95723551        4       0.00000000       0.00198011       0.00313708       0.01900582
Pt       1.40360717       0.81037261      22.29206804        3       0.00000000       0.00552314       0.00151236      -0.00341919
Pt       4.21082121       0.81037256      22.29206808        3       0.00000000       0.00236753      -0.00256879      -0.00537469
Pt       7.01803485       0.81037259      22.29206811        3       0.00000000       0.00721921      -0.01184574      -0.06640421
Pt       2.80721434       3.24149110      22.29206780        3       0.00000000       0.00032250       0.07435469      -0.14938386
Pt       5.61442775       3.24149130      22.29206801        3       0.00000000      -0.00976030       0.00181354      -0.06682951
Pt       8.42164144       3.24149143      22.29206808        3       0.00000000       0.01009575       0.00882487      -0.06693609
Pt       4.21082099       5.67261006      22.29206776        3       0.00000000      -0.06480067      -0.04089157      -0.15220328
Pt       7.01803485       5.67260985      22.29206778        3       0.00000000      -0.00042810       0.00269633       0.00054179
Pt       9.82524820       5.67261061      22.29206807        3       0.00000000       0.06815114      -0.03654250      -0.15034468
Pt      -0.00000053       1.62074559      24.58417356        2       0.00000000      -0.00408168       0.00112199      -0.02606073
Pt       2.80721447       1.62074548      24.58417379        2       0.00000000      -0.01019875      -0.24101990       0.24556820
Pt       5.61442782       1.62074544      24.58417375        2       0.00000000      -0.01598912      -0.00529235      -0.02875280
Pt       1.40360648       4.05186445      24.58417388        2       0.00000000      -0.00128350       0.01080216      -0.05325484
Pt       4.21082098       4.05186402      24.58417384        2       0.00000000      -0.01612861       0.00775648      -0.04724646
Pt       7.01803473       4.05186413      24.58417382        2       0.00000000      -0.00905495       0.01105891      -0.00735552
Pt       2.80721282       6.48298339      24.58417358        2       0.00000000      -0.00423880      -0.00848458      -0.04720139
Pt       5.61442787       6.48298335      24.58417389        2       0.00000000       0.21314296       0.11456288       0.25447601
Pt       8.42164231       6.48298348      24.58417365        2       0.00000000      -0.21980499       0.11700799       0.25345999
Pt      -0.00033899       0.00164828      26.89446899        1       0.00000000      -0.04551396      -0.01497573       0.00767684
Pt       2.79270049      -0.00303631      27.14236357        1       0.00000000       0.03534147       0.01976984      -0.00542072
Pt       5.60066153      -0.00381406      26.89568940        1       0.00000000       0.01688175      -0.00575810       0.00436869
Pt       1.39696326       2.43506562      26.89645803        1       0.00000000       0.00359357       0.00209399       0.00429607
Pt       4.20031508       2.43266572      26.89707853        1       0.00000000      -0.00508679       0.00289951      -0.00377749
Pt       7.00275334       2.42820634      26.90695706        1       0.00000000       0.02207965       0.01133461      -0.00067994
Pt       2.79538581       4.86483486      26.91100058        1       0.00000000       0.01155413      -0.00278274       0.00350077
Pt       5.59925960       4.86553280      26.90159303        1       0.00000000       0.01317559      -0.00894646      -0.00906026
Pt       8.41420905       4.85902924      26.90090118        1       0.00000000      -0.00373179       0.01216132      -0.00833802
C        2.79937487       0.03281276      29.22392064        0       1.00000000      -0.01291453      -0.00497887       0.04590348
H        1.84883181      -0.39505621      29.57722777        0       0.00000000       0.00782040       0.00974600      -0.01427263
H        2.89914810       1.08035917      29.54846978        0       0.00000000       0.00286439      -0.04364474      -0.00218261
H        3.64936264      -0.57013676      29.57778785        0       0.00000000      -0.00190222       0.01911537      -0.01624860
