40
Lattice="8.421641763931781 0.0 0.0 4.2108208819658905 7.293355709136913 0.0 0.0 0.0 46.87624170604845" Properties=species:S:1:pos:R:3:tags:I:1:initial_magmoms:R:1:forces:R:3 charge=0 spin=0 energy=-206.89660384006226 free_energy=-206.89660384006226 stress="0.01035449467599392 -1.5698540664743632e-05 -1.4580364222638309e-05 -1.5698540664743632e-05 0.010376907885074615 1.5537149010924622e-05 -1.4580364222638309e-05 1.5537149010924622e-05 -0.0003547766827978194" pbc="T T T"
Pt      -0.00000001       0.00000004      19.95723550        4       0.00000000       0.00245493      -0.00346546       0.01946680
Pt       2.80721400      -0.00000009      19.95723557        4       0.00000000       0.00093739       0.00021970       0.01311629
Pt       5.61442776      -0.00000012      19.95723555        4       0.00000000      -0.00122430      -0.00490659       0.01752904
Pt       1.40360718       2.43111835      19.95723542        4       0.00000000       0.00582477       0.00071795       0.01678604
Pt       4.21082079       2.43111843      19.95723552        4       0.00000000      -0.00346999       0.00027165       0.01926208
Pt       7.01803481       2.43111844      19.95723550        4       0.00000000       0.00083476       0.00009827       0.02520383
Pt       2.80721421       4.86223734      19.95723529        4       0.00000000      -0.00041313      -0.00107974      -0.03682354
Pt       5.61442795       4.86223729      19.95723542        4       0.00000000      -0.00209576       0.00416844       0.01742557
Pt       8.42164148       4.86223724      19.95723551        4       0.00000000       0.00197046       0.00315035       0.01900953
Pt       1.40360717       0.81037261      22.29206804        3       0.00000000       0.00552243       0.00155221      -0.00350276
Pt       4.21082121       0.81037256      22.29206808        3       0.00000000       0.00238787      -0.00253144      -0.00536039
Pt       7.01803485       0.81037259      22.29206811        3       0.00000000       0.00723078      -0.01180358      -0.06633679
Pt       2.80721434       3.24149110      22.29206780        3       0.00000000       0.00033767       0.07434720      -0.14935784
Pt       5.61442775       3.24149130      22.29206801        3       0.00000000      -0.00974670       0.00186485      -0.06689904
Pt       8.42164144       3.24149143      22.29206808        3       0.00000000       0.01010413       0.00887285      -0.06691811
Pt       4.21082099       5.67261006      22.29206776        3       0.00000000      -0.06478324      -0.04086189      -0.15217021
Pt       7.01803485       5.67260985      22.29206778        3       0.00000000      -0.00041749       0.00274622       0.00057579
Pt       9.82524820       5.67261061      22.29206807        3       0.00000000       0.06818315      -0.03653738      -0.15042248
Pt      -0.00000053       1.62074559      24.58417356        2       0.00000000      -0.00405349       0.00102502      -0.02539907
Pt       2.80721447       1.62074548      24.58417379        2       0.00000000      -0.01026296      -0.24081378       0.24609254
Pt       5.61442782       1.62074544      24.58417375        2       0.00000000      -0.01607679      -0.00564036      -0.02867902
Pt       1.40360648       4.05186445      24.58417388        2       0.00000000      -0.00146038       0.01033620      -0.05297850
Pt       4.21082098       4.05186402      24.58417384        2       0.00000000      -0.01613239       0.00763179      -0.04690166
Pt       7.01803473       4.05186413      24.58417382        2       0.00000000      -0.00900390       0.01092141      -0.00684412
Pt       2.80721282       6.48298339      24.58417358        2       0.00000000      -0.00409094      -0.00833663      -0.04714213
Pt       5.61442787       6.48298335      24.58417389        2       0.00000000       0.21309327       0.11436325       0.25462061
Pt       8.42164231       6.48298348      24.58417365        2       0.00000000      -0.21993567       0.11694541       0.25377059
Pt      -0.00020103       0.00143565      26.89460550        1       0.00000000      -0.04603031      -0.01445885       0.00701741
Pt       2.79278815      -0.00326789      27.14237854        1       0.00000000       0.03461464       0.02092633      -0.00399548
Pt       5.60067707      -0.00414055      26.89578557        1       0.00000000       0.01667809      -0.00482668       0.00424486
Pt       1.39684128       2.43489299      26.89669060        1       0.00000000       0.00398627       0.00220613       0.00318489
Pt       4.20047508       2.43257650      26.89714831        1       0.00000000      -0.00629650       0.00269874      -0.00401421
Pt       7.00246382       2.42793476      26.90699675        1       0.00000000       0.02342760       0.01179777      -0.00085015
Pt       2.79519441       4.86480004      26.91090012        1       0.00000000       0.01237276      -0.00361934       0.00385962
Pt       5.59922208       4.86540956      26.90173516        1       0.00000000       0.01326101      -0.00912616      -0.00958369
Pt       8.41423656       4.85893174      26.90099322        1       0.00000000      -0.00425350       0.01150282      -0.00858125
C        2.79850567       0.03288723      29.22406947        0       1.00000000      -0.01506128      -0.00497340       0.04386385
H        2.89826364       1.08035331      29.54882700        0       0.00000000       0.00193346      -0.04308977      -0.00279049
H        3.64827021      -0.57001345      29.57818017        0       0.00000000       0.00123881       0.01674362      -0.01524464
H        1.84785053      -0.39518575      29.57690417        0       0.00000000       0.00841471       0.01096291      -0.01423370
