40
Lattice="8.421641763931781 0.0 0.0 4.2108208819658905 7.293355709136913 0.0 0.0 0.0 46.87624170604845" Properties=species:S:1:pos:R:3:tags:I:1:initial_magmoms:R:1:forces:R:3 charge=0 spin=0 energy=-206.89750601596558 free_energy=-206.89750601596558 stress="0.010370736941695213 4.45686328021111e-06 4.819749392481754e-06 4.45686328021111e-06 0.01037142239511013 -3.824228315352229e-06 4.819749392481754e-06 -3.824228315352229e-06 -0.0003310141619294882" pbc="T T T"
Pt      -0.00000001       0.00000004      19.95723550        4       0.00000000      -0.00012207       0.00040184       0.01315387
Pt       2.80721400      -0.00000009      19.95723557        4       0.00000000      -0.00239602      -0.00471106       0.01712090
Pt       5.61442776      -0.00000012      19.95723555        4       0.00000000       0.00151339      -0.00300236       0.01961072
Pt       1.40360718       2.43111835      19.95723542        4       0.00000000      -0.00448698       0.00041120       0.01942314
Pt       4.21082079       2.43111843      19.95723552        4       0.00000000      -0.00053829       0.00013567       0.02545720
Pt       7.01803481       2.43111844      19.95723550        4       0.00000000       0.00499616       0.00124774       0.01730496
Pt       2.80721421       4.86223734      19.95723529        4       0.00000000      -0.00336387       0.00443245       0.01716976
Pt       5.61442795       4.86223729      19.95723542        4       0.00000000       0.00149053       0.00371660       0.01950455
Pt       8.42164148       4.86223724      19.95723551        4       0.00000000       0.00014197      -0.00015111      -0.03688175
Pt       1.40360717       0.81037261      22.29206804        3       0.00000000      -0.00173363      -0.00210531      -0.00286087
Pt       4.21082121       0.81037256      22.29206808        3       0.00000000       0.00309222      -0.01044379      -0.06630570
Pt       7.01803485       0.81037259      22.29206811        3       0.00000000       0.00155230       0.00280371      -0.00563577
Pt       2.80721434       3.24149110      22.29206780        3       0.00000000      -0.01293548       0.00344794      -0.06664111
Pt       5.61442775       3.24149130      22.29206801        3       0.00000000       0.00615892       0.01018309      -0.06604983
Pt       8.42164144       3.24149143      22.29206808        3       0.00000000      -0.00291470       0.07671607      -0.14929387
Pt       4.21082099       5.67261006      22.29206776        3       0.00000000      -0.00411057       0.00359875      -0.00165168
Pt       7.01803485       5.67260985      22.29206778        3       0.00000000       0.06637529      -0.03569413      -0.15134832
Pt       9.82524820       5.67261061      22.29206807        3       0.00000000      -0.06497978      -0.03782256      -0.15235414
Pt      -0.00000053       1.62074559      24.58417356        2       0.00000000       0.00677680      -0.24412458       0.25232467
Pt       2.80721447       1.62074548      24.58417379        2       0.00000000      -0.00746454      -0.00702000      -0.01562470
Pt       5.61442782       1.62074544      24.58417375        2       0.00000000       0.01204572      -0.00792454      -0.01748914
Pt       1.40360648       4.05186445      24.58417388        2       0.00000000      -0.01167707      -0.00702576      -0.03757786
Pt       4.21082098       4.05186402      24.58417384        2       0.00000000       0.00894915       0.00821310      -0.00996470
Pt       7.01803473       4.05186413      24.58417382        2       0.00000000       0.01525329       0.00809575      -0.04557270
Pt       2.80721282       6.48298339      24.58417358        2       0.00000000       0.21560946       0.11329065       0.25145137
Pt       5.61442787       6.48298335      24.58417389        2       0.00000000      -0.20935023       0.11661306       0.25378507
Pt       8.42164231       6.48298348      24.58417365        2       0.00000000       0.00472585      -0.01501479      -0.04243416
Pt       0.00475484      -0.00655647      27.14322909        1       0.00000000      -0.00872132       0.00244193      -0.01284376
Pt       2.80448991      -0.00850437      26.89793835        1       0.00000000       0.03521263      -0.00611747      -0.00161234
Pt       5.62049392      -0.00480018      26.89735757        1       0.00000000      -0.00796290      -0.01131845      -0.00226350
Pt       1.40845104       2.42218386      26.90356941        1       0.00000000      -0.01345496       0.03137311      -0.01737425
Pt       4.21495503       2.42449137      26.90654133        1       0.00000000       0.00387799       0.00881572      -0.00292073
Pt       7.02924053       2.42826980      26.89606375        1       0.00000000      -0.00670985       0.00943859       0.00206876
Pt       2.80918216       4.85761708      26.89704640        1       0.00000000      -0.00799820       0.00207967      -0.00230642
Pt       5.62467468       4.85829898      26.90094707        1       0.00000000      -0.01256965      -0.00351367      -0.01187584
Pt       8.42881257       4.86053200      26.91489413        1       0.00000000      -0.00423185      -0.01120681      -0.00924993
C       -0.00025572      -0.00923810      29.22465031        0       1.00000000      -0.01840707       0.01088069       0.02024598
H       -0.13551805      -1.04605712      29.56419321        0       0.00000000       0.00175013      -0.02288143       0.00597632
H       -0.83426047       0.62221884      29.56623691        0       0.00000000       0.01875481       0.00153789      -0.00385048
H        0.96334983       0.39128294      29.57223485        0       0.00000000      -0.00214749       0.01020233      -0.00261365
