40
Lattice="8.421641763931781 0.0 0.0 4.2108208819658905 7.293355709136913 0.0 0.0 0.0 46.87624170604845" Properties=species:S:1:pos:R:3:tags:I:1:initial_magmoms:R:1:forces:R:3 charge=0 spin=0 energy=-206.8962872201892 free_energy=-206.8962872201892 stress="0.010365908034145832 -1.3346344530873466e-05 -6.280304660322145e-06 -1.3346344530873466e-05 0.010379079729318619 -2.6630919819581322e-05 -6.280304660322145e-06 -2.6630919819581322e-05 -0.00032115919748321176" pbc="T T T"
Pt      -0.00000001       0.00000004      19.95723550        4       0.00000000       0.00037311       0.00040949       0.01341752
Pt       2.80721400      -0.00000009      19.95723557        4       0.00000000      -0.00145371      -0.00507400       0.01707650
Pt       5.61442776      -0.00000012      19.95723555        4       0.00000000       0.00240198      -0.00335566       0.01925966
Pt       1.40360718       2.43111835      19.95723542        4       0.00000000      -0.00397021       0.00038075       0.01950508
Pt       4.21082079       2.43111843      19.95723552        4       0.00000000       0.00048451      -0.00006652       0.02538063
Pt       7.01803481       2.43111844      19.95723550        4       0.00000000       0.00591146       0.00104692       0.01731299
Pt       2.80721421       4.86223734      19.95723529        4       0.00000000      -0.00288669       0.00405311       0.01763793
Pt       5.61442795       4.86223729      19.95723542        4       0.00000000       0.00273439       0.00331620       0.01941979
Pt       8.42164148       4.86223724      19.95723551        4       0.00000000      -0.00006203       0.00094294      -0.03676152
Pt       1.40360717       0.81037261      22.29206804        3       0.00000000       0.00116773      -0.00328722      -0.00538605
Pt       4.21082121       0.81037256      22.29206808        3       0.00000000       0.00595530      -0.01164878      -0.06790350
Pt       7.01803485       0.81037259      22.29206811        3       0.00000000       0.00512925       0.00117510      -0.00238114
Pt       2.80721434       3.24149110      22.29206780        3       0.00000000      -0.01000328       0.00186604      -0.06604730
Pt       5.61442775       3.24149130      22.29206801        3       0.00000000       0.00885964       0.00893863      -0.06576862
Pt       8.42164144       3.24149143      22.29206808        3       0.00000000       0.00001280       0.07665905      -0.14999384
Pt       4.21082099       5.67261006      22.29206776        3       0.00000000      -0.00109663       0.00160946      -0.00463161
Pt       7.01803485       5.67260985      22.29206778        3       0.00000000       0.06706085      -0.03522306      -0.14916301
Pt       9.82524820       5.67261061      22.29206807        3       0.00000000      -0.06305802      -0.03935518      -0.15089926
Pt      -0.00000053       1.62074559      24.58417356        2       0.00000000      -0.00867587      -0.24822553       0.27519709
Pt       2.80721447       1.62074548      24.58417379        2       0.00000000      -0.02122990       0.00024344      -0.01750246
Pt       5.61442782       1.62074544      24.58417375        2       0.00000000       0.01178003      -0.00258317      -0.02001546
Pt       1.40360648       4.05186445      24.58417388        2       0.00000000      -0.02043304      -0.00043892      -0.04793432
Pt       4.21082098       4.05186402      24.58417384        2       0.00000000      -0.00649588       0.01377987      -0.01379204
Pt       7.01803473       4.05186413      24.58417382        2       0.00000000       0.00905337       0.00409571      -0.05494050
Pt       2.80721282       6.48298339      24.58417358        2       0.00000000       0.20482504       0.12172723       0.25693688
Pt       5.61442787       6.48298335      24.58417389        2       0.00000000      -0.21228686       0.12232739       0.24958637
Pt       8.42164231       6.48298348      24.58417365        2       0.00000000      -0.00311906      -0.01606999      -0.05035604
Pt      -0.00676206      -0.00871920      27.14514163        1       0.00000000       0.00358195       0.01658838      -0.00970321
Pt       2.80023943       0.00043428      26.89707486        1       0.00000000      -0.00661489      -0.01810682       0.00225909
Pt       5.60350958       0.00272030      26.89690291        1       0.00000000       0.02804656      -0.02331600       0.00586336
Pt       1.39375689       2.43339711      26.90120935        1       0.00000000      -0.00526151      -0.01367437      -0.00811628
Pt       4.20548976       2.42939036      26.90496838        1       0.00000000      -0.00740412       0.01358461       0.00558351
Pt       7.01569769       2.43410046      26.90124656        1       0.00000000       0.01294840      -0.01723174      -0.00542674
Pt       2.79302571       4.86426943      26.89762754        1       0.00000000       0.01104503      -0.00071214      -0.01169202
Pt       5.61503754       4.85863645      26.89725630        1       0.00000000      -0.01673751       0.01922970      -0.00362016
Pt       8.41278547       4.86326313      26.91399491        1       0.00000000       0.01345026      -0.00267292      -0.00043335
C       -0.00335555      -0.05942593      29.22733246        0       1.00000000      -0.02624013       0.00830709       0.00674513
H       -0.85416360       0.53847871      29.58706675        0       0.00000000       0.00731001       0.00241753      -0.01353052
H        0.94821589       0.36213255      29.58226432        0       0.00000000       0.01113766       0.01046753      -0.00736039
H       -0.10576199      -1.10879447      29.54126474        0       0.00000000       0.00376013       0.00787574       0.01217783
