40
Lattice="8.421641763931781 0.0 0.0 4.2108208819658905 7.293355709136913 0.0 0.0 0.0 46.87624170604845" Properties=species:S:1:pos:R:3:tags:I:1:initial_magmoms:R:1:forces:R:3 charge=0 spin=0 energy=-206.89635207004272 free_energy=-206.89635207004272 stress="0.010366023518145084 -1.3105131074553356e-05 -6.211350410012528e-06 -1.3105131074553356e-05 0.010378033854067326 -2.5905133952619508e-05 -6.211350410012528e-06 -2.5905133952619508e-05 -0.00032168265897780657" pbc="T T T"
Pt      -0.00000001       0.00000004      19.95723550        4       0.00000000       0.00037393       0.00037823       0.01341985
Pt       2.80721400      -0.00000009      19.95723557        4       0.00000000      -0.00145646      -0.00509025       0.01708070
Pt       5.61442776      -0.00000012      19.95723555        4       0.00000000       0.00240393      -0.00338277       0.01926905
Pt       1.40360718       2.43111835      19.95723542        4       0.00000000      -0.00395842       0.00036947       0.01950690
Pt       4.21082079       2.43111843      19.95723552        4       0.00000000       0.00048823      -0.00007569       0.02538155
Pt       7.01803481       2.43111844      19.95723550        4       0.00000000       0.00590447       0.00102255       0.01730176
Pt       2.80721421       4.86223734      19.95723529        4       0.00000000      -0.00290267       0.00405042       0.01762832
Pt       5.61442795       4.86223729      19.95723542        4       0.00000000       0.00272138       0.00330247       0.01942355
Pt       8.42164148       4.86223724      19.95723551        4       0.00000000      -0.00006054       0.00091756      -0.03676561
Pt       1.40360717       0.81037261      22.29206804        3       0.00000000       0.00116217      -0.00333657      -0.00536555
Pt       4.21082121       0.81037256      22.29206808        3       0.00000000       0.00593700      -0.01168134      -0.06790059
Pt       7.01803485       0.81037259      22.29206811        3       0.00000000       0.00512481       0.00113143      -0.00240436
Pt       2.80721434       3.24149110      22.29206780        3       0.00000000      -0.01002505       0.00180868      -0.06603844
Pt       5.61442775       3.24149130      22.29206801        3       0.00000000       0.00887711       0.00887968      -0.06579839
Pt       8.42164144       3.24149143      22.29206808        3       0.00000000      -0.00001747       0.07658204      -0.15007380
Pt       4.21082099       5.67261006      22.29206776        3       0.00000000      -0.00110851       0.00156212      -0.00455873
Pt       7.01803485       5.67260985      22.29206778        3       0.00000000       0.06704578      -0.03529811      -0.14919293
Pt       9.82524820       5.67261061      22.29206807        3       0.00000000      -0.06309876      -0.03941025      -0.15081304
Pt      -0.00000053       1.62074559      24.58417356        2       0.00000000      -0.00851866      -0.24811599       0.27505121
Pt       2.80721447       1.62074548      24.58417379        2       0.00000000      -0.02127614       0.00028913      -0.01736776
Pt       5.61442782       1.62074544      24.58417375        2       0.00000000       0.01157754      -0.00263014      -0.01984590
Pt       1.40360648       4.05186445      24.58417388        2       0.00000000      -0.02024563      -0.00013030      -0.04809416
Pt       4.21082098       4.05186402      24.58417384        2       0.00000000      -0.00650289       0.01402361      -0.01429762
Pt       7.01803473       4.05186413      24.58417382        2       0.00000000       0.00891704       0.00448878      -0.05507183
Pt       2.80721282       6.48298339      24.58417358        2       0.00000000       0.20495582       0.12200279       0.25690353
Pt       5.61442787       6.48298335      24.58417389        2       0.00000000      -0.21234958       0.12247359       0.24965686
Pt       8.42164231       6.48298348      24.58417365        2       0.00000000      -0.00268486      -0.01583319      -0.05051891
Pt      -0.00661161      -0.00843334      27.14521641        1       0.00000000       0.00380618       0.01704576      -0.00982603
Pt       2.80051131       0.00034598      26.89690938        1       0.00000000      -0.00733587      -0.01688293       0.00263757
Pt       5.60378469       0.00287888      26.89701204        1       0.00000000       0.02710912      -0.02279329       0.00540068
Pt       1.39377406       2.43378478      26.90119757        1       0.00000000      -0.00503979      -0.01474215      -0.00821533
Pt       4.20534653       2.42984807      26.90490287        1       0.00000000      -0.00681970       0.01203782       0.00574466
Pt       7.01568100       2.43437689      26.90109518        1       0.00000000       0.01301888      -0.01762500      -0.00506708
Pt       2.79317656       4.86461220      26.89764549        1       0.00000000       0.01053791      -0.00098046      -0.01138645
Pt       5.61483152       4.85877581      26.89730410        1       0.00000000      -0.01570252       0.01967179      -0.00348006
Pt       8.41285567       4.86341391      26.91392465        1       0.00000000       0.01332310      -0.00243476      -0.00015170
C       -0.00319116      -0.05801623      29.22744896        0       1.00000000      -0.02764614       0.00795239       0.00557590
H        0.94911512       0.36199994      29.58214656        0       0.00000000       0.01178048       0.01038689      -0.00694754
H       -0.10770055      -1.10700219      29.54189742        0       0.00000000       0.00442859       0.00716743       0.01225395
H       -0.85294435       0.54162392      29.58674682        0       0.00000000       0.00725590       0.00289851      -0.01305429
