40
Lattice="8.421641763931781 0.0 0.0 4.2108208819658905 7.293355709136913 0.0 0.0 0.0 46.87624170604845" Properties=species:S:1:pos:R:3:tags:I:1:initial_magmoms:R:1:forces:R:3 charge=0 spin=0 energy=-206.15261580295288 free_energy=-206.15261580295288 stress="0.010550717823207378 1.4759801160835195e-05 3.7599311326630414e-05 1.4759801160835195e-05 0.009660586714744568 0.00012731571041513234 3.7599311326630414e-05 0.00012731571041513234 -0.00029397313483059406" pbc="T T T"
Pt      -0.00000001       0.00000004      19.95723550        4       0.00000000       0.00040213      -0.00103042       0.01651859
Pt       2.80721400      -0.00000009      19.95723557        4       0.00000000       0.00023985      -0.00261610       0.01566902
Pt       5.61442776      -0.00000012      19.95723555        4       0.00000000       0.00053417      -0.00916575       0.02574656
Pt       1.40360718       2.43111835      19.95723542        4       0.00000000      -0.00096769       0.00112945       0.02273656
Pt       4.21082079       2.43111843      19.95723552        4       0.00000000      -0.00020879      -0.00000880       0.02358645
Pt       7.01803481       2.43111844      19.95723550        4       0.00000000       0.00107100       0.00133988       0.01984386
Pt       2.80721421       4.86223734      19.95723529        4       0.00000000       0.01391633       0.00151087      -0.00008592
Pt       5.61442795       4.86223729      19.95723542        4       0.00000000      -0.00084385       0.00322661       0.01316773
Pt       8.42164148       4.86223724      19.95723551        4       0.00000000      -0.01547191       0.00313247      -0.00330398
Pt       1.40360717       0.81037261      22.29206804        3       0.00000000       0.00233671       0.01566848      -0.03131601
Pt       4.21082121       0.81037256      22.29206808        3       0.00000000      -0.00074396      -0.00939017      -0.03775563
Pt       7.01803485       0.81037259      22.29206811        3       0.00000000       0.00422659      -0.00171423      -0.03172911
Pt       2.80721434       3.24149110      22.29206780        3       0.00000000      -0.00516541       0.03949347      -0.09146555
Pt       5.61442775       3.24149130      22.29206801        3       0.00000000      -0.00041439       0.00343237      -0.07177538
Pt       8.42164144       3.24149143      22.29206808        3       0.00000000       0.00215989       0.04436620      -0.09634198
Pt       4.21082099       5.67261006      22.29206776        3       0.00000000      -0.02131202      -0.01250327      -0.06338447
Pt       7.01803485       5.67260985      22.29206778        3       0.00000000       0.02010510      -0.00905475      -0.06961509
Pt       9.82524820       5.67261061      22.29206807        3       0.00000000      -0.00381323      -0.04312366      -0.10587341
Pt      -0.00000053       1.62074559      24.58417356        2       0.00000000      -0.04146389      -0.14614761       0.08343151
Pt       2.80721447       1.62074548      24.58417379        2       0.00000000       0.04028738      -0.13088934       0.05959633
Pt       5.61442782       1.62074544      24.58417375        2       0.00000000      -0.00331826       0.00034363      -0.04683128
Pt       1.40360648       4.05186445      24.58417388        2       0.00000000      -0.00107176       0.08974191      -0.20267828
Pt       4.21082098       4.05186402      24.58417384        2       0.00000000      -0.06026042      -0.01883583      -0.09271079
Pt       7.01803473       4.05186413      24.58417382        2       0.00000000       0.06611758      -0.01342642      -0.09335840
Pt       2.80721282       6.48298339      24.58417358        2       0.00000000       0.20068842       0.12549730       0.31920129
Pt       5.61442787       6.48298335      24.58417389        2       0.00000000       0.00041055       0.07404640       0.09510759
Pt       8.42164231       6.48298348      24.58417365        2       0.00000000      -0.19090664       0.13241591       0.30202985
Pt       0.02551214      -0.02363110      27.01331766        1       0.00000000       0.02736430      -0.01506220       0.00542077
Pt       2.79107569      -0.02275414      27.00454628        1       0.00000000      -0.00162603      -0.01630280      -0.01599400
Pt       5.61711344       0.00054002      26.90339109        1       0.00000000       0.00569783      -0.02513044       0.02559554
Pt       1.40375303       2.48318944      26.86522717        1       0.00000000       0.00020433      -0.01847930       0.01491014
Pt       4.21528420       2.41788956      26.91010741        1       0.00000000      -0.03676354       0.00479334       0.00267633
Pt       7.01529367       2.41779507      26.91018867        1       0.00000000       0.04168927       0.00191841       0.00194281
Pt       2.80205175       4.86759497      26.91675689        1       0.00000000       0.03262039      -0.02928124       0.00094321
Pt       5.61588285       4.80397191      26.87906131        1       0.00000000       0.00445098      -0.01186962       0.00483104
Pt       8.43032642       4.86810304      26.91668255        1       0.00000000      -0.03072900      -0.03067017       0.00127196
C        1.39530233      -0.04884587      28.89922507        0       1.00000000      -0.02388508       0.00500484       0.00363421
H        1.40020140      -1.06238530      29.31569327        0       0.00000000      -0.00971223       0.00155481      -0.02306196
H        0.52001362       0.53155211      29.25371131        0       0.00000000       0.00154264       0.00498954       0.03324550
H        2.28111157       0.52796785      29.23715996        0       0.00000000      -0.01738735      -0.00890398      -0.01382543
