40
Lattice="8.421641763931781 0.0 0.0 4.2108208819658905 7.293355709136913 0.0 0.0 0.0 46.87624170604845" Properties=species:S:1:pos:R:3:tags:I:1:initial_magmoms:R:1:forces:R:3 charge=0 spin=0 energy=-206.89400984592163 free_energy=-206.89400984592163 stress="0.010366463102400303 1.2693113831119263e-06 1.609048376849387e-05 1.2693113831119263e-06 0.010263069532811642 2.2566577172256075e-05 1.609048376849387e-05 2.2566577172256075e-05 -0.0004223252472002059" pbc="T T T"
Pt      -0.00000001       0.00000004      19.95723550        4       0.00000000       0.00175017      -0.00542471       0.01914740
Pt       2.80721400      -0.00000009      19.95723557        4       0.00000000       0.00021694      -0.00169410       0.01309854
Pt       5.61442776      -0.00000012      19.95723555        4       0.00000000      -0.00173767      -0.00647849       0.01700135
Pt       1.40360718       2.43111835      19.95723542        4       0.00000000       0.00523913      -0.00091729       0.01742527
Pt       4.21082079       2.43111843      19.95723552        4       0.00000000      -0.00401925      -0.00155558       0.01907283
Pt       7.01803481       2.43111844      19.95723550        4       0.00000000      -0.00011972      -0.00156982       0.02516229
Pt       2.80721421       4.86223734      19.95723529        4       0.00000000       0.00048585       0.00026939      -0.03684311
Pt       5.61442795       4.86223729      19.95723542        4       0.00000000      -0.00324484       0.00216743       0.01752669
Pt       8.42164148       4.86223724      19.95723551        4       0.00000000       0.00248964       0.00183942       0.01936280
Pt       1.40360717       0.81037261      22.29206804        3       0.00000000       0.00276164      -0.00560810      -0.00436809
Pt       4.21082121       0.81037256      22.29206808        3       0.00000000      -0.00248085      -0.00894968      -0.00156910
Pt       7.01803485       0.81037259      22.29206811        3       0.00000000       0.00411165      -0.01660075      -0.06753263
Pt       2.80721434       3.24149110      22.29206780        3       0.00000000      -0.00226879       0.07265626      -0.15183663
Pt       5.61442775       3.24149130      22.29206801        3       0.00000000      -0.01276628      -0.00485785      -0.06720213
Pt       8.42164144       3.24149143      22.29206808        3       0.00000000       0.00703418       0.00246858      -0.06583992
Pt       4.21082099       5.67261006      22.29206776        3       0.00000000      -0.06325615      -0.04423987      -0.14770909
Pt       7.01803485       5.67260985      22.29206778        3       0.00000000      -0.00316346      -0.00534851      -0.00677701
Pt       9.82524820       5.67261061      22.29206807        3       0.00000000       0.06564960      -0.04156835      -0.14682746
Pt      -0.00000053       1.62074559      24.58417356        2       0.00000000       0.00714879       0.02441727      -0.02817904
Pt       2.80721447       1.62074548      24.58417379        2       0.00000000       0.00230315      -0.22675389       0.26190957
Pt       5.61442782       1.62074544      24.58417375        2       0.00000000      -0.00753703       0.01350337      -0.01435369
Pt       1.40360648       4.05186445      24.58417388        2       0.00000000       0.01463650       0.02916661      -0.06035013
Pt       4.21082098       4.05186402      24.58417384        2       0.00000000      -0.01427598       0.02537268      -0.05907166
Pt       7.01803473       4.05186413      24.58417382        2       0.00000000       0.00260626       0.03198073      -0.02826630
Pt       2.80721282       6.48298339      24.58417358        2       0.00000000      -0.00645457       0.00117749      -0.05889287
Pt       5.61442787       6.48298335      24.58417389        2       0.00000000       0.21121240       0.13906427       0.23334192
Pt       8.42164231       6.48298348      24.58417365        2       0.00000000      -0.19640861       0.14457029       0.24016194
Pt      -0.00386769       0.02530359      26.89078959        1       0.00000000       0.01588341      -0.01670509       0.02019744
Pt       2.81455421       0.02235017      27.13465136        1       0.00000000      -0.00830320      -0.00726545       0.00020172
Pt       5.61777157       0.02318766      26.89945217        1       0.00000000      -0.00410986      -0.01206421       0.00270037
Pt       1.40975055       2.45654466      26.89516157        1       0.00000000       0.00333159      -0.01920586       0.00959062
Pt       4.21255659       2.46079708      26.89954097        1       0.00000000      -0.00608610      -0.02408961      -0.01083378
Pt       7.01850018       2.46419487      26.90812144        1       0.00000000       0.00564442      -0.03917534      -0.00110986
Pt       2.80869095       4.88660955      26.91411492        1       0.00000000       0.00240630      -0.00553201      -0.00028590
Pt       5.61174147       4.89046373      26.89444911        1       0.00000000       0.00474342      -0.00161144       0.01496703
Pt       8.42960860       4.88675494      26.89667875        1       0.00000000      -0.00804177      -0.00349815      -0.00115879
C        2.80909503       0.01606004      29.21685637        0       1.00000000      -0.04175930       0.00931818       0.00338142
H        3.31177761       0.92996713      29.56316842        0       0.00000000       0.00647572       0.02946881       0.00947856
H        3.34258457      -0.87740185      29.57039505        0       0.00000000       0.01524046      -0.03096561      -0.01516368
H        1.75919217      -0.00198493      29.54415992        0       0.00000000       0.00466233       0.00423863       0.03044319
