40
Lattice="8.421641763931781 0.0 0.0 4.2108208819658905 7.293355709136913 0.0 0.0 0.0 46.87624170604845" Properties=species:S:1:pos:R:3:tags:I:1:initial_magmoms:R:1:forces:R:3 charge=0 spin=0 energy=-206.89487006015503 free_energy=-206.89487006015503 stress="0.010369922965765 -2.3671421445214946e-07 5.150567176315235e-06 -2.3671421445214946e-07 0.010313408449292183 -3.1441516057384433e-06 5.150567176315235e-06 -3.1441516057384433e-06 -0.0003376776003278792" pbc="T T T"
Pt      -0.00000001       0.00000004      19.95723550        4       0.00000000      -0.00013152      -0.00069652       0.01318427
Pt       2.80721400      -0.00000009      19.95723557        4       0.00000000      -0.00136752      -0.00603389       0.01718719
Pt       5.61442776      -0.00000012      19.95723555        4       0.00000000       0.00198359      -0.00451391       0.01937439
Pt       1.40360718       2.43111835      19.95723542        4       0.00000000      -0.00389645      -0.00080355       0.01943871
Pt       4.21082079       2.43111843      19.95723552        4       0.00000000      -0.00015471      -0.00096541       0.02532457
Pt       7.01803481       2.43111844      19.95723550        4       0.00000000       0.00542001      -0.00030164       0.01712027
Pt       2.80721421       4.86223734      19.95723529        4       0.00000000      -0.00293831       0.00308386       0.01747864
Pt       5.61442795       4.86223729      19.95723542        4       0.00000000       0.00222881       0.00230252       0.01939853
Pt       8.42164148       4.86223724      19.95723551        4       0.00000000      -0.00006614      -0.00036285      -0.03692878
Pt       1.40360717       0.81037261      22.29206804        3       0.00000000      -0.00115850      -0.00691544      -0.00500075
Pt       4.21082121       0.81037256      22.29206808        3       0.00000000       0.00389015      -0.01471311      -0.06535834
Pt       7.01803485       0.81037259      22.29206811        3       0.00000000       0.00412199      -0.00178724      -0.00275416
Pt       2.80721434       3.24149110      22.29206780        3       0.00000000      -0.01230237      -0.00126316      -0.06653053
Pt       5.61442775       3.24149130      22.29206801        3       0.00000000       0.00756621       0.00532890      -0.06730890
Pt       8.42164144       3.24149143      22.29206808        3       0.00000000      -0.00179535       0.07225278      -0.15073410
Pt       4.21082099       5.67261006      22.29206776        3       0.00000000      -0.00298020      -0.00192908      -0.00531831
Pt       7.01803485       5.67260985      22.29206778        3       0.00000000       0.06623290      -0.03978704      -0.14828333
Pt       9.82524820       5.67261061      22.29206807        3       0.00000000      -0.06403591      -0.04259070      -0.14956121
Pt      -0.00000053       1.62074559      24.58417356        2       0.00000000      -0.00082128      -0.23463143       0.26692769
Pt       2.80721447       1.62074548      24.58417379        2       0.00000000      -0.00805133       0.00946724      -0.00827861
Pt       5.61442782       1.62074544      24.58417375        2       0.00000000       0.00637052       0.00663952      -0.02908427
Pt       1.40360648       4.05186445      24.58417388        2       0.00000000      -0.01316522       0.01293472      -0.05236687
Pt       4.21082098       4.05186402      24.58417384        2       0.00000000       0.00014093       0.02145396      -0.00846938
Pt       7.01803473       4.05186413      24.58417382        2       0.00000000       0.01288013       0.02604080      -0.04871283
Pt       2.80721282       6.48298339      24.58417358        2       0.00000000       0.20700137       0.13231690       0.24502593
Pt       5.61442787       6.48298335      24.58417389        2       0.00000000      -0.20169130       0.12975411       0.24785076
Pt       8.42164231       6.48298348      24.58417365        2       0.00000000      -0.00182521      -0.00263654      -0.04950342
Pt       0.00268120       0.00102699      27.13828680        1       0.00000000      -0.00917714       0.03978096       0.01706269
Pt       2.80470482       0.01101287      26.90012015        1       0.00000000       0.01449598      -0.00625598      -0.01345206
Pt       5.61047592       0.01685156      26.89611799        1       0.00000000       0.01922139      -0.02199570       0.01529542
Pt       1.40255054       2.44768216      26.89839034        1       0.00000000      -0.01024309      -0.02061039      -0.00597032
Pt       4.21528572       2.44652595      26.90898343        1       0.00000000      -0.02747981      -0.00489383      -0.00811561
Pt       7.01821915       2.44784793      26.89627643        1       0.00000000       0.02949973      -0.01259949      -0.00176577
Pt       2.79966903       4.88216584      26.89779999        1       0.00000000       0.01267895      -0.03149815      -0.00550522
Pt       5.61965333       4.87507900      26.89990230        1       0.00000000      -0.00507532       0.00218270      -0.00437249
Pt       8.42646803       4.87949863      26.91494311        1       0.00000000      -0.02056193      -0.02131568      -0.00464365
C        0.00756937       0.00585084      29.22263486        0       1.00000000      -0.02411026       0.02202615      -0.02979080
H       -0.51399258      -0.89380953      29.57825779        0       0.00000000      -0.00189066      -0.03813994      -0.01529599
H       -0.51789323       0.91228211      29.55370074        0       0.00000000      -0.00767772       0.03629364       0.02796930
H        1.05252789       0.01353082      29.56226334        0       0.00000000       0.02886434      -0.00461841       0.01446743
