40
Lattice="8.421641763931781 0.0 0.0 4.2108208819658905 7.293355709136913 0.0 0.0 0.0 46.87624170604845" Properties=species:S:1:pos:R:3:tags:I:1:initial_magmoms:R:1:forces:R:3 charge=0 spin=0 energy=-206.89217879123413 free_energy=-206.89217879123413 stress="0.01045297458767891 -1.1188809367013164e-05 1.7990457763517043e-06 -1.1188809367013164e-05 0.010326136834919453 5.710537516279146e-05 1.7990457763517043e-06 5.710537516279146e-05 -0.000345177308190614" pbc="T T T"
Pt      -0.00000001       0.00000004      19.95723550        4       0.00000000       0.00233168      -0.00579920       0.01881632
Pt       2.80721400      -0.00000009      19.95723557        4       0.00000000       0.00047791      -0.00201507       0.01296744
Pt       5.61442776      -0.00000012      19.95723555        4       0.00000000      -0.00121149      -0.00734627       0.01678570
Pt       1.40360718       2.43111835      19.95723542        4       0.00000000       0.00544758      -0.00215357       0.01721728
Pt       4.21082079       2.43111843      19.95723552        4       0.00000000      -0.00335201      -0.00249417       0.01936137
Pt       7.01803481       2.43111844      19.95723550        4       0.00000000       0.00004643      -0.00254399       0.02514149
Pt       2.80721421       4.86223734      19.95723529        4       0.00000000       0.00003078       0.00072975      -0.03673724
Pt       5.61442795       4.86223729      19.95723542        4       0.00000000      -0.00262228       0.00200018       0.01764064
Pt       8.42164148       4.86223724      19.95723551        4       0.00000000       0.00240286       0.00119705       0.01934573
Pt       1.40360717       0.81037261      22.29206804        3       0.00000000       0.00364675      -0.00740024      -0.00004681
Pt       4.21082121       0.81037256      22.29206808        3       0.00000000      -0.00069431      -0.01127271      -0.00125874
Pt       7.01803485       0.81037259      22.29206811        3       0.00000000       0.00489403      -0.01998786      -0.06638697
Pt       2.80721434       3.24149110      22.29206780        3       0.00000000      -0.00163765       0.07227068      -0.15693027
Pt       5.61442775       3.24149130      22.29206801        3       0.00000000      -0.01236248      -0.00732003      -0.06580927
Pt       8.42164144       3.24149143      22.29206808        3       0.00000000       0.00796529       0.00000739      -0.06751118
Pt       4.21082099       5.67261006      22.29206776        3       0.00000000      -0.06338677      -0.04780544      -0.14905052
Pt       7.01803485       5.67260985      22.29206778        3       0.00000000      -0.00178852      -0.00842836      -0.00807232
Pt       9.82524820       5.67261061      22.29206807        3       0.00000000       0.06459134      -0.04417900      -0.14786021
Pt      -0.00000053       1.62074559      24.58417356        2       0.00000000       0.00875693       0.03004395      -0.01647455
Pt       2.80721447       1.62074548      24.58417379        2       0.00000000      -0.00288450      -0.22308064       0.27408907
Pt       5.61442782       1.62074544      24.58417375        2       0.00000000      -0.01369010       0.02248344      -0.00498490
Pt       1.40360648       4.05186445      24.58417388        2       0.00000000       0.00646635       0.04012866      -0.04082479
Pt       4.21082098       4.05186402      24.58417384        2       0.00000000      -0.01013538       0.03244072      -0.04768714
Pt       7.01803473       4.05186413      24.58417382        2       0.00000000      -0.00124197       0.03696305      -0.01670746
Pt       2.80721282       6.48298339      24.58417358        2       0.00000000      -0.00465003       0.02446978      -0.04648928
Pt       5.61442787       6.48298335      24.58417389        2       0.00000000       0.20728815       0.14932634       0.23869616
Pt       8.42164231       6.48298348      24.58417365        2       0.00000000      -0.20291068       0.15514138       0.24838419
Pt       0.00092300       0.03618131      26.89844204        1       0.00000000      -0.03440823      -0.01709909      -0.00148187
Pt       2.79880963       0.03821563      27.14410199        1       0.00000000       0.03826146      -0.00984196      -0.01992292
Pt       5.60858211       0.03275521      26.90156346        1       0.00000000       0.01272640      -0.01270948      -0.00555601
Pt       1.40794181       2.47068990      26.89871950        1       0.00000000      -0.01035869      -0.01033637       0.00042646
Pt       4.20359523       2.47014009      26.90103425        1       0.00000000       0.01768816      -0.01997300      -0.01688186
Pt       7.01602087       2.46632615      26.90774171        1       0.00000000      -0.00410851      -0.01248765      -0.00565552
Pt       2.81014291       4.90654666      26.91137987        1       0.00000000      -0.02568387      -0.04211921       0.00496339
Pt       5.61191036       4.90252372      26.89892657        1       0.00000000      -0.00926630      -0.02901537      -0.00175816
Pt       8.41816496       4.89983835      26.90066768        1       0.00000000       0.02594201      -0.01944611      -0.02048961
C        2.79508973       0.01950859      29.22547717        0       1.00000000       0.02097405      -0.00246773       0.02308713
H        3.32305327       0.91536137      29.58662923        0       0.00000000      -0.01420759      -0.01188946      -0.02885509
H        3.31147333      -0.89507937      29.55405856        0       0.00000000      -0.01921116       0.01561921       0.01748399
H        1.74719729       0.02147341      29.56004895        0       0.00000000       0.00987417      -0.00360962       0.01902588
