40
Lattice="8.421641763931781 0.0 0.0 4.2108208819658905 7.293355709136913 0.0 0.0 0.0 46.87624170604845" Properties=species:S:1:pos:R:3:tags:I:1:initial_magmoms:R:1:forces:R:3 charge=0 spin=0 energy=-206.8953049356433 free_energy=-206.8953049356433 stress="0.010379047133028507 -1.138532388722524e-05 -3.004539166795439e-06 -1.138532388722524e-05 0.010334242135286331 2.784842399705667e-05 -3.004539166795439e-06 2.784842399705667e-05 -0.00035385991213843226" pbc="T T T"
Pt      -0.00000001       0.00000004      19.95723550        4       0.00000000       0.00275188      -0.00397634       0.01926155
Pt       2.80721400      -0.00000009      19.95723557        4       0.00000000       0.00050602      -0.00070333       0.01327935
Pt       5.61442776      -0.00000012      19.95723555        4       0.00000000      -0.00125189      -0.00551608       0.01721297
Pt       1.40360718       2.43111835      19.95723542        4       0.00000000       0.00561805       0.00030444       0.01713515
Pt       4.21082079       2.43111843      19.95723552        4       0.00000000      -0.00338095      -0.00047692       0.01926708
Pt       7.01803481       2.43111844      19.95723550        4       0.00000000       0.00031202      -0.00045154       0.02519758
Pt       2.80721421       4.86223734      19.95723529        4       0.00000000       0.00005212      -0.00002410      -0.03673857
Pt       5.61442795       4.86223729      19.95723542        4       0.00000000      -0.00291813       0.00365865       0.01733676
Pt       8.42164148       4.86223724      19.95723551        4       0.00000000       0.00274402       0.00274145       0.01933508
Pt       1.40360717       0.81037261      22.29206804        3       0.00000000       0.00511618      -0.00112693      -0.00236757
Pt       4.21082121       0.81037256      22.29206808        3       0.00000000       0.00142265      -0.00538630      -0.00453587
Pt       7.01803485       0.81037259      22.29206811        3       0.00000000       0.00624659      -0.01335448      -0.06790589
Pt       2.80721434       3.24149110      22.29206780        3       0.00000000      -0.00045371       0.07472928      -0.15161899
Pt       5.61442775       3.24149130      22.29206801        3       0.00000000      -0.01091403      -0.00086247      -0.06563828
Pt       8.42164144       3.24149143      22.29206808        3       0.00000000       0.00913841       0.00706770      -0.06572606
Pt       4.21082099       5.67261006      22.29206776        3       0.00000000      -0.06363279      -0.04132538      -0.14975318
Pt       7.01803485       5.67260985      22.29206778        3       0.00000000      -0.00088320      -0.00038003      -0.00387331
Pt       9.82524820       5.67261061      22.29206807        3       0.00000000       0.06750306      -0.03803454      -0.14903513
Pt      -0.00000053       1.62074559      24.58417356        2       0.00000000       0.00413838       0.00344719      -0.01774327
Pt       2.80721447       1.62074548      24.58417379        2       0.00000000      -0.01192301      -0.23902451       0.25804624
Pt       5.61442782       1.62074544      24.58417375        2       0.00000000      -0.01683233       0.00460207      -0.01720063
Pt       1.40360648       4.05186445      24.58417388        2       0.00000000       0.00309754       0.01452801      -0.05620099
Pt       4.21082098       4.05186402      24.58417384        2       0.00000000      -0.01313242       0.00977915      -0.05944749
Pt       7.01803473       4.05186413      24.58417382        2       0.00000000      -0.00395367       0.01847123      -0.02928957
Pt       2.80721282       6.48298339      24.58417358        2       0.00000000      -0.00149240      -0.00652155      -0.06251434
Pt       5.61442787       6.48298335      24.58417389        2       0.00000000       0.21063526       0.12814809       0.26126269
Pt       8.42164231       6.48298348      24.58417365        2       0.00000000      -0.21671705       0.13214187       0.25083309
Pt      -0.00876898       0.00724218      26.89705537        1       0.00000000       0.01475047      -0.00589752      -0.00492081
Pt       2.80155505       0.01230461      27.14487879        1       0.00000000       0.00320204      -0.00051643      -0.00340215
Pt       5.61152714       0.00457685      26.89350468        1       0.00000000      -0.02006685      -0.00061141       0.02018599
Pt       1.39629604       2.44491099      26.89832885        1       0.00000000       0.01506115      -0.02308658       0.00364530
Pt       4.19709027       2.44257488      26.89900109        1       0.00000000       0.01817529      -0.01448163      -0.00956951
Pt       7.00892229       2.44468997      26.90675279        1       0.00000000       0.00793144      -0.02486261       0.00191174
Pt       2.80371625       4.86945033      26.90861762        1       0.00000000      -0.00792735       0.00731009       0.01583768
Pt       5.60761795       4.86908651      26.89649941        1       0.00000000      -0.00540367       0.02932827       0.00894741
Pt       8.41666984       4.87177135      26.89791430        1       0.00000000       0.00813394       0.00869586      -0.00320606
C        2.79660781       0.01807238      29.22806329        0       1.00000000      -0.02761230      -0.01576018       0.02046563
H        3.31096466      -0.89203764      29.57032342        0       0.00000000      -0.00247572      -0.00388642       0.00348411
H        1.74775566       0.02264908      29.56252427        0       0.00000000       0.02872422      -0.00024133       0.00252448
H        3.32226605       0.91705031      29.58333767        0       0.00000000      -0.00428918       0.00155530      -0.03448215
