40
Lattice="8.421641763931781 0.0 0.0 4.2108208819658905 7.293355709136913 0.0 0.0 0.0 46.87624170604845" Properties=species:S:1:pos:R:3:tags:I:1:initial_magmoms:R:1:forces:R:3 charge=0 spin=0 energy=-206.8953049356433 free_energy=-206.8953049356433 stress="0.010378611274063587 -1.1295803233224433e-05 -2.9539262413891265e-06 -1.1295803233224433e-05 0.010334232822060585 2.7868658435181715e-05 -2.9539262413891265e-06 2.7868658435181715e-05 -0.00035460523213259876" pbc="T T T"
Pt      -0.00000001       0.00000004      19.95723550        4       0.00000000       0.00275024      -0.00397812       0.01926087
Pt       2.80721400      -0.00000009      19.95723557        4       0.00000000       0.00050379      -0.00070192       0.01327882
Pt       5.61442776      -0.00000012      19.95723555        4       0.00000000      -0.00125184      -0.00551351       0.01721651
Pt       1.40360718       2.43111835      19.95723542        4       0.00000000       0.00561835       0.00030657       0.01713740
Pt       4.21082079       2.43111843      19.95723552        4       0.00000000      -0.00337782      -0.00047429       0.01926625
Pt       7.01803481       2.43111844      19.95723550        4       0.00000000       0.00031346      -0.00045152       0.02519686
Pt       2.80721421       4.86223734      19.95723529        4       0.00000000       0.00006045      -0.00002510      -0.03673743
Pt       5.61442795       4.86223729      19.95723542        4       0.00000000      -0.00292323       0.00365840       0.01733625
Pt       8.42164148       4.86223724      19.95723551        4       0.00000000       0.00274285       0.00274365       0.01933616
Pt       1.40360717       0.81037261      22.29206804        3       0.00000000       0.00511437      -0.00112317      -0.00238790
Pt       4.21082121       0.81037256      22.29206808        3       0.00000000       0.00141945      -0.00538283      -0.00453114
Pt       7.01803485       0.81037259      22.29206811        3       0.00000000       0.00624538      -0.01334683      -0.06790835
Pt       2.80721434       3.24149110      22.29206780        3       0.00000000      -0.00045359       0.07472941      -0.15161297
Pt       5.61442775       3.24149130      22.29206801        3       0.00000000      -0.01090697      -0.00085896      -0.06564248
Pt       8.42164144       3.24149143      22.29206808        3       0.00000000       0.00913903       0.00707286      -0.06573229
Pt       4.21082099       5.67261006      22.29206776        3       0.00000000      -0.06362442      -0.04131693      -0.14972320
Pt       7.01803485       5.67260985      22.29206778        3       0.00000000      -0.00088715      -0.00037180      -0.00388065
Pt       9.82524820       5.67261061      22.29206807        3       0.00000000       0.06750727      -0.03803626      -0.14904112
Pt      -0.00000053       1.62074559      24.58417356        2       0.00000000       0.00413041       0.00344211      -0.01774467
Pt       2.80721447       1.62074548      24.58417379        2       0.00000000      -0.01191201      -0.23895174       0.25799701
Pt       5.61442782       1.62074544      24.58417375        2       0.00000000      -0.01684685       0.00457749      -0.01714887
Pt       1.40360648       4.05186445      24.58417388        2       0.00000000       0.00314149       0.01451275      -0.05614211
Pt       4.21082098       4.05186402      24.58417384        2       0.00000000      -0.01318142       0.00981225      -0.05943682
Pt       7.01803473       4.05186413      24.58417382        2       0.00000000      -0.00400035       0.01841995      -0.02931480
Pt       2.80721282       6.48298339      24.58417358        2       0.00000000      -0.00147401      -0.00657343      -0.06254824
Pt       5.61442787       6.48298335      24.58417389        2       0.00000000       0.21062490       0.12808497       0.26115581
Pt       8.42164231       6.48298348      24.58417365        2       0.00000000      -0.21663579       0.13212891       0.25082934
Pt      -0.00871282       0.00720601      26.89704146        1       0.00000000       0.01464210      -0.00581697      -0.00489893
Pt       2.80166703       0.01229782      27.14480384        1       0.00000000       0.00285121      -0.00045420      -0.00381490
Pt       5.61160103       0.00454587      26.89351531        1       0.00000000      -0.02027815      -0.00053721       0.02015107
Pt       1.39627908       2.44487450      26.89834267        1       0.00000000       0.01515972      -0.02297794       0.00354713
Pt       4.19708397       2.44261433      26.89899428        1       0.00000000       0.01821683      -0.01463938      -0.00956010
Pt       7.00890956       2.44465131      26.90676752        1       0.00000000       0.00798593      -0.02480339       0.00187885
Pt       2.80368842       4.86946076      26.90865798        1       0.00000000      -0.00785396       0.00718401       0.01571283
Pt       5.60760489       4.86906942      26.89651307        1       0.00000000      -0.00535146       0.02931012       0.00889501
Pt       8.41661912       4.87173142      26.89789057        1       0.00000000       0.00837023       0.00874490      -0.00314293
C        2.79652462       0.01807902      29.22794636        0       1.00000000      -0.02722524      -0.01590264       0.02049091
H        3.32199177       0.91714829      29.58327711        0       0.00000000      -0.00423721       0.00134620      -0.03438020
H        3.31095014      -0.89199159      29.57020412        0       0.00000000      -0.00222682      -0.00373913       0.00370972
H        1.74764777       0.02246017      29.56226079        0       0.00000000       0.02811084      -0.00009740       0.00293343
