40
Lattice="8.421641763931781 0.0 0.0 4.2108208819658905 7.293355709136913 0.0 0.0 0.0 46.87624170604845" Properties=species:S:1:pos:R:3:tags:I:1:initial_magmoms:R:1:forces:R:3 charge=0 spin=0 energy=-206.8933861429187 free_energy=-206.8933861429187 stress="0.010471976362168789 -6.254279014683561e-06 3.2333457511413144e-07 -6.254279014683561e-06 0.010342637076973915 3.303401899756864e-05 3.2333457511413144e-07 3.303401899756864e-05 -0.0002866865834221244" pbc="T T T"
Pt      -0.00000001       0.00000004      19.95723550        4       0.00000000       0.00174767      -0.00551092       0.01884062
Pt       2.80721400      -0.00000009      19.95723557        4       0.00000000       0.00017365      -0.00158359       0.01318682
Pt       5.61442776      -0.00000012      19.95723555        4       0.00000000      -0.00169371      -0.00703939       0.01709215
Pt       1.40360718       2.43111835      19.95723542        4       0.00000000       0.00510778      -0.00165534       0.01769976
Pt       4.21082079       2.43111843      19.95723552        4       0.00000000      -0.00375887      -0.00191272       0.01917052
Pt       7.01803481       2.43111844      19.95723550        4       0.00000000      -0.00037177      -0.00210482       0.02513133
Pt       2.80721421       4.86223734      19.95723529        4       0.00000000       0.00045315       0.00057813      -0.03661904
Pt       5.61442795       4.86223729      19.95723542        4       0.00000000      -0.00321158       0.00198532       0.01771961
Pt       8.42164148       4.86223724      19.95723551        4       0.00000000       0.00233766       0.00165816       0.01942963
Pt       1.40360717       0.81037261      22.29206804        3       0.00000000       0.00203201      -0.00585917      -0.00223056
Pt       4.21082121       0.81037256      22.29206808        3       0.00000000      -0.00218863      -0.01007313      -0.00079017
Pt       7.01803485       0.81037259      22.29206811        3       0.00000000       0.00387246      -0.01821846      -0.06672819
Pt       2.80721434       3.24149110      22.29206780        3       0.00000000      -0.00270965       0.07265593      -0.15496702
Pt       5.61442775       3.24149130      22.29206801        3       0.00000000      -0.01322622      -0.00568788      -0.06548417
Pt       8.42164144       3.24149143      22.29206808        3       0.00000000       0.00672856       0.00178716      -0.06764555
Pt       4.21082099       5.67261006      22.29206776        3       0.00000000      -0.06352011      -0.04566769      -0.14864036
Pt       7.01803485       5.67260985      22.29206778        3       0.00000000      -0.00290555      -0.00655213      -0.00886497
Pt       9.82524820       5.67261061      22.29206807        3       0.00000000       0.06447767      -0.04301161      -0.14815342
Pt      -0.00000053       1.62074559      24.58417356        2       0.00000000       0.01754954       0.02630098      -0.01057812
Pt       2.80721447       1.62074548      24.58417379        2       0.00000000      -0.00094924      -0.22483946       0.28190520
Pt       5.61442782       1.62074544      24.58417375        2       0.00000000      -0.00995823       0.01384160      -0.01021832
Pt       1.40360648       4.05186445      24.58417388        2       0.00000000       0.01173852       0.03115022      -0.03691128
Pt       4.21082098       4.05186402      24.58417384        2       0.00000000      -0.00584368       0.02828755      -0.04573281
Pt       7.01803473       4.05186413      24.58417382        2       0.00000000       0.00030147       0.03344237      -0.01099810
Pt       2.80721282       6.48298339      24.58417358        2       0.00000000      -0.00710656       0.01589285      -0.04654853
Pt       5.61442787       6.48298335      24.58417389        2       0.00000000       0.20977686       0.14001089       0.24575390
Pt       8.42164231       6.48298348      24.58417365        2       0.00000000      -0.19749008       0.15120806       0.26256722
Pt       0.00019950       0.02851136      26.89704058        1       0.00000000       0.00089551      -0.00829212       0.00056128
Pt       2.80629896       0.03049550      27.14407785        1       0.00000000       0.01751468      -0.01540253      -0.00109975
Pt       5.61593434       0.03024720      26.90537335        1       0.00000000      -0.00725916      -0.03273275      -0.01519563
Pt       1.41344001       2.46553683      26.90284803        1       0.00000000      -0.00793160      -0.02027179      -0.02046112
Pt       4.21332596       2.46416054      26.90062828        1       0.00000000      -0.01063598      -0.01931352      -0.01229177
Pt       7.01982811       2.45870796      26.90759483        1       0.00000000       0.00792352       0.00126413      -0.00215178
Pt       2.81588609       4.89869116      26.91193842        1       0.00000000      -0.03226573      -0.03557511       0.00354560
Pt       5.61532606       4.89523438      26.90231834        1       0.00000000       0.00080944      -0.01379281      -0.01435925
Pt       8.42484673       4.89188011      26.89935820        1       0.00000000       0.01614023      -0.00457210      -0.01725939
C        2.78931020       0.01602520      29.22747517        0       1.00000000       0.00091962       0.00601176       0.00677015
H        1.73827189       0.02235386      29.55479249        0       0.00000000       0.03979283      -0.00654188       0.01516656
H        3.31603557       0.91437813      29.58182798        0       0.00000000      -0.01255713       0.01409491      -0.01036952
H        3.30478639      -0.89300433      29.57188282        0       0.00000000      -0.02470921      -0.00395918      -0.01024153
