40
Lattice="8.421641763931781 0.0 0.0 4.2108208819658905 7.293355709136913 0.0 0.0 0.0 46.87624170604845" Properties=species:S:1:pos:R:3:tags:I:1:initial_magmoms:R:1:forces:R:3 charge=0 spin=0 energy=-206.89750601596558 free_energy=-206.89750601596558 stress="0.010368561372160912 4.46770309281419e-06 4.683293809648603e-06 4.46770309281419e-06 0.0103696808218956 -3.872819888783852e-06 4.683293809648603e-06 -3.872819888783852e-06 -0.000331707822624594" pbc="T T T"
Pt      -0.00000001       0.00000004      19.95723550        4       0.00000000      -0.00011906       0.00039737       0.01315406
Pt       2.80721400      -0.00000009      19.95723557        4       0.00000000      -0.00239109      -0.00471274       0.01712207
Pt       5.61442776      -0.00000012      19.95723555        4       0.00000000       0.00151834      -0.00300990       0.01961583
Pt       1.40360718       2.43111835      19.95723542        4       0.00000000      -0.00448523       0.00041195       0.01942278
Pt       4.21082079       2.43111843      19.95723552        4       0.00000000      -0.00053471       0.00013968       0.02545763
Pt       7.01803481       2.43111844      19.95723550        4       0.00000000       0.00500236       0.00125058       0.01730271
Pt       2.80721421       4.86223734      19.95723529        4       0.00000000      -0.00335464       0.00442943       0.01716522
Pt       5.61442795       4.86223729      19.95723542        4       0.00000000       0.00149247       0.00371412       0.01950711
Pt       8.42164148       4.86223724      19.95723551        4       0.00000000       0.00015013      -0.00014944      -0.03688166
Pt       1.40360717       0.81037261      22.29206804        3       0.00000000      -0.00171880      -0.00211314      -0.00287889
Pt       4.21082121       0.81037256      22.29206808        3       0.00000000       0.00310921      -0.01045449      -0.06633284
Pt       7.01803485       0.81037259      22.29206811        3       0.00000000       0.00156312       0.00279278      -0.00566527
Pt       2.80721434       3.24149110      22.29206780        3       0.00000000      -0.01291822       0.00343538      -0.06662954
Pt       5.61442775       3.24149130      22.29206801        3       0.00000000       0.00617605       0.01017131      -0.06603628
Pt       8.42164144       3.24149143      22.29206808        3       0.00000000      -0.00290499       0.07671966      -0.14929141
Pt       4.21082099       5.67261006      22.29206776        3       0.00000000      -0.00409290       0.00359925      -0.00162464
Pt       7.01803485       5.67260985      22.29206778        3       0.00000000       0.06639040      -0.03569464      -0.15135616
Pt       9.82524820       5.67261061      22.29206807        3       0.00000000      -0.06496186      -0.03782420      -0.15234128
Pt      -0.00000053       1.62074559      24.58417356        2       0.00000000       0.00679360      -0.24406485       0.25238895
Pt       2.80721447       1.62074548      24.58417379        2       0.00000000      -0.00755303      -0.00693770      -0.01554088
Pt       5.61442782       1.62074544      24.58417375        2       0.00000000       0.01195712      -0.00794929      -0.01743933
Pt       1.40360648       4.05186445      24.58417388        2       0.00000000      -0.01174226      -0.00698255      -0.03770590
Pt       4.21082098       4.05186402      24.58417384        2       0.00000000       0.00891466       0.00826721      -0.01010105
Pt       7.01803473       4.05186413      24.58417382        2       0.00000000       0.01520798       0.00813640      -0.04572352
Pt       2.80721282       6.48298339      24.58417358        2       0.00000000       0.21555448       0.11332127       0.25154704
Pt       5.61442787       6.48298335      24.58417389        2       0.00000000      -0.20946240       0.11658941       0.25371858
Pt       8.42164231       6.48298348      24.58417365        2       0.00000000       0.00473632      -0.01499624      -0.04227680
Pt       0.00475663      -0.00644092      27.14322949        1       0.00000000      -0.00881244       0.00212656      -0.01329679
Pt       2.80435453      -0.00848062      26.89785873        1       0.00000000       0.03562427      -0.00607245      -0.00139499
Pt       5.62047048      -0.00476241      26.89738962        1       0.00000000      -0.00815212      -0.01142057      -0.00254637
Pt       1.40839999       2.42234805      26.90363601        1       0.00000000      -0.01341014       0.03076622      -0.01751189
Pt       4.21488877       2.42458153      26.90654633        1       0.00000000       0.00392608       0.00837453      -0.00291651
Pt       7.02917694       2.42830962      26.89604724        1       0.00000000      -0.00669268       0.00923846       0.00216448
Pt       2.80912984       4.85759047      26.89703239        1       0.00000000      -0.00795610       0.00258008      -0.00222262
Pt       5.62462229       4.85825941      26.90094692        1       0.00000000      -0.01262712      -0.00310808      -0.01179314
Pt       8.42872727       4.86047883      26.91489343        1       0.00000000      -0.00408060      -0.01064140      -0.00922618
C       -0.00050877      -0.00915615      29.22462634        0       1.00000000      -0.01993118       0.00877491       0.01763646
H       -0.83454907       0.62215462      29.56597646        0       0.00000000       0.01586043       0.00429866      -0.00251339
H        0.96286575       0.39125567      29.57250131        0       0.00000000       0.00200920       0.01189990      -0.00163335
H       -0.13597270      -1.04591037      29.56404494        0       0.00000000       0.00191537      -0.02530345       0.00667778
