40
Lattice="8.421641763931781 0.0 0.0 4.2108208819658905 7.293355709136913 0.0 0.0 0.0 46.87624170604845" Properties=species:S:1:pos:R:3:tags:I:1:initial_magmoms:R:1:forces:R:3 charge=0 spin=0 energy=-206.8940136606189 free_energy=-206.8940136606189 stress="0.010366445407271385 1.2797470390069066e-06 1.6101095752674155e-05 1.2797470390069066e-06 0.010263090021908283 2.256966217828449e-05 1.6101095752674155e-05 2.256966217828449e-05 -0.0004223505675327033" pbc="T T T"
Pt      -0.00000001       0.00000004      19.95723550        4       0.00000000       0.00175037      -0.00542449       0.01914711
Pt       2.80721400      -0.00000009      19.95723557        4       0.00000000       0.00021696      -0.00169403       0.01309859
Pt       5.61442776      -0.00000012      19.95723555        4       0.00000000      -0.00173784      -0.00647833       0.01700137
Pt       1.40360718       2.43111835      19.95723542        4       0.00000000       0.00523923      -0.00091764       0.01742535
Pt       4.21082079       2.43111843      19.95723552        4       0.00000000      -0.00401927      -0.00155561       0.01907298
Pt       7.01803481       2.43111844      19.95723550        4       0.00000000      -0.00011989      -0.00156999       0.02516257
Pt       2.80721421       4.86223734      19.95723529        4       0.00000000       0.00048581       0.00026937      -0.03684301
Pt       5.61442795       4.86223729      19.95723542        4       0.00000000      -0.00324485       0.00216732       0.01752669
Pt       8.42164148       4.86223724      19.95723551        4       0.00000000       0.00248964       0.00183963       0.01936263
Pt       1.40360717       0.81037261      22.29206804        3       0.00000000       0.00276158      -0.00560811      -0.00436585
Pt       4.21082121       0.81037256      22.29206808        3       0.00000000      -0.00248053      -0.00894962      -0.00156830
Pt       7.01803485       0.81037259      22.29206811        3       0.00000000       0.00411209      -0.01660054      -0.06753284
Pt       2.80721434       3.24149110      22.29206780        3       0.00000000      -0.00226899       0.07265587      -0.15183714
Pt       5.61442775       3.24149130      22.29206801        3       0.00000000      -0.01276657      -0.00485796      -0.06720102
Pt       8.42164144       3.24149143      22.29206808        3       0.00000000       0.00703432       0.00246899      -0.06584011
Pt       4.21082099       5.67261006      22.29206776        3       0.00000000      -0.06325693      -0.04424013      -0.14771017
Pt       7.01803485       5.67260985      22.29206778        3       0.00000000      -0.00316317      -0.00534842      -0.00677739
Pt       9.82524820       5.67261061      22.29206807        3       0.00000000       0.06564940      -0.04156796      -0.14682913
Pt      -0.00000053       1.62074559      24.58417356        2       0.00000000       0.00714930       0.02442070      -0.02817565
Pt       2.80721447       1.62074548      24.58417379        2       0.00000000       0.00229844      -0.22675571       0.26191056
Pt       5.61442782       1.62074544      24.58417375        2       0.00000000      -0.00753358       0.01350428      -0.01435653
Pt       1.40360648       4.05186445      24.58417388        2       0.00000000       0.01463818       0.02916123      -0.06034196
Pt       4.21082098       4.05186402      24.58417384        2       0.00000000      -0.01427406       0.02537479      -0.05907325
Pt       7.01803473       4.05186413      24.58417382        2       0.00000000       0.00260433       0.03197793      -0.02826550
Pt       2.80721282       6.48298339      24.58417358        2       0.00000000      -0.00645755       0.00117752      -0.05889527
Pt       5.61442787       6.48298335      24.58417389        2       0.00000000       0.21121582       0.13906658       0.23333634
Pt       8.42164231       6.48298348      24.58417365        2       0.00000000      -0.19640942       0.14457153       0.24016312
Pt      -0.00386802       0.02530223      26.89078714        1       0.00000000       0.01587768      -0.01669643       0.02020843
Pt       2.81455230       0.02235046      27.13465537        1       0.00000000      -0.00828779      -0.00726779       0.00015690
Pt       5.61777076       0.02318910      26.89945139        1       0.00000000      -0.00410827      -0.01207321       0.00269953
Pt       1.40975045       2.45654130      26.89516443        1       0.00000000       0.00333083      -0.01918565       0.00957408
Pt       4.21255559       2.46079644      26.89953865        1       0.00000000      -0.00608273      -0.02408350      -0.01082123
Pt       7.01850032       2.46419420      26.90812215        1       0.00000000       0.00564445      -0.03917231      -0.00111815
Pt       2.80869230       4.88661045      26.91411399        1       0.00000000       0.00239176      -0.00553983      -0.00028736
Pt       5.61174263       4.89046752      26.89444992        1       0.00000000       0.00473939      -0.00163237       0.01496889
Pt       8.42960741       4.88675413      26.89667724        1       0.00000000      -0.00803293      -0.00349721      -0.00115464
C        2.80909662       0.01606007      29.21685585        0       1.00000000      -0.04169063       0.00935803       0.00341890
H        3.34258744      -0.87740052      29.57039581        0       0.00000000       0.01525023      -0.03096468      -0.01516788
H        1.75919553      -0.00198851      29.54416107        0       0.00000000       0.00460997       0.00424909       0.03046279
H        3.31177836       0.92996983      29.56316728        0       0.00000000       0.00644526       0.02941872       0.00946554
