40
Lattice="8.421641763931781 0.0 0.0 4.2108208819658905 7.293355709136913 0.0 0.0 0.0 46.87624170604845" Properties=species:S:1:pos:R:3:tags:I:1:initial_magmoms:R:1:forces:R:3 charge=0 spin=0 energy=-206.1541054422351 free_energy=-206.1541054422351 stress="0.010495251975953579 1.3047449101577513e-05 1.0813222615979612e-05 1.3047449101577513e-05 0.00971075426787138 5.175347541808151e-05 1.0813222615979612e-05 5.175347541808151e-05 -0.0002518553228583187" pbc="T T T"
Pt      -0.00000001       0.00000004      19.95723550        4       0.00000000       0.00174935       0.00074257       0.01679166
Pt       2.80721400      -0.00000009      19.95723557        4       0.00000000      -0.00053976      -0.00052565       0.01613893
Pt       5.61442776      -0.00000012      19.95723555        4       0.00000000       0.00065130      -0.00770057       0.02619543
Pt       1.40360718       2.43111835      19.95723542        4       0.00000000      -0.00075951       0.00245604       0.02315485
Pt       4.21082079       2.43111843      19.95723552        4       0.00000000      -0.00030682       0.00211853       0.02248017
Pt       7.01803481       2.43111844      19.95723550        4       0.00000000       0.00171018       0.00306227       0.01942270
Pt       2.80721421       4.86223734      19.95723529        4       0.00000000       0.01501363      -0.00047171      -0.00142008
Pt       5.61442795       4.86223729      19.95723542        4       0.00000000      -0.00105573       0.00413552       0.01339827
Pt       8.42164148       4.86223724      19.95723551        4       0.00000000      -0.01590990       0.00143833      -0.00235396
Pt       1.40360717       0.81037261      22.29206804        3       0.00000000       0.00285921       0.01708401      -0.02952384
Pt       4.21082121       0.81037256      22.29206808        3       0.00000000       0.00164792      -0.00697627      -0.03920966
Pt       7.01803485       0.81037259      22.29206811        3       0.00000000       0.00271337       0.00059722      -0.03529057
Pt       2.80721434       3.24149110      22.29206780        3       0.00000000      -0.00308690       0.03863150      -0.08807256
Pt       5.61442775       3.24149130      22.29206801        3       0.00000000      -0.00082123       0.00786354      -0.07090190
Pt       8.42164144       3.24149143      22.29206808        3       0.00000000       0.00169712       0.04174666      -0.09048273
Pt       4.21082099       5.67261006      22.29206776        3       0.00000000      -0.02325573      -0.00970247      -0.06537242
Pt       7.01803485       5.67260985      22.29206778        3       0.00000000       0.02196681      -0.00661216      -0.06918541
Pt       9.82524820       5.67261061      22.29206807        3       0.00000000      -0.00038600      -0.04378682      -0.11147624
Pt      -0.00000053       1.62074559      24.58417356        2       0.00000000      -0.04369122      -0.15336888       0.07910311
Pt       2.80721447       1.62074548      24.58417379        2       0.00000000       0.04140959      -0.14961976       0.06811951
Pt       5.61442782       1.62074544      24.58417375        2       0.00000000      -0.00573616      -0.01931553      -0.01143343
Pt       1.40360648       4.05186445      24.58417388        2       0.00000000      -0.00094987       0.05703470      -0.18249819
Pt       4.21082098       4.05186402      24.58417384        2       0.00000000      -0.05480222      -0.03401399      -0.10866231
Pt       7.01803473       4.05186413      24.58417382        2       0.00000000       0.05991949      -0.02821920      -0.11034554
Pt       2.80721282       6.48298339      24.58417358        2       0.00000000       0.19010480       0.12200797       0.33356008
Pt       5.61442787       6.48298335      24.58417389        2       0.00000000       0.00106005       0.05513647       0.08497994
Pt       8.42164231       6.48298348      24.58417365        2       0.00000000      -0.19055980       0.13577932       0.33072603
Pt       0.02429560      -0.03327641      27.00982761        1       0.00000000      -0.03489364      -0.00382559      -0.00899604
Pt       2.78604338      -0.03448997      27.00664939        1       0.00000000       0.03564065      -0.00201576      -0.00774762
Pt       5.61583771      -0.01442314      26.91190036        1       0.00000000      -0.00121904      -0.00548738      -0.03761385
Pt       1.40224095       2.46574668      26.87195745        1       0.00000000       0.00151911       0.01728210      -0.00781879
Pt       4.20902826       2.40760663      26.91138912        1       0.00000000      -0.00116363      -0.02511411       0.00613773
Pt       7.01724350       2.40749548      26.91070742        1       0.00000000       0.00465641      -0.02729059       0.00757167
Pt       2.80421101       4.84904920      26.91352765        1       0.00000000      -0.00062451       0.00991608       0.01203203
Pt       5.61373378       4.79078181      26.88016852        1       0.00000000       0.00207989      -0.02308433       0.00213901
Pt       8.42420097       4.84922467      26.91266206        1       0.00000000       0.00213442       0.01142916       0.01260705
C        1.40261666       0.04756127      28.89603410        0       1.00000000      -0.00406783       0.04283705      -0.01438832
H        0.52502882      -0.52646316      29.25267141        0       0.00000000      -0.03502844      -0.01889172       0.02589590
H        1.40312748       1.06543879      29.30114959        0       0.00000000      -0.00187398       0.01232448      -0.02234884
H        2.28237204      -0.52555935      29.24961312        0       0.00000000       0.03219886      -0.01760102       0.01468806
