40
Lattice="8.421641763931781 0.0 0.0 4.2108208819658905 7.293355709136913 0.0 0.0 0.0 46.87624170604845" Properties=species:S:1:pos:R:3:tags:I:1:initial_magmoms:R:1:forces:R:3 charge=0 spin=0 energy=-206.89630247897827 free_energy=-206.89630247897827 stress="0.010365982539951801 -1.3306929758982733e-05 -6.275941359490389e-06 -1.3306929758982733e-05 0.010378759354352951 -2.638167279656045e-05 -6.275941359490389e-06 -2.638167279656045e-05 -0.00032127866870723665" pbc="T T T"
Pt      -0.00000001       0.00000004      19.95723550        4       0.00000000       0.00037375       0.00040121       0.01341767
Pt       2.80721400      -0.00000009      19.95723557        4       0.00000000      -0.00145467      -0.00507879       0.01707752
Pt       5.61442776      -0.00000012      19.95723555        4       0.00000000       0.00240262      -0.00336270       0.01926208
Pt       1.40360718       2.43111835      19.95723542        4       0.00000000      -0.00396702       0.00037710       0.01950571
Pt       4.21082079       2.43111843      19.95723552        4       0.00000000       0.00048588      -0.00006871       0.02538127
Pt       7.01803481       2.43111844      19.95723550        4       0.00000000       0.00590920       0.00103952       0.01731003
Pt       2.80721421       4.86223734      19.95723529        4       0.00000000      -0.00289090       0.00405155       0.01763553
Pt       5.61442795       4.86223729      19.95723542        4       0.00000000       0.00273067       0.00331230       0.01942077
Pt       8.42164148       4.86223724      19.95723551        4       0.00000000      -0.00006231       0.00093657      -0.03676256
Pt       1.40360717       0.81037261      22.29206804        3       0.00000000       0.00116747      -0.00330168      -0.00537873
Pt       4.21082121       0.81037256      22.29206808        3       0.00000000       0.00595127      -0.01165846      -0.06790514
Pt       7.01803485       0.81037259      22.29206811        3       0.00000000       0.00512708       0.00116162      -0.00238665
Pt       2.80721434       3.24149110      22.29206780        3       0.00000000      -0.01000975       0.00184910      -0.06604039
Pt       5.61442775       3.24149130      22.29206801        3       0.00000000       0.00886483       0.00892282      -0.06577402
Pt       8.42164144       3.24149143      22.29206808        3       0.00000000       0.00000466       0.07663918      -0.15001878
Pt       4.21082099       5.67261006      22.29206776        3       0.00000000      -0.00109938       0.00159660      -0.00461491
Pt       7.01803485       5.67260985      22.29206778        3       0.00000000       0.06705590      -0.03524297      -0.14917184
Pt       9.82524820       5.67261061      22.29206807        3       0.00000000      -0.06307075      -0.03937180      -0.15087785
Pt      -0.00000053       1.62074559      24.58417356        2       0.00000000      -0.00864274      -0.24818890       0.27517983
Pt       2.80721447       1.62074548      24.58417379        2       0.00000000      -0.02125192       0.00026951      -0.01751071
Pt       5.61442782       1.62074544      24.58417375        2       0.00000000       0.01173909      -0.00258873      -0.01995450
Pt       1.40360648       4.05186445      24.58417388        2       0.00000000      -0.02037630      -0.00035403      -0.04797734
Pt       4.21082098       4.05186402      24.58417384        2       0.00000000      -0.00649197       0.01384006      -0.01393417
Pt       7.01803473       4.05186413      24.58417382        2       0.00000000       0.00900621       0.00419009      -0.05496187
Pt       2.80721282       6.48298339      24.58417358        2       0.00000000       0.20486572       0.12181387       0.25693187
Pt       5.61442787       6.48298335      24.58417389        2       0.00000000      -0.21231176       0.12237022       0.24959439
Pt       8.42164231       6.48298348      24.58417365        2       0.00000000      -0.00299661      -0.01600582      -0.05039873
Pt      -0.00672445      -0.00863333      27.14516793        1       0.00000000       0.00366049       0.01673576      -0.00975425
Pt       2.80031066       0.00042846      26.89702080        1       0.00000000      -0.00680607      -0.01785943       0.00241015
Pt       5.60358528       0.00276210      26.89693445        1       0.00000000       0.02778560      -0.02317017       0.00572672
Pt       1.39376509       2.43350653      26.90120941        1       0.00000000      -0.00523947      -0.01394762      -0.00814760
Pt       4.20544181       2.42950421      26.90494706        1       0.00000000      -0.00718859       0.01322590       0.00564532
Pt       7.01569087       2.43417785      26.90121695        1       0.00000000       0.01296352      -0.01733293      -0.00536163
Pt       2.79307683       4.86436782      26.89762826        1       0.00000000       0.01086261      -0.00079093      -0.01159731
Pt       5.61497491       4.85868347      26.89727075        1       0.00000000      -0.01641772       0.01931193      -0.00360012
Pt       8.41280146       4.86330003      26.91396984        1       0.00000000       0.01341638      -0.00258020      -0.00034381
C       -0.00328574      -0.05905627      29.22736534        0       1.00000000      -0.02686657       0.00837456       0.00662528
H       -0.10588870      -1.10836253      29.54141084        0       0.00000000       0.00397372       0.00755897       0.01224369
H       -0.85403070       0.53899272      29.58702031        0       0.00000000       0.00744376       0.00248337      -0.01356676
H        0.94832383       0.36242167      29.58226506        0       0.00000000       0.01135397       0.01044210      -0.00732808
