40
Lattice="8.421641763931781 0.0 0.0 4.2108208819658905 7.293355709136913 0.0 0.0 0.0 46.87624170604845" Properties=species:S:1:pos:R:3:tags:I:1:initial_magmoms:R:1:forces:R:3 charge=0 spin=0 energy=-206.15261389560425 free_energy=-206.15261389560425 stress="0.010550737380981445 1.4757239114260301e-05 3.7585388781735674e-05 1.4757239114260301e-05 0.009660584852099419 0.00012731700553558767 3.7585388781735674e-05 0.00012731700553558767 -0.00029394065495580435" pbc="T T T"
Pt      -0.00000001       0.00000004      19.95723550        4       0.00000000       0.00040191      -0.00103048       0.01651851
Pt       2.80721400      -0.00000009      19.95723557        4       0.00000000       0.00023993      -0.00261581       0.01566893
Pt       5.61442776      -0.00000012      19.95723555        4       0.00000000       0.00053424      -0.00916557       0.02574685
Pt       1.40360718       2.43111835      19.95723542        4       0.00000000      -0.00096752       0.00112950       0.02273664
Pt       4.21082079       2.43111843      19.95723552        4       0.00000000      -0.00020874      -0.00000871       0.02358628
Pt       7.01803481       2.43111844      19.95723550        4       0.00000000       0.00107097       0.00133984       0.01984390
Pt       2.80721421       4.86223734      19.95723529        4       0.00000000       0.01391639       0.00151058      -0.00008596
Pt       5.61442795       4.86223729      19.95723542        4       0.00000000      -0.00084355       0.00322619       0.01316769
Pt       8.42164148       4.86223724      19.95723551        4       0.00000000      -0.01547142       0.00313269      -0.00330362
Pt       1.40360717       0.81037261      22.29206804        3       0.00000000       0.00233660       0.01566787      -0.03131779
Pt       4.21082121       0.81037256      22.29206808        3       0.00000000      -0.00074433      -0.00939001      -0.03775545
Pt       7.01803485       0.81037259      22.29206811        3       0.00000000       0.00422644      -0.00171446      -0.03173021
Pt       2.80721434       3.24149110      22.29206780        3       0.00000000      -0.00516500       0.03949295      -0.09146491
Pt       5.61442775       3.24149130      22.29206801        3       0.00000000      -0.00041478       0.00343258      -0.07177444
Pt       8.42164144       3.24149143      22.29206808        3       0.00000000       0.00215953       0.04436436      -0.09633982
Pt       4.21082099       5.67261006      22.29206776        3       0.00000000      -0.02131137      -0.01250327      -0.06338516
Pt       7.01803485       5.67260985      22.29206778        3       0.00000000       0.02010499      -0.00905465      -0.06961418
Pt       9.82524820       5.67261061      22.29206807        3       0.00000000      -0.00381237      -0.04312286      -0.10587041
Pt      -0.00000053       1.62074559      24.58417356        2       0.00000000      -0.04146282      -0.14613971       0.08342813
Pt       2.80721447       1.62074548      24.58417379        2       0.00000000       0.04028650      -0.13088384       0.05959656
Pt       5.61442782       1.62074544      24.58417375        2       0.00000000      -0.00331880       0.00034209      -0.04682780
Pt       1.40360648       4.05186445      24.58417388        2       0.00000000      -0.00107213       0.08973858      -0.20267485
Pt       4.21082098       4.05186402      24.58417384        2       0.00000000      -0.06025984      -0.01883588      -0.09271248
Pt       7.01803473       4.05186413      24.58417382        2       0.00000000       0.06611768      -0.01342602      -0.09336165
Pt       2.80721282       6.48298339      24.58417358        2       0.00000000       0.20067884       0.12549454       0.31919459
Pt       5.61442787       6.48298335      24.58417389        2       0.00000000       0.00041091       0.07404314       0.09509368
Pt       8.42164231       6.48298348      24.58417365        2       0.00000000      -0.19090024       0.13241391       0.30202699
Pt       0.02550891      -0.02363018      27.01330966        1       0.00000000       0.02739080      -0.01506239       0.00546545
Pt       2.79107526      -0.02275430      27.00454220        1       0.00000000      -0.00166326      -0.01629803      -0.01593739
Pt       5.61711270       0.00054025      26.90339284        1       0.00000000       0.00569752      -0.02512896       0.02558504
Pt       1.40375266       2.48318930      26.86522802        1       0.00000000       0.00020406      -0.01848551       0.01490166
Pt       4.21528422       2.41789127      26.91010748        1       0.00000000      -0.03676637       0.00478270       0.00267680
Pt       7.01529262       2.41779727      26.91018909        1       0.00000000       0.04169117       0.00190626       0.00194355
Pt       2.80205121       4.86759407      26.91675700        1       0.00000000       0.03262231      -0.02927395       0.00094438
Pt       5.61588297       4.80397342      26.87906136        1       0.00000000       0.00444578      -0.01186763       0.00483373
Pt       8.43032621       4.86810206      26.91668348        1       0.00000000      -0.03072880      -0.03066280       0.00127305
C        1.39530572      -0.04884674      28.89923451        0       1.00000000      -0.02388041       0.00508425       0.00356131
H        0.52001299       0.53155158      29.25371238        0       0.00000000       0.00156187       0.00496758       0.03323405
H        2.28111379       0.52796887      29.23716781        0       0.00000000      -0.01739857      -0.00891999      -0.01382237
H        1.40020281      -1.06238627      29.31569916        0       0.00000000      -0.00970776       0.00152086      -0.02304928
