40
Lattice="8.421641763931781 0.0 0.0 4.2108208819658905 7.293355709136913 0.0 0.0 0.0 46.87624170604845" Properties=species:S:1:pos:R:3:tags:I:1:initial_magmoms:R:1:forces:R:3 charge=0 spin=0 energy=-206.15310217685425 free_energy=-206.15310217685425 stress="0.010531610809266567 1.008616072795121e-05 -4.2876131089997216e-08 1.008616072795121e-05 0.009699748829007149 0.0001229246990988031 -4.2876131089997216e-08 0.0001229246990988031 -0.00025285372976213694" pbc="T T T"
Pt      -0.00000001       0.00000004      19.95723550        4       0.00000000       0.00093738      -0.00064235       0.01642985
Pt       2.80721400      -0.00000009      19.95723557        4       0.00000000      -0.00003003      -0.00214325       0.01559627
Pt       5.61442776      -0.00000012      19.95723555        4       0.00000000       0.00046099      -0.00835213       0.02645413
Pt       1.40360718       2.43111835      19.95723542        4       0.00000000      -0.00074021       0.00151318       0.02274048
Pt       4.21082079       2.43111843      19.95723552        4       0.00000000      -0.00005884       0.00093355       0.02325220
Pt       7.01803481       2.43111844      19.95723550        4       0.00000000       0.00086066       0.00229711       0.02003006
Pt       2.80721421       4.86223734      19.95723529        4       0.00000000       0.01495196       0.00178383      -0.00115430
Pt       5.61442795       4.86223729      19.95723542        4       0.00000000      -0.00088484       0.00410467       0.01336616
Pt       8.42164148       4.86223724      19.95723551        4       0.00000000      -0.01495311       0.00359240      -0.00277111
Pt       1.40360717       0.81037261      22.29206804        3       0.00000000       0.00297044       0.01782458      -0.02974933
Pt       4.21082121       0.81037256      22.29206808        3       0.00000000       0.00006073      -0.00705525      -0.03631569
Pt       7.01803485       0.81037259      22.29206811        3       0.00000000       0.00446970       0.00034577      -0.03377525
Pt       2.80721434       3.24149110      22.29206780        3       0.00000000      -0.00436704       0.04323043      -0.09398506
Pt       5.61442775       3.24149130      22.29206801        3       0.00000000      -0.00041295       0.00595224      -0.07056352
Pt       8.42164144       3.24149143      22.29206808        3       0.00000000       0.00318922       0.04561558      -0.09487710
Pt       4.21082099       5.67261006      22.29206776        3       0.00000000      -0.02135910      -0.01080578      -0.06553378
Pt       7.01803485       5.67260985      22.29206778        3       0.00000000       0.02084226      -0.00657140      -0.06686393
Pt       9.82524820       5.67261061      22.29206807        3       0.00000000       0.00127762      -0.04046423      -0.10852805
Pt      -0.00000053       1.62074559      24.58417356        2       0.00000000      -0.03937338      -0.14644529       0.07407870
Pt       2.80721447       1.62074548      24.58417379        2       0.00000000       0.03946982      -0.14256093       0.06553086
Pt       5.61442782       1.62074544      24.58417375        2       0.00000000      -0.00597148      -0.02038478      -0.01313093
Pt       1.40360648       4.05186445      24.58417388        2       0.00000000      -0.00269929       0.07248976      -0.19159336
Pt       4.21082098       4.05186402      24.58417384        2       0.00000000      -0.05338893      -0.02848023      -0.10508793
Pt       7.01803473       4.05186413      24.58417382        2       0.00000000       0.05675672      -0.01976116      -0.10649513
Pt       2.80721282       6.48298339      24.58417358        2       0.00000000       0.18488660       0.12331566       0.33431113
Pt       5.61442787       6.48298335      24.58417389        2       0.00000000       0.00569656       0.06895571       0.09024870
Pt       8.42164231       6.48298348      24.58417365        2       0.00000000      -0.19178554       0.13710213       0.33677748
Pt       0.02275753      -0.03218091      27.00845123        1       0.00000000      -0.04172522      -0.00853171      -0.00721646
Pt       2.78128813      -0.03281472      27.01142896        1       0.00000000       0.03763016      -0.00547734      -0.00932403
Pt       5.61400043      -0.01192492      26.91333456        1       0.00000000      -0.00061058      -0.00050822      -0.03818806
Pt       1.40283385       2.47131478      26.87009600        1       0.00000000      -0.00122737       0.00738762      -0.01362504
Pt       4.21004017       2.41175707      26.90948720        1       0.00000000      -0.00196802      -0.02835981       0.00470584
Pt       7.01716310       2.41313098      26.90902870        1       0.00000000       0.00122803      -0.03273904       0.00536826
Pt       2.80454678       4.85354070      26.91438133        1       0.00000000      -0.00335362       0.00841071       0.01323453
Pt       5.61418435       4.79899915      26.87992087        1       0.00000000      -0.00049229      -0.03533472       0.00791987
Pt       8.42474285       4.85497584      26.91398272        1       0.00000000       0.00064116       0.00829713       0.01333747
C        1.40430944      -0.04901658      28.90206620        0       1.00000000       0.00366077      -0.03284690      -0.01457447
H        0.52518755       0.53038396      29.24610992        0       0.00000000      -0.02442344       0.01876378       0.01506947
H        2.28361949       0.52871561      29.24791100        0       0.00000000       0.02903138       0.01772406       0.02433238
H        1.40304275      -1.06126272      29.32067329        0       0.00000000       0.00080318      -0.01217548      -0.01943101
