40
Lattice="8.421641763931781 0.0 0.0 4.2108208819658905 7.293355709136913 0.0 0.0 0.0 46.87624170604845" Properties=species:S:1:pos:R:3:tags:I:1:initial_magmoms:R:1:forces:R:3 charge=0 spin=0 energy=-206.15410734958374 free_energy=-206.15410734958374 stress="0.010495263151824474 1.3047657375864219e-05 1.0821530850080308e-05 1.3047657375864219e-05 0.009710746817290783 5.17495209351182e-05 1.0821530850080308e-05 5.17495209351182e-05 -0.00025184924015775323" pbc="T T T"
Pt      -0.00000001       0.00000004      19.95723550        4       0.00000000       0.00174922       0.00074268       0.01679162
Pt       2.80721400      -0.00000009      19.95723557        4       0.00000000      -0.00053971      -0.00052571       0.01613906
Pt       5.61442776      -0.00000012      19.95723555        4       0.00000000       0.00065125      -0.00770060       0.02619533
Pt       1.40360718       2.43111835      19.95723542        4       0.00000000      -0.00075953       0.00245605       0.02315490
Pt       4.21082079       2.43111843      19.95723552        4       0.00000000      -0.00030667       0.00211846       0.02248024
Pt       7.01803481       2.43111844      19.95723550        4       0.00000000       0.00170995       0.00306208       0.01942259
Pt       2.80721421       4.86223734      19.95723529        4       0.00000000       0.01501319      -0.00047158      -0.00141993
Pt       5.61442795       4.86223729      19.95723542        4       0.00000000      -0.00105574       0.00413535       0.01339822
Pt       8.42164148       4.86223724      19.95723551        4       0.00000000      -0.01590985       0.00143835      -0.00235419
Pt       1.40360717       0.81037261      22.29206804        3       0.00000000       0.00285970       0.01708397      -0.02952367
Pt       4.21082121       0.81037256      22.29206808        3       0.00000000       0.00164792      -0.00697629      -0.03920995
Pt       7.01803485       0.81037259      22.29206811        3       0.00000000       0.00271336       0.00059711      -0.03529015
Pt       2.80721434       3.24149110      22.29206780        3       0.00000000      -0.00308686       0.03863130      -0.08807219
Pt       5.61442775       3.24149130      22.29206801        3       0.00000000      -0.00082116       0.00786388      -0.07090227
Pt       8.42164144       3.24149143      22.29206808        3       0.00000000       0.00169724       0.04174688      -0.09048371
Pt       4.21082099       5.67261006      22.29206776        3       0.00000000      -0.02325540      -0.00970202      -0.06537127
Pt       7.01803485       5.67260985      22.29206778        3       0.00000000       0.02196660      -0.00661209      -0.06918620
Pt       9.82524820       5.67261061      22.29206807        3       0.00000000      -0.00038555      -0.04378699      -0.11147609
Pt      -0.00000053       1.62074559      24.58417356        2       0.00000000      -0.04369080      -0.15337028       0.07910544
Pt       2.80721447       1.62074548      24.58417379        2       0.00000000       0.04140941      -0.14961979       0.06812141
Pt       5.61442782       1.62074544      24.58417375        2       0.00000000      -0.00573597      -0.01931754      -0.01143166
Pt       1.40360648       4.05186445      24.58417388        2       0.00000000      -0.00094953       0.05703615      -0.18249848
Pt       4.21082098       4.05186402      24.58417384        2       0.00000000      -0.05480252      -0.03401368      -0.10866206
Pt       7.01803473       4.05186413      24.58417382        2       0.00000000       0.05991918      -0.02821875      -0.11034610
Pt       2.80721282       6.48298339      24.58417358        2       0.00000000       0.19010369       0.12200911       0.33356461
Pt       5.61442787       6.48298335      24.58417389        2       0.00000000       0.00105912       0.05513708       0.08498467
Pt       8.42164231       6.48298348      24.58417365        2       0.00000000      -0.19055644       0.13578041       0.33072916
Pt       0.02429574      -0.03327603      27.00982799        1       0.00000000      -0.03488398      -0.00382712      -0.00900296
Pt       2.78604464      -0.03448968      27.00664885        1       0.00000000       0.03563287      -0.00201607      -0.00775046
Pt       5.61583790      -0.01442289      26.91190068        1       0.00000000      -0.00122124      -0.00549105      -0.03762305
Pt       1.40224107       2.46574740      26.87195756        1       0.00000000       0.00152122       0.01727493      -0.00781933
Pt       4.20902865       2.40760684      26.91138885        1       0.00000000      -0.00116561      -0.02511561       0.00613741
Pt       7.01724388       2.40749566      26.91070741        1       0.00000000       0.00465639      -0.02729307       0.00757299
Pt       2.80421103       4.84904908      26.91352757        1       0.00000000      -0.00062584       0.00991956       0.01203224
Pt       5.61373386       4.79078173      26.88016930        1       0.00000000       0.00208177      -0.02307708       0.00213956
Pt       8.42420113       4.84922439      26.91266217        1       0.00000000       0.00213657       0.01143261       0.01260728
C        1.40261546       0.04756135      28.89603708        0       1.00000000      -0.00405733       0.04280384      -0.01443355
H        1.40312691       1.06543867      29.30114818        0       0.00000000      -0.00187634       0.01236246      -0.02232121
H        2.28237138      -0.52555967      29.24961186        0       0.00000000       0.03220472      -0.01759992       0.01468842
H        0.52502841      -0.52646355      29.25267168        0       0.00000000      -0.03504731      -0.01889696       0.02591344
