40
Lattice="8.421641763931781 0.0 0.0 4.2108208819658905 7.293355709136913 0.0 0.0 0.0 46.87624170604845" Properties=species:S:1:pos:R:3:tags:I:1:initial_magmoms:R:1:forces:R:3 charge=0 spin=0 energy=-206.8947632486316 free_energy=-206.8947632486316 stress="0.010365276597440243 -2.7596172458288493e-06 -1.5500934296142077e-06 -2.7596172458288493e-06 0.01031453162431717 -7.859260335862928e-07 -1.5500934296142077e-06 -7.859260335862928e-07 -0.00033779695513658226" pbc="T T T"
Pt      -0.00000001       0.00000004      19.95723550        4       0.00000000       0.00170263      -0.00460782       0.01938491
Pt       2.80721400      -0.00000009      19.95723557        4       0.00000000       0.00039025      -0.00068338       0.01322191
Pt       5.61442776      -0.00000012      19.95723555        4       0.00000000      -0.00169050      -0.00600613       0.01715737
Pt       1.40360718       2.43111835      19.95723542        4       0.00000000       0.00529340       0.00001941       0.01735385
Pt       4.21082079       2.43111843      19.95723552        4       0.00000000      -0.00413873      -0.00093553       0.01906865
Pt       7.01803481       2.43111844      19.95723550        4       0.00000000       0.00042883      -0.00109009       0.02515858
Pt       2.80721421       4.86223734      19.95723529        4       0.00000000       0.00024743      -0.00036043      -0.03667583
Pt       5.61442795       4.86223729      19.95723542        4       0.00000000      -0.00331966       0.00293983       0.01753555
Pt       8.42164148       4.86223724      19.95723551        4       0.00000000       0.00194566       0.00243042       0.01934176
Pt       1.40360717       0.81037261      22.29206804        3       0.00000000       0.00314069      -0.00176652      -0.00478967
Pt       4.21082121       0.81037256      22.29206808        3       0.00000000      -0.00139514      -0.00683838      -0.00227876
Pt       7.01803485       0.81037259      22.29206811        3       0.00000000       0.00456280      -0.01396999      -0.06586306
Pt       2.80721434       3.24149110      22.29206780        3       0.00000000      -0.00193838       0.07256191      -0.14982957
Pt       5.61442775       3.24149130      22.29206801        3       0.00000000      -0.01186612      -0.00200040      -0.06794175
Pt       8.42164144       3.24149143      22.29206808        3       0.00000000       0.00719418       0.00582217      -0.06750178
Pt       4.21082099       5.67261006      22.29206776        3       0.00000000      -0.06464324      -0.04295895      -0.14754957
Pt       7.01803485       5.67260985      22.29206778        3       0.00000000      -0.00241858      -0.00211030      -0.00549842
Pt       9.82524820       5.67261061      22.29206807        3       0.00000000       0.06573741      -0.03984311      -0.14944302
Pt      -0.00000053       1.62074559      24.58417356        2       0.00000000       0.00793939       0.00754629      -0.00738219
Pt       2.80721447       1.62074548      24.58417379        2       0.00000000      -0.00418591      -0.23615666       0.26450083
Pt       5.61442782       1.62074544      24.58417375        2       0.00000000      -0.00746202       0.00644376      -0.02928435
Pt       1.40360648       4.05186445      24.58417388        2       0.00000000       0.01260872       0.01720555      -0.05646639
Pt       4.21082098       4.05186402      24.58417384        2       0.00000000      -0.01556238       0.02245008      -0.05089115
Pt       7.01803473       4.05186413      24.58417382        2       0.00000000       0.00044532       0.02122650      -0.00787892
Pt       2.80721282       6.48298339      24.58417358        2       0.00000000       0.00669223      -0.00207084      -0.05003921
Pt       5.61442787       6.48298335      24.58417389        2       0.00000000       0.20542146       0.12510350       0.25122669
Pt       8.42164231       6.48298348      24.58417365        2       0.00000000      -0.20458777       0.13881426       0.24500421
Pt       0.00160250       0.01198059      26.90068093        1       0.00000000      -0.00544821      -0.00364114      -0.01647120
Pt       2.80588681       0.00174665      27.13806039        1       0.00000000       0.00257147       0.03549742       0.01930758
Pt       5.61890020       0.01559048      26.89670832        1       0.00000000      -0.02065400      -0.02066278       0.01474124
Pt       1.40712885       2.44882635      26.89730326        1       0.00000000       0.00428166      -0.02621940      -0.00161022
Pt       4.21156372       2.44790474      26.89604187        1       0.00000000      -0.02524978      -0.01699110      -0.00045941
Pt       7.01325558       2.44591217      26.90942304        1       0.00000000       0.03110257      -0.00240363      -0.00861062
Pt       2.80296270       4.88005709      26.91484341        1       0.00000000       0.02150412      -0.02162932      -0.00310536
Pt       5.60788066       4.87455706      26.90012334        1       0.00000000       0.01107595       0.00949076      -0.00479013
Pt       8.43030638       4.88066445      26.89656068        1       0.00000000      -0.02473138      -0.02741883      -0.00184685
C        2.80110815       0.00786048      29.22271544        0       1.00000000       0.02605127       0.02009362      -0.03165782
H        3.32431593      -0.89104189      29.57779358        0       0.00000000       0.00700273      -0.03573981      -0.01354307
H        1.75655248       0.01255400      29.56325680        0       0.00000000      -0.03414299      -0.00245377       0.01240361
H        3.32445751       0.91568223      29.55380063        0       0.00000000       0.00609458       0.03091259       0.02600148
