40
Lattice="8.421641763931781 0.0 0.0 4.2108208819658905 7.293355709136913 0.0 0.0 0.0 46.87624170604845" Properties=species:S:1:pos:R:3:tags:I:1:initial_magmoms:R:1:forces:R:3 charge=0 spin=0 energy=-206.8948738748523 free_energy=-206.8948738748523 stress="0.010369925759732723 -2.1648003212249023e-07 5.163336481928127e-06 -2.1648003212249023e-07 0.010313359089195728 -3.144447873637546e-06 5.163336481928127e-06 -3.144447873637546e-06 -0.00033768179127946496" pbc="T T T"
Pt      -0.00000001       0.00000004      19.95723550        4       0.00000000      -0.00013169      -0.00069645       0.01318376
Pt       2.80721400      -0.00000009      19.95723557        4       0.00000000      -0.00136826      -0.00603381       0.01718679
Pt       5.61442776      -0.00000012      19.95723555        4       0.00000000       0.00198297      -0.00451405       0.01937427
Pt       1.40360718       2.43111835      19.95723542        4       0.00000000      -0.00389700      -0.00080409       0.01943824
Pt       4.21082079       2.43111843      19.95723552        4       0.00000000      -0.00015466      -0.00096559       0.02532482
Pt       7.01803481       2.43111844      19.95723550        4       0.00000000       0.00541931      -0.00030214       0.01712020
Pt       2.80721421       4.86223734      19.95723529        4       0.00000000      -0.00293889       0.00308357       0.01747873
Pt       5.61442795       4.86223729      19.95723542        4       0.00000000       0.00222784       0.00230222       0.01939848
Pt       8.42164148       4.86223724      19.95723551        4       0.00000000      -0.00006570      -0.00036250      -0.03692918
Pt       1.40360717       0.81037261      22.29206804        3       0.00000000      -0.00116036      -0.00691657      -0.00499733
Pt       4.21082121       0.81037256      22.29206808        3       0.00000000       0.00388836      -0.01471417      -0.06535799
Pt       7.01803485       0.81037259      22.29206811        3       0.00000000       0.00411969      -0.00178820      -0.00275515
Pt       2.80721434       3.24149110      22.29206780        3       0.00000000      -0.01230407      -0.00126410      -0.06653167
Pt       5.61442775       3.24149130      22.29206801        3       0.00000000       0.00756458       0.00532852      -0.06730716
Pt       8.42164144       3.24149143      22.29206808        3       0.00000000      -0.00179765       0.07225341      -0.15073669
Pt       4.21082099       5.67261006      22.29206776        3       0.00000000      -0.00298224      -0.00193061      -0.00531755
Pt       7.01803485       5.67260985      22.29206778        3       0.00000000       0.06623248      -0.03978868      -0.14828719
Pt       9.82524820       5.67261061      22.29206807        3       0.00000000      -0.06403750      -0.04259145      -0.14956033
Pt      -0.00000053       1.62074559      24.58417356        2       0.00000000      -0.00081485      -0.23463167       0.26693073
Pt       2.80721447       1.62074548      24.58417379        2       0.00000000      -0.00804638       0.00947005      -0.00829008
Pt       5.61442782       1.62074544      24.58417375        2       0.00000000       0.00637756       0.00664367      -0.02907814
Pt       1.40360648       4.05186445      24.58417388        2       0.00000000      -0.01315808       0.01293941      -0.05235268
Pt       4.21082098       4.05186402      24.58417384        2       0.00000000       0.00014834       0.02145779      -0.00846375
Pt       7.01803473       4.05186413      24.58417382        2       0.00000000       0.01288371       0.02603595      -0.04870819
Pt       2.80721282       6.48298339      24.58417358        2       0.00000000       0.20700753       0.13231902       0.24502562
Pt       5.61442787       6.48298335      24.58417389        2       0.00000000      -0.20168990       0.12975797       0.24784525
Pt       8.42164231       6.48298348      24.58417365        2       0.00000000      -0.00181317      -0.00263206      -0.04949725
Pt       0.00269324       0.00103002      27.13829016        1       0.00000000      -0.00918615       0.03977695       0.01703387
Pt       2.80471116       0.01101656      26.90011836        1       0.00000000       0.01451391      -0.00626086      -0.01343970
Pt       5.61048833       0.01685530      26.89611925        1       0.00000000       0.01919792      -0.02200382       0.01528598
Pt       1.40255949       2.44768180      26.89838923        1       0.00000000      -0.01025401      -0.02058334      -0.00596862
Pt       4.21528857       2.44652747      26.90898188        1       0.00000000      -0.02745275      -0.00488448      -0.00811162
Pt       7.01822991       2.44784613      26.89627890        1       0.00000000       0.02948121      -0.01257956      -0.00177616
Pt       2.79967918       4.88217182      26.89780173        1       0.00000000       0.01265699      -0.03151456      -0.00551525
Pt       5.61966334       4.87508554      26.89990158        1       0.00000000      -0.00508750       0.00215324      -0.00437386
Pt       8.42647117       4.87950192      26.91494433        1       0.00000000      -0.02053426      -0.02132186      -0.00464852
C        0.00757998       0.00584809      29.22263600        0       1.00000000      -0.02418924       0.02202030      -0.02975168
H       -0.51790416       0.91226317      29.55370496        0       0.00000000      -0.00767863       0.03639679       0.02796612
H        1.05253199       0.01354351      29.56227922        0       0.00000000       0.02890253      -0.00463170       0.01445463
H       -0.51398091      -0.89381300      29.57825472        0       0.00000000      -0.00186194      -0.03822275      -0.01529186
