40
Lattice="8.421641763931781 0.0 0.0 4.2108208819658905 7.293355709136913 0.0 0.0 0.0 46.87624170604845" Properties=species:S:1:pos:R:3:tags:I:1:initial_magmoms:R:1:forces:R:3 charge=0 spin=0 energy=-206.89747359103882 free_energy=-206.89747359103882 stress="0.010371598415076733 4.331318450567778e-06 5.5232076192623936e-06 4.331318450567778e-06 0.010370205156505108 -3.103209792243433e-06 5.5232076192623936e-06 -3.103209792243433e-06 -0.00032870896393433213" pbc="T T T"
Pt      -0.00000001       0.00000004      19.95723550        4       0.00000000      -0.00010942       0.00038831       0.01314195
Pt       2.80721400      -0.00000009      19.95723557        4       0.00000000      -0.00238887      -0.00472241       0.01711560
Pt       5.61442776      -0.00000012      19.95723555        4       0.00000000       0.00151254      -0.00302115       0.01962745
Pt       1.40360718       2.43111835      19.95723542        4       0.00000000      -0.00449265       0.00040039       0.01943845
Pt       4.21082079       2.43111843      19.95723552        4       0.00000000      -0.00053793       0.00010656       0.02545214
Pt       7.01803481       2.43111844      19.95723550        4       0.00000000       0.00500025       0.00123958       0.01731191
Pt       2.80721421       4.86223734      19.95723529        4       0.00000000      -0.00334930       0.00442135       0.01716846
Pt       5.61442795       4.86223729      19.95723542        4       0.00000000       0.00150068       0.00371077       0.01951808
Pt       8.42164148       4.86223724      19.95723551        4       0.00000000       0.00015250      -0.00015586      -0.03689405
Pt       1.40360717       0.81037261      22.29206804        3       0.00000000      -0.00174886      -0.00214493      -0.00284290
Pt       4.21082121       0.81037256      22.29206808        3       0.00000000       0.00310773      -0.01049084      -0.06628203
Pt       7.01803485       0.81037259      22.29206811        3       0.00000000       0.00155276       0.00273838      -0.00571543
Pt       2.80721434       3.24149110      22.29206780        3       0.00000000      -0.01291289       0.00339734      -0.06668103
Pt       5.61442775       3.24149130      22.29206801        3       0.00000000       0.00615929       0.01010503      -0.06606217
Pt       8.42164144       3.24149143      22.29206808        3       0.00000000      -0.00291265       0.07668939      -0.14925210
Pt       4.21082099       5.67261006      22.29206776        3       0.00000000      -0.00410070       0.00355240      -0.00164824
Pt       7.01803485       5.67260985      22.29206778        3       0.00000000       0.06638671      -0.03574211      -0.15130670
Pt       9.82524820       5.67261061      22.29206807        3       0.00000000      -0.06493961      -0.03785685      -0.15233663
Pt      -0.00000053       1.62074559      24.58417356        2       0.00000000       0.00708990      -0.24353631       0.25275016
Pt       2.80721447       1.62074548      24.58417379        2       0.00000000      -0.00777267      -0.00667261      -0.01513674
Pt       5.61442782       1.62074544      24.58417375        2       0.00000000       0.01197730      -0.00776514      -0.01708554
Pt       1.40360648       4.05186445      24.58417388        2       0.00000000      -0.01175117      -0.00729038      -0.03702438
Pt       4.21082098       4.05186402      24.58417384        2       0.00000000       0.00911222       0.00846230      -0.00956584
Pt       7.01803473       4.05186413      24.58417382        2       0.00000000       0.01514830       0.00818268      -0.04548436
Pt       2.80721282       6.48298339      24.58417358        2       0.00000000       0.21539196       0.11339742       0.25143942
Pt       5.61442787       6.48298335      24.58417389        2       0.00000000      -0.20937826       0.11648759       0.25339019
Pt       8.42164231       6.48298348      24.58417365        2       0.00000000       0.00472161      -0.01462355      -0.04284354
Pt       0.00474892      -0.00635382      27.14289899        1       0.00000000      -0.00816472       0.00276260      -0.01044154
Pt       2.80426660      -0.00844215      26.89785349        1       0.00000000       0.03592539      -0.00504742      -0.00101946
Pt       5.62034009      -0.00463984      26.89748752        1       0.00000000      -0.00752356      -0.01071974      -0.00288131
Pt       1.40850949       2.42242008      26.90405497        1       0.00000000      -0.01381128       0.03152195      -0.01906905
Pt       4.21483307       2.42473431      26.90653002        1       0.00000000       0.00429286       0.00866724      -0.00302508
Pt       7.02930745       2.42846605      26.89606073        1       0.00000000      -0.00698203       0.00947432       0.00180084
Pt       2.80912538       4.85782789      26.89706872        1       0.00000000      -0.00779272       0.00176744      -0.00257692
Pt       5.62482994       4.85849036      26.90117069        1       0.00000000      -0.01358488      -0.00409974      -0.01261256
Pt       8.42874708       4.86107706      26.91478029        1       0.00000000      -0.00384260      -0.01298996      -0.00877235
C       -0.00074286      -0.00909121      29.22445499        0       1.00000000      -0.01909218       0.01230771       0.01973012
H        0.96255574       0.39114389      29.57330263        0       0.00000000      -0.00253570       0.01041250      -0.00522522
H       -0.13654544      -1.04586485      29.56365375        0       0.00000000       0.00175137      -0.02559431       0.00691351
H       -0.83504209       0.62230138      29.56540205        0       0.00000000       0.01894131       0.00228009      -0.00301324
