40
Lattice="8.421641763931781 0.0 0.0 4.2108208819658905 7.293355709136913 0.0 0.0 0.0 46.87624170604845" Properties=species:S:1:pos:R:3:tags:I:1:initial_magmoms:R:1:forces:R:3 charge=0 spin=0 energy=-206.894007938573 free_energy=-206.894007938573 stress="0.010366421192884445 1.2762911865138449e-06 1.6086101823020726e-05 1.2762911865138449e-06 0.010263047181069851 2.2559250282938592e-05 1.6086101823020726e-05 2.2559250282938592e-05 -0.000422356155468151" pbc="T T T"
Pt      -0.00000001       0.00000004      19.95723550        4       0.00000000       0.00174989      -0.00542424       0.01914766
Pt       2.80721400      -0.00000009      19.95723557        4       0.00000000       0.00021676      -0.00169388       0.01309852
Pt       5.61442776      -0.00000012      19.95723555        4       0.00000000      -0.00173785      -0.00647799       0.01700146
Pt       1.40360718       2.43111835      19.95723542        4       0.00000000       0.00523887      -0.00091692       0.01742548
Pt       4.21082079       2.43111843      19.95723552        4       0.00000000      -0.00401967      -0.00155508       0.01907268
Pt       7.01803481       2.43111844      19.95723550        4       0.00000000      -0.00011990      -0.00156945       0.02516219
Pt       2.80721421       4.86223734      19.95723529        4       0.00000000       0.00048627       0.00026919      -0.03684314
Pt       5.61442795       4.86223729      19.95723542        4       0.00000000      -0.00324490       0.00216754       0.01752650
Pt       8.42164148       4.86223724      19.95723551        4       0.00000000       0.00248922       0.00183992       0.01936303
Pt       1.40360717       0.81037261      22.29206804        3       0.00000000       0.00276118      -0.00560618      -0.00436757
Pt       4.21082121       0.81037256      22.29206808        3       0.00000000      -0.00248115      -0.00894903      -0.00156979
Pt       7.01803485       0.81037259      22.29206811        3       0.00000000       0.00411111      -0.01659935      -0.06753274
Pt       2.80721434       3.24149110      22.29206780        3       0.00000000      -0.00226927       0.07265639      -0.15183452
Pt       5.61442775       3.24149130      22.29206801        3       0.00000000      -0.01276676      -0.00485667      -0.06720359
Pt       8.42164144       3.24149143      22.29206808        3       0.00000000       0.00703339       0.00246994      -0.06583916
Pt       4.21082099       5.67261006      22.29206776        3       0.00000000      -0.06325659      -0.04423889      -0.14770737
Pt       7.01803485       5.67260985      22.29206778        3       0.00000000      -0.00316366      -0.00534686      -0.00677707
Pt       9.82524820       5.67261061      22.29206807        3       0.00000000       0.06564946      -0.04156761      -0.14682898
Pt      -0.00000053       1.62074559      24.58417356        2       0.00000000       0.00715112       0.02440651      -0.02817050
Pt       2.80721447       1.62074548      24.58417379        2       0.00000000       0.00229973      -0.22675806       0.26189494
Pt       5.61442782       1.62074544      24.58417375        2       0.00000000      -0.00752940       0.01349964      -0.01437361
Pt       1.40360648       4.05186445      24.58417388        2       0.00000000       0.01463755       0.02916259      -0.06035779
Pt       4.21082098       4.05186402      24.58417384        2       0.00000000      -0.01427674       0.02537716      -0.05908607
Pt       7.01803473       4.05186413      24.58417382        2       0.00000000       0.00261406       0.03197757      -0.02826331
Pt       2.80721282       6.48298339      24.58417358        2       0.00000000      -0.00644471       0.00117367      -0.05888503
Pt       5.61442787       6.48298335      24.58417389        2       0.00000000       0.21120630       0.13905820       0.23334427
Pt       8.42164231       6.48298348      24.58417365        2       0.00000000      -0.19640930       0.14456180       0.24016698
Pt      -0.00386361       0.02529871      26.89079537        1       0.00000000       0.01587689      -0.01670840       0.02016661
Pt       2.81455631       0.02234320      27.13464740        1       0.00000000      -0.00831130      -0.00726254       0.00020295
Pt       5.61777401       0.02318628      26.89944879        1       0.00000000      -0.00410885      -0.01208517       0.00271490
Pt       1.40975335       2.45654055      26.89515980        1       0.00000000       0.00332393      -0.01921378       0.00958931
Pt       4.21255928       2.46079296      26.89953349        1       0.00000000      -0.00609334      -0.02409719      -0.01080198
Pt       7.01850083       2.46418832      26.90812175        1       0.00000000       0.00566186      -0.03916887      -0.00110909
Pt       2.80869114       4.88660143      26.91411463        1       0.00000000       0.00241396      -0.00550784      -0.00028371
Pt       5.61174373       4.89045435      26.89444651        1       0.00000000       0.00474501      -0.00158460       0.01497322
Pt       8.42961572       4.88674839      26.89668072        1       0.00000000      -0.00806621      -0.00348728      -0.00116548
C        2.80907905       0.01606036      29.21685278        0       1.00000000      -0.04173320       0.00929712       0.00335351
H        1.75917406      -0.00198579      29.54414687        0       0.00000000       0.00464028       0.00424421       0.03046073
H        3.31175897       0.92996761      29.56316382        0       0.00000000       0.00647985       0.02950023       0.00949172
H        3.34256729      -0.87739942      29.57039620        0       0.00000000       0.01524614      -0.03098608      -0.01515645
