40
Lattice="8.421641763931781 0.0 0.0 4.2108208819658905 7.293355709136913 0.0 0.0 0.0 46.87624170604845" Properties=species:S:1:pos:R:3:tags:I:1:initial_magmoms:R:1:forces:R:3 charge=0 spin=0 energy=-206.15442206210815 free_energy=-206.15442206210815 stress="0.010451626032590866 1.0565038792265113e-05 -1.4513497262669262e-05 1.0565038792265113e-05 0.009673085063695908 7.586468564113602e-05 -1.4513497262669262e-05 7.586468564113602e-05 -0.00031907687662169337" pbc="T T T"
Pt      -0.00000001       0.00000004      19.95723550        4       0.00000000       0.00168820       0.00169358       0.01682114
Pt       2.80721400      -0.00000009      19.95723557        4       0.00000000      -0.00037444       0.00071738       0.01624518
Pt       5.61442776      -0.00000012      19.95723555        4       0.00000000       0.00051769      -0.00712845       0.02622050
Pt       1.40360718       2.43111835      19.95723542        4       0.00000000      -0.00100199       0.00318685       0.02291516
Pt       4.21082079       2.43111843      19.95723552        4       0.00000000      -0.00013178       0.00352456       0.02219572
Pt       7.01803481       2.43111844      19.95723550        4       0.00000000       0.00129319       0.00447715       0.01942512
Pt       2.80721421       4.86223734      19.95723529        4       0.00000000       0.01561023      -0.00059336      -0.00201639
Pt       5.61442795       4.86223729      19.95723542        4       0.00000000      -0.00110423       0.00512356       0.01304303
Pt       8.42164148       4.86223724      19.95723551        4       0.00000000      -0.01581238       0.00166017      -0.00188379
Pt       1.40360717       0.81037261      22.29206804        3       0.00000000       0.00283795       0.02051330      -0.03324507
Pt       4.21082121       0.81037256      22.29206808        3       0.00000000       0.00196340      -0.00280952      -0.03990939
Pt       7.01803485       0.81037259      22.29206811        3       0.00000000       0.00213349       0.00514180      -0.03814342
Pt       2.80721434       3.24149110      22.29206780        3       0.00000000      -0.00220480       0.04161243      -0.08968560
Pt       5.61442775       3.24149130      22.29206801        3       0.00000000      -0.00086544       0.01226699      -0.06847963
Pt       8.42164144       3.24149143      22.29206808        3       0.00000000       0.00233713       0.04294889      -0.08915152
Pt       4.21082099       5.67261006      22.29206776        3       0.00000000      -0.02307355      -0.00440989      -0.06647041
Pt       7.01803485       5.67260985      22.29206778        3       0.00000000       0.02208050      -0.00105774      -0.06683936
Pt       9.82524820       5.67261061      22.29206807        3       0.00000000       0.00296539      -0.04095878      -0.10674623
Pt      -0.00000053       1.62074559      24.58417356        2       0.00000000      -0.04761426      -0.14938413       0.05014459
Pt       2.80721447       1.62074548      24.58417379        2       0.00000000       0.04663142      -0.15161116       0.04668769
Pt       5.61442782       1.62074544      24.58417375        2       0.00000000      -0.00572910      -0.02341914      -0.02787738
Pt       1.40360648       4.05186445      24.58417388        2       0.00000000      -0.00296780       0.05209450      -0.18328959
Pt       4.21082098       4.05186402      24.58417384        2       0.00000000      -0.04367370      -0.04879832      -0.09779658
Pt       7.01803473       4.05186413      24.58417382        2       0.00000000       0.04912739      -0.04351605      -0.09893838
Pt       2.80721282       6.48298339      24.58417358        2       0.00000000       0.19553846       0.09872027       0.30340925
Pt       5.61442787       6.48298335      24.58417389        2       0.00000000       0.00611037       0.03654743       0.08080771
Pt       8.42164231       6.48298348      24.58417365        2       0.00000000      -0.20738265       0.11743710       0.31554788
Pt       0.01455422      -0.04768143      26.99717771        1       0.00000000       0.01840329      -0.00807541       0.02110302
Pt       2.78873682      -0.04737198      27.00188605        1       0.00000000      -0.03292805      -0.00555802       0.03284413
Pt       5.61424332      -0.03769999      26.90342545        1       0.00000000      -0.00495435       0.03158333       0.01231152
Pt       1.40225320       2.45551058      26.86779289        1       0.00000000      -0.00136891       0.02329943      -0.00451711
Pt       4.21327343       2.38814451      26.91311076        1       0.00000000      -0.01727441       0.01793203      -0.00103850
Pt       7.01357434       2.38817708      26.91282119        1       0.00000000       0.01231460       0.01704679      -0.00242747
Pt       2.80801594       4.83193394      26.91347578        1       0.00000000      -0.01317489       0.00497319       0.01758952
Pt       5.61377026       4.77922534      26.88506635        1       0.00000000      -0.00004328      -0.03285756      -0.00432014
Pt       8.41948997       4.83340611      26.91274318        1       0.00000000       0.01155006       0.00471610       0.01693023
C        1.40865313       0.09001117      28.88429712        0       1.00000000       0.01261415      -0.01649221      -0.01135328
H        2.28596410      -0.47361649      29.26003494        0       0.00000000       0.01477132      -0.01794462       0.01458603
H        0.52507400      -0.47132878      29.25065697        0       0.00000000      -0.00562848      -0.01436061      -0.01185243
H        1.40578178       1.11743806      29.26369203        0       0.00000000       0.00682004       0.02175806      -0.00284579
