40
Lattice="8.421641763931781 0.0 0.0 4.2108208819658905 7.293355709136913 0.0 0.0 0.0 46.87624170604845" Properties=species:S:1:pos:R:3:tags:I:1:initial_magmoms:R:1:forces:R:3 charge=0 spin=0 energy=-206.89762236423218 free_energy=-206.89762236423218 stress="0.010385247878730297 -3.714862259585061e-06 1.945037411132944e-06 -3.714862259585061e-06 0.010358773171901703 1.1998118679912295e-05 1.945037411132944e-06 1.1998118679912295e-05 -0.0003243764513172209" pbc="T T T"
Pt      -0.00000001       0.00000004      19.95723550        4       0.00000000       0.00198920      -0.00379648       0.01915993
Pt       2.80721400      -0.00000009      19.95723557        4       0.00000000      -0.00005101      -0.00027632       0.01332297
Pt       5.61442776      -0.00000012      19.95723555        4       0.00000000      -0.00171115      -0.00529300       0.01720695
Pt       1.40360718       2.43111835      19.95723542        4       0.00000000       0.00521126       0.00023649       0.01718229
Pt       4.21082079       2.43111843      19.95723552        4       0.00000000      -0.00382758      -0.00054772       0.01916222
Pt       7.01803481       2.43111844      19.95723550        4       0.00000000      -0.00002195      -0.00026583       0.02533129
Pt       2.80721421       4.86223734      19.95723529        4       0.00000000       0.00029663      -0.00022141      -0.03662761
Pt       5.61442795       4.86223729      19.95723542        4       0.00000000      -0.00315285       0.00373383       0.01723250
Pt       8.42164148       4.86223724      19.95723551        4       0.00000000       0.00175630       0.00303797       0.01927618
Pt       1.40360717       0.81037261      22.29206804        3       0.00000000       0.00293624       0.00067367      -0.00248256
Pt       4.21082121       0.81037256      22.29206808        3       0.00000000      -0.00044381      -0.00469858      -0.00228143
Pt       7.01803485       0.81037259      22.29206811        3       0.00000000       0.00443204      -0.01259285      -0.06682491
Pt       2.80721434       3.24149110      22.29206780        3       0.00000000      -0.00194997       0.07481126      -0.15147357
Pt       5.61442775       3.24149130      22.29206801        3       0.00000000      -0.01246220       0.00026858      -0.06740466
Pt       8.42164144       3.24149143      22.29206808        3       0.00000000       0.00747479       0.00830234      -0.06740342
Pt       4.21082099       5.67261006      22.29206776        3       0.00000000      -0.06439725      -0.04073311      -0.14944221
Pt       7.01803485       5.67260985      22.29206778        3       0.00000000      -0.00298748       0.00054629      -0.00256622
Pt       9.82524820       5.67261061      22.29206807        3       0.00000000       0.06675576      -0.03811572      -0.15027222
Pt      -0.00000053       1.62074559      24.58417356        2       0.00000000       0.00701328      -0.00029998      -0.02730983
Pt       2.80721447       1.62074548      24.58417379        2       0.00000000      -0.00367434      -0.24313924       0.25355196
Pt       5.61442782       1.62074544      24.58417375        2       0.00000000      -0.00661741       0.00031185      -0.02344992
Pt       1.40360648       4.05186445      24.58417388        2       0.00000000       0.00847848       0.01559798      -0.04807171
Pt       4.21082098       4.05186402      24.58417384        2       0.00000000      -0.00938705       0.01250267      -0.04841170
Pt       7.01803473       4.05186413      24.58417382        2       0.00000000       0.00065537       0.01378550      -0.01170808
Pt       2.80721282       6.48298339      24.58417358        2       0.00000000       0.00169107      -0.00799405      -0.05193621
Pt       5.61442787       6.48298335      24.58417389        2       0.00000000       0.21832950       0.12149350       0.25443646
Pt       8.42164231       6.48298348      24.58417365        2       0.00000000      -0.21375887       0.12985866       0.25651661
Pt       0.00338090       0.00216431      26.89537473        1       0.00000000      -0.00767226      -0.00182906       0.00766077
Pt       2.80977159       0.00882940      27.14689818        1       0.00000000      -0.01025606      -0.00871622       0.00323413
Pt       5.61452901       0.00196529      26.89657051        1       0.00000000       0.00164406      -0.00322341       0.00775916
Pt       1.40433066       2.43977413      26.89599338        1       0.00000000       0.01164523      -0.00193604       0.00468557
Pt       4.20825140       2.43868194      26.89491002        1       0.00000000       0.00341418      -0.00012065       0.00747973
Pt       7.01923944       2.43312436      26.90685326        1       0.00000000      -0.00423565       0.01515226      -0.00150453
Pt       2.80815120       4.86960682      26.91366413        1       0.00000000      -0.00115650      -0.00826793      -0.00346935
Pt       5.61240011       4.86908290      26.89999609        1       0.00000000       0.00355954      -0.00009320      -0.00765100
Pt       8.42398667       4.87133950      26.89875323        1       0.00000000      -0.00403431      -0.00886687      -0.00370459
C        2.79896557       0.02094053      29.23071847        0       1.00000000       0.02351343      -0.04015834       0.00774245
H        1.87012512      -0.46136489      29.57034566        0       0.00000000       0.00717905       0.00856091      -0.00358214
H        2.84234495       1.06663912      29.56876735        0       0.00000000      -0.00107272       0.00203212      -0.00228307
H        3.67911560      -0.53968026      29.58246434        0       0.00000000      -0.02510521       0.02028009      -0.02108020
