40
Lattice="8.421641763931781 0.0 0.0 4.2108208819658905 7.293355709136913 0.0 0.0 0.0 46.87624170604845" Properties=species:S:1:pos:R:3:tags:I:1:initial_magmoms:R:1:forces:R:3 charge=0 spin=0 energy=-206.15442587680542 free_energy=-206.15442587680542 stress="0.010451615788042545 1.0558246685832273e-05 -1.4510351320495829e-05 1.0558246685832273e-05 0.009673070162534714 7.58633395889774e-05 -1.4510351320495829e-05 7.58633395889774e-05 -0.00031908403616398573" pbc="T T T"
Pt      -0.00000001       0.00000004      19.95723550        4       0.00000000       0.00168838       0.00169334       0.01682118
Pt       2.80721400      -0.00000009      19.95723557        4       0.00000000      -0.00037463       0.00071735       0.01624501
Pt       5.61442776      -0.00000012      19.95723555        4       0.00000000       0.00051769      -0.00712827       0.02622050
Pt       1.40360718       2.43111835      19.95723542        4       0.00000000      -0.00100196       0.00318691       0.02291512
Pt       4.21082079       2.43111843      19.95723552        4       0.00000000      -0.00013192       0.00352452       0.02219561
Pt       7.01803481       2.43111844      19.95723550        4       0.00000000       0.00129314       0.00447706       0.01942524
Pt       2.80721421       4.86223734      19.95723529        4       0.00000000       0.01561014      -0.00059352      -0.00201626
Pt       5.61442795       4.86223729      19.95723542        4       0.00000000      -0.00110422       0.00512378       0.01304318
Pt       8.42164148       4.86223724      19.95723551        4       0.00000000      -0.01581229       0.00166004      -0.00188371
Pt       1.40360717       0.81037261      22.29206804        3       0.00000000       0.00283802       0.02051285      -0.03324559
Pt       4.21082121       0.81037256      22.29206808        3       0.00000000       0.00196290      -0.00280930      -0.03991004
Pt       7.01803485       0.81037259      22.29206811        3       0.00000000       0.00213323       0.00514199      -0.03814366
Pt       2.80721434       3.24149110      22.29206780        3       0.00000000      -0.00220495       0.04161246      -0.08968585
Pt       5.61442775       3.24149130      22.29206801        3       0.00000000      -0.00086546       0.01226697      -0.06847955
Pt       8.42164144       3.24149143      22.29206808        3       0.00000000       0.00233707       0.04294885      -0.08915154
Pt       4.21082099       5.67261006      22.29206776        3       0.00000000      -0.02307366      -0.00440986      -0.06647038
Pt       7.01803485       5.67260985      22.29206778        3       0.00000000       0.02208009      -0.00105825      -0.06683888
Pt       9.82524820       5.67261061      22.29206807        3       0.00000000       0.00296515      -0.04095870      -0.10674595
Pt      -0.00000053       1.62074559      24.58417356        2       0.00000000      -0.04761408      -0.14938356       0.05014662
Pt       2.80721447       1.62074548      24.58417379        2       0.00000000       0.04663158      -0.15161145       0.04668612
Pt       5.61442782       1.62074544      24.58417375        2       0.00000000      -0.00572829      -0.02341843      -0.02787585
Pt       1.40360648       4.05186445      24.58417388        2       0.00000000      -0.00296803       0.05209466      -0.18328996
Pt       4.21082098       4.05186402      24.58417384        2       0.00000000      -0.04367305      -0.04879778      -0.09779742
Pt       7.01803473       4.05186413      24.58417382        2       0.00000000       0.04912752      -0.04351594      -0.09893799
Pt       2.80721282       6.48298339      24.58417358        2       0.00000000       0.19553812       0.09872036       0.30340940
Pt       5.61442787       6.48298335      24.58417389        2       0.00000000       0.00611037       0.03654790       0.08080919
Pt       8.42164231       6.48298348      24.58417365        2       0.00000000      -0.20738254       0.11743674       0.31554440
Pt       0.01455374      -0.04768145      26.99717795        1       0.00000000       0.01841099      -0.00807247       0.02110247
Pt       2.78873740      -0.04737214      27.00188583        1       0.00000000      -0.03293931      -0.00555794       0.03284542
Pt       5.61424321      -0.03769974      26.90342534        1       0.00000000      -0.00494686       0.03158554       0.01231307
Pt       1.40225342       2.45551093      26.86779239        1       0.00000000      -0.00137490       0.02329699      -0.00451767
Pt       4.21327359       2.38814498      26.91311096        1       0.00000000      -0.01727184       0.01793027      -0.00103823
Pt       7.01357442       2.38817769      26.91282094        1       0.00000000       0.01231428       0.01704333      -0.00242856
Pt       2.80801575       4.83193400      26.91347536        1       0.00000000      -0.01317461       0.00497528       0.01758996
Pt       5.61377037       4.77922520      26.88506645        1       0.00000000      -0.00004272      -0.03285432      -0.00431997
Pt       8.41949011       4.83340638      26.91274324        1       0.00000000       0.01155046       0.00471176       0.01693174
C        1.40865262       0.09001089      28.88429817        0       1.00000000       0.01263783      -0.01650863      -0.01139938
H        1.40578175       1.11743779      29.26369040        0       0.00000000       0.00681886       0.02178688      -0.00282393
H        2.28596400      -0.47361702      29.26003454        0       0.00000000       0.01477997      -0.01794351       0.01459110
H        0.52507447      -0.47132916      29.25065689        0       0.00000000      -0.00566087      -0.01437398      -0.01183498
