40
Lattice="8.421641763931781 0.0 0.0 4.2108208819658905 7.293355709136913 0.0 0.0 0.0 46.87624170604845" Properties=species:S:1:pos:R:3:tags:I:1:initial_magmoms:R:1:forces:R:3 charge=0 spin=0 energy=-206.8943169290515 free_energy=-206.8943169290515 stress="0.010363922454416752 -9.257315468857996e-06 -7.714015737292357e-06 -9.257315468857996e-06 0.0102654118090868 1.4174976968206465e-05 -7.714015737292357e-06 1.4174976968206465e-05 -0.00041087291901931167" pbc="T T T"
Pt      -0.00000001       0.00000004      19.95723550        4       0.00000000       0.00009774      -0.00161924       0.01313707
Pt       2.80721400      -0.00000009      19.95723557        4       0.00000000      -0.00133599      -0.00667547       0.01696242
Pt       5.61442776      -0.00000012      19.95723555        4       0.00000000       0.00217859      -0.00477977       0.01926129
Pt       1.40360718       2.43111835      19.95723542        4       0.00000000      -0.00380600      -0.00139756       0.01933765
Pt       4.21082079       2.43111843      19.95723552        4       0.00000000       0.00023262      -0.00147287       0.02518458
Pt       7.01803481       2.43111844      19.95723550        4       0.00000000       0.00554855      -0.00071305       0.01723282
Pt       2.80721421       4.86223734      19.95723529        4       0.00000000      -0.00332949       0.00255196       0.01755686
Pt       5.61442795       4.86223729      19.95723542        4       0.00000000       0.00225122       0.00160704       0.01940616
Pt       8.42164148       4.86223724      19.95723551        4       0.00000000      -0.00009098       0.00024988      -0.03693889
Pt       1.40360717       0.81037261      22.29206804        3       0.00000000      -0.00067233      -0.01029860      -0.00491095
Pt       4.21082121       0.81037256      22.29206808        3       0.00000000       0.00380063      -0.01633977      -0.06728660
Pt       7.01803485       0.81037259      22.29206811        3       0.00000000       0.00473254      -0.00349522      -0.00192404
Pt       2.80721434       3.24149110      22.29206780        3       0.00000000      -0.01207525      -0.00421306      -0.06545492
Pt       5.61442775       3.24149130      22.29206801        3       0.00000000       0.00830429       0.00321166      -0.06690412
Pt       8.42164144       3.24149143      22.29206808        3       0.00000000      -0.00160251       0.07221038      -0.15141755
Pt       4.21082099       5.67261006      22.29206776        3       0.00000000      -0.00249127      -0.00441538      -0.00639789
Pt       7.01803485       5.67260985      22.29206778        3       0.00000000       0.06453791      -0.04070458      -0.14833784
Pt       9.82524820       5.67261061      22.29206807        3       0.00000000      -0.06454704      -0.04417009      -0.14667858
Pt      -0.00000053       1.62074559      24.58417356        2       0.00000000      -0.00766763      -0.22906546       0.26164830
Pt       2.80721447       1.62074548      24.58417379        2       0.00000000      -0.00707317       0.02206025      -0.02659916
Pt       5.61442782       1.62074544      24.58417375        2       0.00000000       0.00742813       0.01293323      -0.01538542
Pt       1.40360648       4.05186445      24.58417388        2       0.00000000      -0.01587562       0.02482396      -0.06181644
Pt       4.21082098       4.05186402      24.58417384        2       0.00000000      -0.00226312       0.03094243      -0.02653645
Pt       7.01803473       4.05186413      24.58417382        2       0.00000000       0.01264000       0.02736877      -0.05838486
Pt       2.80721282       6.48298339      24.58417358        2       0.00000000       0.20057043       0.13593616       0.24161901
Pt       5.61442787       6.48298335      24.58417389        2       0.00000000      -0.20581451       0.14228500       0.23477679
Pt       8.42164231       6.48298348      24.58417365        2       0.00000000       0.01143558      -0.00053409      -0.05729083
Pt      -0.00537026       0.01761608      27.13491318        1       0.00000000       0.00834153      -0.00071537       0.00683093
Pt       2.81235296       0.02174658      26.89163327        1       0.00000000      -0.01659657      -0.01615944       0.01673103
Pt       5.61283134       0.02346467      26.89851172        1       0.00000000       0.00212892      -0.01690781       0.00466400
Pt       1.39917556       2.45437575      26.89445668        1       0.00000000      -0.00234755      -0.02395950       0.01219738
Pt       4.21133050       2.46258503      26.90767415        1       0.00000000      -0.00615748      -0.04050423      -0.00136299
Pt       7.01876012       2.45906513      26.89987882        1       0.00000000       0.00645562      -0.02303540      -0.01142468
Pt       2.79818228       4.88506136      26.89813514        1       0.00000000       0.00977795      -0.00140001      -0.00507051
Pt       5.61725002       4.88732857      26.89416118        1       0.00000000      -0.00412349       0.00033077       0.01539088
Pt       8.42155030       4.88389068      26.91467993        1       0.00000000      -0.00445191      -0.00095831      -0.00103761
C        0.00037867       0.01197198      29.21787959        0       1.00000000       0.04224255       0.01180165      -0.01221623
H       -0.50743512       0.92437720      29.55954737        0       0.00000000      -0.00745364       0.03764959       0.02132484
H        1.04986496      -0.00079297      29.54674222        0       0.00000000      -0.00539587       0.00720080       0.02716907
H       -0.52982825      -0.88243591      29.57317125        0       0.00000000      -0.01753319      -0.03962912      -0.01705430
