40
Lattice="8.421641763931781 0.0 0.0 4.2108208819658905 7.293355709136913 0.0 0.0 0.0 46.87624170604845" Properties=species:S:1:pos:R:3:tags:I:1:initial_magmoms:R:1:forces:R:3 charge=0 spin=0 energy=-206.15309836215698 free_energy=-206.15309836215698 stress="0.01053161546587944 1.0090639989357442e-05 -2.5569827144522606e-08 1.0090639989357442e-05 0.00969974510371685 0.00012293261534068733 -2.5569827144522606e-08 0.00012293261534068733 -0.00025285783340223134" pbc="T T T"
Pt      -0.00000001       0.00000004      19.95723550        4       0.00000000       0.00093718      -0.00064238       0.01642977
Pt       2.80721400      -0.00000009      19.95723557        4       0.00000000      -0.00003006      -0.00214334       0.01559635
Pt       5.61442776      -0.00000012      19.95723555        4       0.00000000       0.00046103      -0.00835224       0.02645415
Pt       1.40360718       2.43111835      19.95723542        4       0.00000000      -0.00074026       0.00151315       0.02274025
Pt       4.21082079       2.43111843      19.95723552        4       0.00000000      -0.00005915       0.00093367       0.02325233
Pt       7.01803481       2.43111844      19.95723550        4       0.00000000       0.00086066       0.00229698       0.02002984
Pt       2.80721421       4.86223734      19.95723529        4       0.00000000       0.01495168       0.00178380      -0.00115426
Pt       5.61442795       4.86223729      19.95723542        4       0.00000000      -0.00088466       0.00410470       0.01336623
Pt       8.42164148       4.86223724      19.95723551        4       0.00000000      -0.01495362       0.00359227      -0.00277132
Pt       1.40360717       0.81037261      22.29206804        3       0.00000000       0.00296998       0.01782460      -0.02975007
Pt       4.21082121       0.81037256      22.29206808        3       0.00000000       0.00006051      -0.00705481      -0.03631653
Pt       7.01803485       0.81037259      22.29206811        3       0.00000000       0.00446960       0.00034574      -0.03377482
Pt       2.80721434       3.24149110      22.29206780        3       0.00000000      -0.00436712       0.04323018      -0.09398439
Pt       5.61442775       3.24149130      22.29206801        3       0.00000000      -0.00041268       0.00595255      -0.07056408
Pt       8.42164144       3.24149143      22.29206808        3       0.00000000       0.00318907       0.04561676      -0.09487829
Pt       4.21082099       5.67261006      22.29206776        3       0.00000000      -0.02135905      -0.01080489      -0.06553265
Pt       7.01803485       5.67260985      22.29206778        3       0.00000000       0.02084257      -0.00657106      -0.06686432
Pt       9.82524820       5.67261061      22.29206807        3       0.00000000       0.00127569      -0.04046409      -0.10852862
Pt      -0.00000053       1.62074559      24.58417356        2       0.00000000      -0.03937341      -0.14644727       0.07408246
Pt       2.80721447       1.62074548      24.58417379        2       0.00000000       0.03946973      -0.14255972       0.06552783
Pt       5.61442782       1.62074544      24.58417375        2       0.00000000      -0.00597088      -0.02038519      -0.01313179
Pt       1.40360648       4.05186445      24.58417388        2       0.00000000      -0.00269887       0.07249045      -0.19159822
Pt       4.21082098       4.05186402      24.58417384        2       0.00000000      -0.05338917      -0.02847966      -0.10508863
Pt       7.01803473       4.05186413      24.58417382        2       0.00000000       0.05675687      -0.01976134      -0.10649531
Pt       2.80721282       6.48298339      24.58417358        2       0.00000000       0.18489023       0.12331643       0.33431703
Pt       5.61442787       6.48298335      24.58417389        2       0.00000000       0.00569505       0.06895516       0.09024759
Pt       8.42164231       6.48298348      24.58417365        2       0.00000000      -0.19178310       0.13710059       0.33677462
Pt       0.02276087      -0.03218127      27.00845262        1       0.00000000      -0.04172872      -0.00853202      -0.00720910
Pt       2.78128964      -0.03281499      27.01142626        1       0.00000000       0.03764666      -0.00547646      -0.00933395
Pt       5.61400125      -0.01192510      26.91333394        1       0.00000000      -0.00060720      -0.00051028      -0.03818917
Pt       1.40283424       2.47131531      26.87009615        1       0.00000000      -0.00123243       0.00737914      -0.01362681
Pt       4.21004064       2.41175732      26.90948726        1       0.00000000      -0.00196534      -0.02836152       0.00470747
Pt       7.01716340       2.41313067      26.90902904        1       0.00000000       0.00123330      -0.03274079       0.00536877
Pt       2.80454688       4.85354034      26.91438144        1       0.00000000      -0.00334794       0.00841838       0.01323487
Pt       5.61418465       4.79899876      26.87992057        1       0.00000000      -0.00049003      -0.03533446       0.00792298
Pt       8.42474405       4.85497497      26.91398259        1       0.00000000       0.00063890       0.00830092       0.01333904
C        1.40430519      -0.04901776      28.90206261        0       1.00000000       0.00364874      -0.03281418      -0.01455494
H        2.28361782       0.52871533      29.24790597        0       0.00000000       0.02901231       0.01770986       0.02431335
H        1.40304122      -1.06126302      29.32067240        0       0.00000000       0.00079733      -0.01218370      -0.01943046
H        0.52518585       0.53038488      29.24611252        0       0.00000000      -0.02441317       0.01875416       0.01507250
