40
Lattice="8.421641763931781 0.0 0.0 4.2108208819658905 7.293355709136913 0.0 0.0 0.0 46.87624170604845" Properties=species:S:1:pos:R:3:tags:I:1:initial_magmoms:R:1:forces:R:3 charge=0 spin=0 energy=-206.8943169290515 free_energy=-206.8943169290515 stress="0.010363922454416752 -9.261382729164325e-06 -7.701850336161442e-06 -9.261382729164325e-06 0.010265403427183628 1.4168048437568359e-05 -7.701850336161442e-06 1.4168048437568359e-05 -0.00041089189471676946" pbc="T T T"
Pt      -0.00000001       0.00000004      19.95723550        4       0.00000000       0.00009786      -0.00161942       0.01313701
Pt       2.80721400      -0.00000009      19.95723557        4       0.00000000      -0.00133559      -0.00667523       0.01696244
Pt       5.61442776      -0.00000012      19.95723555        4       0.00000000       0.00217865      -0.00477962       0.01926112
Pt       1.40360718       2.43111835      19.95723542        4       0.00000000      -0.00380568      -0.00139719       0.01933782
Pt       4.21082079       2.43111843      19.95723552        4       0.00000000       0.00023254      -0.00147278       0.02518466
Pt       7.01803481       2.43111844      19.95723550        4       0.00000000       0.00554870      -0.00071276       0.01723297
Pt       2.80721421       4.86223734      19.95723529        4       0.00000000      -0.00332939       0.00255197       0.01755742
Pt       5.61442795       4.86223729      19.95723542        4       0.00000000       0.00225149       0.00160707       0.01940605
Pt       8.42164148       4.86223724      19.95723551        4       0.00000000      -0.00009111       0.00024980      -0.03693904
Pt       1.40360717       0.81037261      22.29206804        3       0.00000000      -0.00067141      -0.01029850      -0.00491194
Pt       4.21082121       0.81037256      22.29206808        3       0.00000000       0.00380155      -0.01633966      -0.06728668
Pt       7.01803485       0.81037259      22.29206811        3       0.00000000       0.00473361      -0.00349526      -0.00192308
Pt       2.80721434       3.24149110      22.29206780        3       0.00000000      -0.01207381      -0.00421299      -0.06545477
Pt       5.61442775       3.24149130      22.29206801        3       0.00000000       0.00830501       0.00321195      -0.06690419
Pt       8.42164144       3.24149143      22.29206808        3       0.00000000      -0.00160180       0.07220979      -0.15141566
Pt       4.21082099       5.67261006      22.29206776        3       0.00000000      -0.00249078      -0.00441489      -0.00639934
Pt       7.01803485       5.67260985      22.29206778        3       0.00000000       0.06453831      -0.04070499      -0.14833769
Pt       9.82524820       5.67261061      22.29206807        3       0.00000000      -0.06454626      -0.04417039      -0.14667857
Pt      -0.00000053       1.62074559      24.58417356        2       0.00000000      -0.00767101      -0.22906603       0.26164043
Pt       2.80721447       1.62074548      24.58417379        2       0.00000000      -0.00707511       0.02205622      -0.02659637
Pt       5.61442782       1.62074544      24.58417375        2       0.00000000       0.00742409       0.01293075      -0.01539217
Pt       1.40360648       4.05186445      24.58417388        2       0.00000000      -0.01587758       0.02482566      -0.06182193
Pt       4.21082098       4.05186402      24.58417384        2       0.00000000      -0.00226765       0.03094239      -0.02653130
Pt       7.01803473       4.05186413      24.58417382        2       0.00000000       0.01263881       0.02737026      -0.05839101
Pt       2.80721282       6.48298339      24.58417358        2       0.00000000       0.20056751       0.13593508       0.24161869
Pt       5.61442787       6.48298335      24.58417389        2       0.00000000      -0.20580895       0.14228140       0.23478062
Pt       8.42164231       6.48298348      24.58417365        2       0.00000000       0.01143002      -0.00053358      -0.05728569
Pt      -0.00537383       0.01761490      27.13490781        1       0.00000000       0.00835575      -0.00072093       0.00682127
Pt       2.81235125       0.02174695      26.89163754        1       0.00000000      -0.01660180      -0.01616791       0.01671295
Pt       5.61282815       0.02346479      26.89851107        1       0.00000000       0.00212675      -0.01691483       0.00466504
Pt       1.39917092       2.45437568      26.89445551        1       0.00000000      -0.00233649      -0.02396476       0.01220342
Pt       4.21132807       2.46258246      26.90767435        1       0.00000000      -0.00616656      -0.04049467      -0.00136236
Pt       7.01875478       2.45906431      26.89987753        1       0.00000000       0.00646426      -0.02303708      -0.01141510
Pt       2.79817676       4.88506196      26.89813470        1       0.00000000       0.00979288      -0.00140642      -0.00507289
Pt       5.61724875       4.88732426      26.89416103        1       0.00000000      -0.00413218       0.00035025       0.01538770
Pt       8.42154704       4.88388827      26.91468017        1       0.00000000      -0.00445143      -0.00094749      -0.00103564
C        0.00038343       0.01197192      29.21787532        0       1.00000000       0.04225989       0.01178573      -0.01218436
H        1.04986970      -0.00079156      29.54673968        0       0.00000000      -0.00542990       0.00720697       0.02714829
H       -0.52982331      -0.88243505      29.57316773        0       0.00000000      -0.01753164      -0.03963624      -0.01705477
H       -0.50743314       0.92437583      29.55954004        0       0.00000000      -0.00745134       0.03766825       0.02133650
