40
Lattice="8.421641763931781 0.0 0.0 4.2108208819658905 7.293355709136913 0.0 0.0 0.0 46.87624170604845" Properties=species:S:1:pos:R:3:tags:I:1:initial_magmoms:R:1:forces:R:3 charge=0 spin=0 energy=-206.89762808627808 free_energy=-206.89762808627808 stress="0.010384813882410526 -3.7789268390042707e-06 2.039267201325856e-06 -3.7789268390042707e-06 0.01035851240158081 1.1884026207553688e-05 2.039267201325856e-06 1.1884026207553688e-05 -0.00032402854412794113" pbc="T T T"
Pt      -0.00000001       0.00000004      19.95723550        4       0.00000000       0.00198787      -0.00379659       0.01915875
Pt       2.80721400      -0.00000009      19.95723557        4       0.00000000      -0.00005291      -0.00027818       0.01332369
Pt       5.61442776      -0.00000012      19.95723555        4       0.00000000      -0.00171311      -0.00529411       0.01720551
Pt       1.40360718       2.43111835      19.95723542        4       0.00000000       0.00520939       0.00023546       0.01718706
Pt       4.21082079       2.43111843      19.95723552        4       0.00000000      -0.00382960      -0.00054761       0.01916345
Pt       7.01803481       2.43111844      19.95723550        4       0.00000000      -0.00002452      -0.00027321       0.02533123
Pt       2.80721421       4.86223734      19.95723529        4       0.00000000       0.00029636      -0.00022088      -0.03662958
Pt       5.61442795       4.86223729      19.95723542        4       0.00000000      -0.00315905       0.00373351       0.01723341
Pt       8.42164148       4.86223724      19.95723551        4       0.00000000       0.00175980       0.00304194       0.01927768
Pt       1.40360717       0.81037261      22.29206804        3       0.00000000       0.00292949       0.00067298      -0.00248226
Pt       4.21082121       0.81037256      22.29206808        3       0.00000000      -0.00045373      -0.00470401      -0.00226900
Pt       7.01803485       0.81037259      22.29206811        3       0.00000000       0.00442559      -0.01259046      -0.06681137
Pt       2.80721434       3.24149110      22.29206780        3       0.00000000      -0.00195853       0.07480986      -0.15146957
Pt       5.61442775       3.24149130      22.29206801        3       0.00000000      -0.01246607       0.00026279      -0.06741004
Pt       8.42164144       3.24149143      22.29206808        3       0.00000000       0.00746743       0.00830184      -0.06743237
Pt       4.21082099       5.67261006      22.29206776        3       0.00000000      -0.06439994      -0.04073556      -0.14943288
Pt       7.01803485       5.67260985      22.29206778        3       0.00000000      -0.00299069       0.00053875      -0.00258464
Pt       9.82524820       5.67261061      22.29206807        3       0.00000000       0.06675090      -0.03812173      -0.15026246
Pt      -0.00000053       1.62074559      24.58417356        2       0.00000000       0.00709276      -0.00032616      -0.02712062
Pt       2.80721447       1.62074548      24.58417379        2       0.00000000      -0.00367983      -0.24312426       0.25365043
Pt       5.61442782       1.62074544      24.58417375        2       0.00000000      -0.00660881       0.00033960      -0.02348624
Pt       1.40360648       4.05186445      24.58417388        2       0.00000000       0.00852607       0.01554598      -0.04796129
Pt       4.21082098       4.05186402      24.58417384        2       0.00000000      -0.00936357       0.01248083      -0.04836916
Pt       7.01803473       4.05186413      24.58417382        2       0.00000000       0.00065885       0.01381748      -0.01163145
Pt       2.80721282       6.48298339      24.58417358        2       0.00000000       0.00171061      -0.00796403      -0.05221626
Pt       5.61442787       6.48298335      24.58417389        2       0.00000000       0.21832339       0.12150467       0.25449067
Pt       8.42164231       6.48298348      24.58417365        2       0.00000000      -0.21375898       0.12988605       0.25652093
Pt       0.00330786       0.00208904      26.89540531        1       0.00000000      -0.00708939      -0.00129952       0.00763584
Pt       2.80980645       0.00881967      27.14688885        1       0.00000000      -0.01049074      -0.00866479       0.00331883
Pt       5.61460961       0.00197498      26.89655994        1       0.00000000       0.00127892      -0.00311311       0.00788261
Pt       1.40437979       2.43977723      26.89602573        1       0.00000000       0.01155582      -0.00195056       0.00447427
Pt       4.20829065       2.43867706      26.89491456        1       0.00000000       0.00327468      -0.00003914       0.00742916
Pt       7.01925823       2.43314009      26.90684786        1       0.00000000      -0.00410135       0.01522593      -0.00151242
Pt       2.80820760       4.86973046      26.91365282        1       0.00000000      -0.00133230      -0.00894148      -0.00336547
Pt       5.61240196       4.86909780      26.90002760        1       0.00000000       0.00375394      -0.00015877      -0.00775231
Pt       8.42403811       4.87137361      26.89875075        1       0.00000000      -0.00415958      -0.00905082      -0.00374904
C        2.79903885       0.02090648      29.23070213        0       1.00000000       0.02495040      -0.04025268       0.00789682
H        2.84265453       1.06656656      29.56877754        0       0.00000000      -0.00129289       0.00272544      -0.00224293
H        3.67912378      -0.53982344      29.58242775        0       0.00000000      -0.02474468       0.02015424      -0.02126856
H        1.87025915      -0.46127686      29.57052999        0       0.00000000       0.00571817       0.00817042      -0.00372045
