40
Lattice="8.421641763931781 0.0 0.0 4.2108208819658905 7.293355709136913 0.0 0.0 0.0 46.87624170604845" Properties=species:S:1:pos:R:3:tags:I:1:initial_magmoms:R:1:forces:R:3 charge=0 spin=0 energy=-206.89427878207886 free_energy=-206.89427878207886 stress="0.010373622179031372 2.1358438971219584e-05 1.7042182662407868e-05 2.1358438971219584e-05 0.010296555235981941 3.755404759431258e-05 1.7042182662407868e-05 3.755404759431258e-05 -0.00039149314397946" pbc="T T T"
Pt      -0.00000001       0.00000004      19.95723550        4       0.00000000      -0.00065757      -0.00099047       0.01321080
Pt       2.80721400      -0.00000009      19.95723557        4       0.00000000      -0.00328419      -0.00548341       0.01709412
Pt       5.61442776      -0.00000012      19.95723555        4       0.00000000       0.00113107      -0.00433258       0.01924248
Pt       1.40360718       2.43111835      19.95723542        4       0.00000000      -0.00457559      -0.00063664       0.01899927
Pt       4.21082079       2.43111843      19.95723552        4       0.00000000      -0.00079961      -0.00047190       0.02529340
Pt       7.01803481       2.43111844      19.95723550        4       0.00000000       0.00442291      -0.00006831       0.01744181
Pt       2.80721421       4.86223734      19.95723529        4       0.00000000      -0.00418296       0.00315451       0.01726019
Pt       5.61442795       4.86223729      19.95723542        4       0.00000000       0.00143676       0.00247589       0.01917414
Pt       8.42164148       4.86223724      19.95723551        4       0.00000000       0.00001151      -0.00005238      -0.03717288
Pt       1.40360717       0.81037261      22.29206804        3       0.00000000      -0.00425951      -0.00671795      -0.00171546
Pt       4.21082121       0.81037256      22.29206808        3       0.00000000       0.00068032      -0.01434210      -0.06839213
Pt       7.01803485       0.81037259      22.29206811        3       0.00000000      -0.00024539      -0.00095878      -0.00623659
Pt       2.80721434       3.24149110      22.29206780        3       0.00000000      -0.01540811      -0.00107324      -0.06380677
Pt       5.61442775       3.24149130      22.29206801        3       0.00000000       0.00613125       0.00671127      -0.06367198
Pt       8.42164144       3.24149143      22.29206808        3       0.00000000      -0.00441361       0.07498884      -0.15239659
Pt       4.21082099       5.67261006      22.29206776        3       0.00000000      -0.00614196      -0.00013481      -0.00358592
Pt       7.01803485       5.67260985      22.29206778        3       0.00000000       0.06391682      -0.03801089      -0.15073454
Pt       9.82524820       5.67261061      22.29206807        3       0.00000000      -0.06673146      -0.04053532      -0.14877883
Pt      -0.00000053       1.62074559      24.58417356        2       0.00000000       0.01064787      -0.23641263       0.25266263
Pt       2.80721447       1.62074548      24.58417379        2       0.00000000       0.00197899       0.00858181      -0.02344153
Pt       5.61442782       1.62074544      24.58417375        2       0.00000000       0.02090158       0.01511907      -0.01960338
Pt       1.40360648       4.05186445      24.58417388        2       0.00000000       0.00282615       0.01174917      -0.06548689
Pt       4.21082098       4.05186402      24.58417384        2       0.00000000       0.00830346       0.02091667      -0.02719461
Pt       7.01803473       4.05186413      24.58417382        2       0.00000000       0.01046261       0.01048952      -0.05961956
Pt       2.80721282       6.48298339      24.58417358        2       0.00000000       0.22645648       0.12356832       0.24571495
Pt       5.61442787       6.48298335      24.58417389        2       0.00000000      -0.20528901       0.13172451       0.25697005
Pt       8.42164231       6.48298348      24.58417365        2       0.00000000       0.00966522      -0.00711697      -0.07392402
Pt       0.01183794       0.01779738      27.14329323        1       0.00000000      -0.00075002      -0.01729299       0.00239989
Pt       2.82107314       0.00755419      26.89360558        1       0.00000000      -0.01262992      -0.01003861       0.00729360
Pt       5.62265759       0.00944940      26.88851002        1       0.00000000       0.01914441      -0.00894914       0.03992761
Pt       1.41878288       2.44626885      26.89755375        1       0.00000000      -0.01435739      -0.02372910       0.01156133
Pt       4.22565672       2.44800411      26.90741580        1       0.00000000      -0.00512822      -0.02848275      -0.00137604
Pt       7.04297451       2.44229588      26.90145239        1       0.00000000      -0.04406660       0.00001733      -0.01661855
Pt       2.81500876       4.87385363      26.89994971        1       0.00000000      -0.00090569       0.01345093      -0.00879766
Pt       5.62475378       4.87040041      26.89652017        1       0.00000000       0.00582216       0.02568471       0.00554002
Pt       8.43122785       4.86815036      26.90527600        1       0.00000000       0.00164937       0.02150570       0.02910660
C        0.02374086       0.01947154      29.22702540        0       1.00000000       0.03641568      -0.01801800       0.00017678
H       -0.50312857       0.91485461      29.58803465        0       0.00000000       0.00001637       0.01860223      -0.03609002
H        1.07403636       0.02437987      29.55835177        0       0.00000000      -0.04887895      -0.00733044       0.00357770
H       -0.49091012      -0.89270300      29.56168117        0       0.00000000       0.01068511      -0.01756125       0.02599643
