40
Lattice="8.421641763931781 0.0 0.0 4.2108208819658905 7.293355709136913 0.0 0.0 0.0 46.87624170604845" Properties=species:S:1:pos:R:3:tags:I:1:initial_magmoms:R:1:forces:R:3 charge=0 spin=0 energy=-206.89475943393433 free_energy=-206.89475943393433 stress="0.01036518719047308 -2.762620169960428e-06 -1.5403389852508553e-06 -2.762620169960428e-06 0.010314449667930603 -7.732368203505757e-07 -1.5403389852508553e-06 -7.732368203505757e-07 -0.0003378979454282671" pbc="T T T"
Pt      -0.00000001       0.00000004      19.95723550        4       0.00000000       0.00170216      -0.00460756       0.01938432
Pt       2.80721400      -0.00000009      19.95723557        4       0.00000000       0.00039051      -0.00068373       0.01322185
Pt       5.61442776      -0.00000012      19.95723555        4       0.00000000      -0.00169096      -0.00600635       0.01715795
Pt       1.40360718       2.43111835      19.95723542        4       0.00000000       0.00529307       0.00001980       0.01735496
Pt       4.21082079       2.43111843      19.95723552        4       0.00000000      -0.00413871      -0.00093580       0.01906738
Pt       7.01803481       2.43111844      19.95723550        4       0.00000000       0.00042773      -0.00109020       0.02515892
Pt       2.80721421       4.86223734      19.95723529        4       0.00000000       0.00024840      -0.00036172      -0.03667621
Pt       5.61442795       4.86223729      19.95723542        4       0.00000000      -0.00331905       0.00293964       0.01753522
Pt       8.42164148       4.86223724      19.95723551        4       0.00000000       0.00194582       0.00243165       0.01934096
Pt       1.40360717       0.81037261      22.29206804        3       0.00000000       0.00313772      -0.00176527      -0.00479774
Pt       4.21082121       0.81037256      22.29206808        3       0.00000000      -0.00139835      -0.00683736      -0.00227819
Pt       7.01803485       0.81037259      22.29206811        3       0.00000000       0.00456217      -0.01396908      -0.06586247
Pt       2.80721434       3.24149110      22.29206780        3       0.00000000      -0.00193908       0.07256064      -0.14983031
Pt       5.61442775       3.24149130      22.29206801        3       0.00000000      -0.01186832      -0.00200029      -0.06794286
Pt       8.42164144       3.24149143      22.29206808        3       0.00000000       0.00719265       0.00582101      -0.06750202
Pt       4.21082099       5.67261006      22.29206776        3       0.00000000      -0.06464254      -0.04295641      -0.14755203
Pt       7.01803485       5.67260985      22.29206778        3       0.00000000      -0.00242115      -0.00210806      -0.00549234
Pt       9.82524820       5.67261061      22.29206807        3       0.00000000       0.06574059      -0.03984388      -0.14943746
Pt      -0.00000053       1.62074559      24.58417356        2       0.00000000       0.00794375       0.00758096      -0.00737191
Pt       2.80721447       1.62074548      24.58417379        2       0.00000000      -0.00419020      -0.23614049       0.26450589
Pt       5.61442782       1.62074544      24.58417375        2       0.00000000      -0.00744100       0.00644703      -0.02928627
Pt       1.40360648       4.05186445      24.58417388        2       0.00000000       0.01261991       0.01719966      -0.05643610
Pt       4.21082098       4.05186402      24.58417384        2       0.00000000      -0.01555850       0.02244874      -0.05087467
Pt       7.01803473       4.05186413      24.58417382        2       0.00000000       0.00044599       0.02121588      -0.00785905
Pt       2.80721282       6.48298339      24.58417358        2       0.00000000       0.00665677      -0.00209199      -0.05009076
Pt       5.61442787       6.48298335      24.58417389        2       0.00000000       0.20545129       0.12507969       0.25118503
Pt       8.42164231       6.48298348      24.58417365        2       0.00000000      -0.20458722       0.13881251       0.24497630
Pt       0.00159894       0.01195843      26.90064040        1       0.00000000      -0.00539812      -0.00352893      -0.01634471
Pt       2.80590388       0.00173526      27.13805037        1       0.00000000       0.00248664       0.03558060       0.01925118
Pt       5.61889461       0.01558758      26.89670677        1       0.00000000      -0.02059997      -0.02064748       0.01475445
Pt       1.40713621       2.44882822      26.89731171        1       0.00000000       0.00426914      -0.02622975      -0.00167328
Pt       4.21157787       2.44789761      26.89603838        1       0.00000000      -0.02530050      -0.01695123      -0.00044260
Pt       7.01325868       2.44591281      26.90943811        1       0.00000000       0.03114028      -0.00241091      -0.00866185
Pt       2.80297620       4.88006344      26.91485232        1       0.00000000       0.02145893      -0.02170688      -0.00313222
Pt       5.60788784       4.87455420      26.90013554        1       0.00000000       0.01107709       0.00945778      -0.00482414
Pt       8.43031011       4.88067329      26.89655772        1       0.00000000      -0.02470901      -0.02751357      -0.00183122
C        2.80109402       0.00786381      29.22269502        0       1.00000000       0.02605569       0.02007742      -0.03146616
H        1.75653953       0.01256316      29.56323197        0       0.00000000      -0.03425065      -0.00246814       0.01238758
H        3.32443557       0.91567721      29.55381022        0       0.00000000       0.00617313       0.03098216       0.02593256
H        3.32428719      -0.89103824      29.57779175        0       0.00000000       0.00703392      -0.03580028      -0.01354816
