40
Lattice="8.421641763931781 0.0 0.0 4.2108208819658905 7.293355709136913 0.0 0.0 0.0 46.87624170604845" Properties=species:S:1:pos:R:3:tags:I:1:initial_magmoms:R:1:forces:R:3 charge=0 spin=0 energy=-206.15442206210815 free_energy=-206.15442206210815 stress="0.010451638139784336 1.055625489243539e-05 -1.4507554624287877e-05 1.055625489243539e-05 0.009673080407083035 7.585932326037437e-05 -1.4507554624287877e-05 7.585932326037437e-05 -0.00031907562515698373" pbc="T T T"
Pt      -0.00000001       0.00000004      19.95723550        4       0.00000000       0.00168825       0.00169323       0.01682118
Pt       2.80721400      -0.00000009      19.95723557        4       0.00000000      -0.00037464       0.00071747       0.01624510
Pt       5.61442776      -0.00000012      19.95723555        4       0.00000000       0.00051782      -0.00712845       0.02622041
Pt       1.40360718       2.43111835      19.95723542        4       0.00000000      -0.00100188       0.00318692       0.02291510
Pt       4.21082079       2.43111843      19.95723552        4       0.00000000      -0.00013192       0.00352460       0.02219561
Pt       7.01803481       2.43111844      19.95723550        4       0.00000000       0.00129317       0.00447710       0.01942533
Pt       2.80721421       4.86223734      19.95723529        4       0.00000000       0.01561022      -0.00059335      -0.00201653
Pt       5.61442795       4.86223729      19.95723542        4       0.00000000      -0.00110432       0.00512379       0.01304309
Pt       8.42164148       4.86223724      19.95723551        4       0.00000000      -0.01581226       0.00166014      -0.00188399
Pt       1.40360717       0.81037261      22.29206804        3       0.00000000       0.00283792       0.02051279      -0.03324514
Pt       4.21082121       0.81037256      22.29206808        3       0.00000000       0.00196291      -0.00280940      -0.03990990
Pt       7.01803485       0.81037259      22.29206811        3       0.00000000       0.00213324       0.00514197      -0.03814335
Pt       2.80721434       3.24149110      22.29206780        3       0.00000000      -0.00220495       0.04161241      -0.08968540
Pt       5.61442775       3.24149130      22.29206801        3       0.00000000      -0.00086539       0.01226695      -0.06847946
Pt       8.42164144       3.24149143      22.29206808        3       0.00000000       0.00233694       0.04294882      -0.08915161
Pt       4.21082099       5.67261006      22.29206776        3       0.00000000      -0.02307348      -0.00440981      -0.06647001
Pt       7.01803485       5.67260985      22.29206778        3       0.00000000       0.02208028      -0.00105809      -0.06683943
Pt       9.82524820       5.67261061      22.29206807        3       0.00000000       0.00296461      -0.04095903      -0.10674690
Pt      -0.00000053       1.62074559      24.58417356        2       0.00000000      -0.04761366      -0.14938529       0.05014773
Pt       2.80721447       1.62074548      24.58417379        2       0.00000000       0.04663141      -0.15161195       0.04668660
Pt       5.61442782       1.62074544      24.58417375        2       0.00000000      -0.00572853      -0.02341891      -0.02787648
Pt       1.40360648       4.05186445      24.58417388        2       0.00000000      -0.00296809       0.05209471      -0.18328984
Pt       4.21082098       4.05186402      24.58417384        2       0.00000000      -0.04367366      -0.04879794      -0.09779827
Pt       7.01803473       4.05186413      24.58417382        2       0.00000000       0.04912746      -0.04351586      -0.09893666
Pt       2.80721282       6.48298339      24.58417358        2       0.00000000       0.19554007       0.09872142       0.30341241
Pt       5.61442787       6.48298335      24.58417389        2       0.00000000       0.00610889       0.03654868       0.08081073
Pt       8.42164231       6.48298348      24.58417365        2       0.00000000      -0.20738213       0.11743725       0.31554621
Pt       0.01455412      -0.04768153      26.99717822        1       0.00000000       0.01840745      -0.00807397       0.02109739
Pt       2.78873721      -0.04737201      27.00188570        1       0.00000000      -0.03292963      -0.00555958       0.03284229
Pt       5.61424335      -0.03769961      26.90342532        1       0.00000000      -0.00495180       0.03158244       0.01231080
Pt       1.40225343       2.45551091      26.86779215        1       0.00000000      -0.00137517       0.02329826      -0.00451770
Pt       4.21327355       2.38814496      26.91311081        1       0.00000000      -0.01727246       0.01792986      -0.00103844
Pt       7.01357452       2.38817750      26.91282101        1       0.00000000       0.01231503       0.01704645      -0.00242743
Pt       2.80801590       4.83193420      26.91347515        1       0.00000000      -0.01317482       0.00497626       0.01759039
Pt       5.61377023       4.77922529      26.88506633        1       0.00000000      -0.00003918      -0.03285479      -0.00431956
Pt       8.41949027       4.83340638      26.91274293        1       0.00000000       0.01155021       0.00471265       0.01693032
C        1.40865224       0.09001105      28.88429627        0       1.00000000       0.01264436      -0.01652754      -0.01135610
H        0.52507426      -0.47132926      29.25065721        0       0.00000000      -0.00564045      -0.01436195      -0.01184763
H        1.40578163       1.11743780      29.26369015        0       0.00000000       0.00681857       0.02177606      -0.00283197
H        2.28596430      -0.47361713      29.26003423        0       0.00000000       0.01474940      -0.01792444       0.01457125
