40
Lattice="8.421641763931781 0.0 0.0 4.2108208819658905 7.293355709136913 0.0 0.0 0.0 46.87624170604845" Properties=species:S:1:pos:R:3:tags:I:1:initial_magmoms:R:1:forces:R:3 charge=0 spin=0 energy=-206.89686323947632 free_energy=-206.89686323947632 stress="0.010386615060269833 5.783428150607506e-06 7.854127034079283e-06 5.783428150607506e-06 0.010344523005187511 2.6464265829417855e-05 7.854127034079283e-06 2.6464265829417855e-05 -0.00032857173937372863" pbc="T T T"
Pt      -0.00000001       0.00000004      19.95723550        4       0.00000000      -0.00033155      -0.00065478       0.01329827
Pt       2.80721400      -0.00000009      19.95723557        4       0.00000000      -0.00228610      -0.00564645       0.01705339
Pt       5.61442776      -0.00000012      19.95723555        4       0.00000000       0.00142244      -0.00428856       0.01927537
Pt       1.40360718       2.43111835      19.95723542        4       0.00000000      -0.00417585      -0.00114771       0.01918763
Pt       4.21082079       2.43111843      19.95723552        4       0.00000000      -0.00041773      -0.00079811       0.02530080
Pt       7.01803481       2.43111844      19.95723550        4       0.00000000       0.00477437      -0.00033237       0.01720576
Pt       2.80721421       4.86223734      19.95723529        4       0.00000000      -0.00387234       0.00327366       0.01735826
Pt       5.61442795       4.86223729      19.95723542        4       0.00000000       0.00146028       0.00241400       0.01946362
Pt       8.42164148       4.86223724      19.95723551        4       0.00000000       0.00000136      -0.00038426      -0.03668035
Pt       1.40360717       0.81037261      22.29206804        3       0.00000000      -0.00249656      -0.00682082      -0.00032052
Pt       4.21082121       0.81037256      22.29206808        3       0.00000000       0.00228895      -0.01401378      -0.06637114
Pt       7.01803485       0.81037259      22.29206811        3       0.00000000       0.00144449      -0.00101991      -0.00289837
Pt       2.80721434       3.24149110      22.29206780        3       0.00000000      -0.01421853      -0.00085927      -0.06720971
Pt       5.61442775       3.24149130      22.29206801        3       0.00000000       0.00610097       0.00681864      -0.06702644
Pt       8.42164144       3.24149143      22.29206808        3       0.00000000      -0.00360833       0.07373341      -0.15154144
Pt       4.21082099       5.67261006      22.29206776        3       0.00000000      -0.00478991      -0.00131926      -0.00546139
Pt       7.01803485       5.67260985      22.29206778        3       0.00000000       0.06466582      -0.03955214      -0.15090640
Pt       9.82524820       5.67261061      22.29206807        3       0.00000000      -0.06588656      -0.04186588      -0.14870228
Pt      -0.00000053       1.62074559      24.58417356        2       0.00000000       0.00479674      -0.23820801       0.25358388
Pt       2.80721447       1.62074548      24.58417379        2       0.00000000      -0.00265919       0.00280768      -0.02177821
Pt       5.61442782       1.62074544      24.58417375        2       0.00000000       0.01221521       0.00482042      -0.02338573
Pt       1.40360648       4.05186445      24.58417388        2       0.00000000      -0.00496886       0.01488981      -0.05240441
Pt       4.21082098       4.05186402      24.58417384        2       0.00000000       0.00856405       0.01798722      -0.01158239
Pt       7.01803473       4.05186413      24.58417382        2       0.00000000       0.01156153       0.02005911      -0.04726320
Pt       2.80721282       6.48298339      24.58417358        2       0.00000000       0.21718095       0.12878832       0.25475729
Pt       5.61442787       6.48298335      24.58417389        2       0.00000000      -0.20483145       0.13669106       0.26096091
Pt       8.42164231       6.48298348      24.58417365        2       0.00000000       0.01023183      -0.00163415      -0.05064548
Pt       0.00628236       0.01417055      27.14564971        1       0.00000000       0.00581278      -0.00597492       0.00101806
Pt       2.81843578       0.00768942      26.89913237        1       0.00000000      -0.01717619      -0.00476362      -0.00328869
Pt       5.62246684       0.01234515      26.89873088        1       0.00000000      -0.00046255      -0.01823164       0.00190099
Pt       1.41018387       2.44388849      26.89598418        1       0.00000000      -0.00625145      -0.00513508       0.00530953
Pt       4.21800165       2.44068995      26.90698541        1       0.00000000       0.00066598       0.01258555      -0.00139374
Pt       7.02904955       2.44490442      26.89627975        1       0.00000000      -0.00493292       0.00364932      -0.00158662
Pt       2.81056560       4.87593528      26.89821919        1       0.00000000       0.00507982      -0.00139110      -0.00211628
Pt       5.62367103       4.87888878      26.89865667        1       0.00000000      -0.00644005      -0.01179946      -0.00423879
Pt       8.43067980       4.87501420      26.91214447        1       0.00000000      -0.00842794      -0.00730405       0.00204304
C        0.00744472       0.03772343      29.22952813        0       1.00000000       0.00847748       0.00105788      -0.02239697
H       -0.13413214       1.07757821      29.55887399        0       0.00000000       0.00566900      -0.00339781       0.00669909
H        0.97550382      -0.35393747      29.57470173        0       0.00000000       0.00078855       0.00010292       0.00211002
H       -0.81843638      -0.59787582      29.57943054        0       0.00000000      -0.01496862      -0.01313599       0.00267260
