40
Lattice="8.421641763931781 0.0 0.0 4.2108208819658905 7.293355709136913 0.0 0.0 0.0 46.87624170604845" Properties=species:S:1:pos:R:3:tags:I:1:initial_magmoms:R:1:forces:R:3 charge=0 spin=0 energy=-206.8972046548816 free_energy=-206.8972046548816 stress="0.010329058393836021 3.2795642255223356e-06 5.867914296686649e-07 3.2795642255223356e-06 0.010298779234290123 -8.146508662321139e-06 5.867914296686649e-07 -8.146508662321139e-06 -0.00041137661901302636" pbc="T T T"
Pt      -0.00000001       0.00000004      19.95723550        4       0.00000000      -0.00367992       0.00441713       0.01728691
Pt       2.80721400      -0.00000009      19.95723557        4       0.00000000       0.00206654       0.00368906       0.01933267
Pt       5.61442776      -0.00000012      19.95723555        4       0.00000000      -0.00001150      -0.00025252      -0.03716784
Pt       1.40360718       2.43111835      19.95723542        4       0.00000000      -0.00023861      -0.00011584       0.01300054
Pt       4.21082079       2.43111843      19.95723552        4       0.00000000      -0.00218115      -0.00458195       0.01729085
Pt       7.01803481       2.43111844      19.95723550        4       0.00000000       0.00179172      -0.00316830       0.01948769
Pt       2.80721421       4.86223734      19.95723529        4       0.00000000      -0.00423046      -0.00000533       0.01911814
Pt       5.61442795       4.86223729      19.95723542        4       0.00000000      -0.00007597       0.00011807       0.02534278
Pt       8.42164148       4.86223724      19.95723551        4       0.00000000       0.00512416       0.00082699       0.01726068
Pt       1.40360717       0.81037261      22.29206804        3       0.00000000      -0.00305166       0.00200810      -0.00365522
Pt       4.21082121       0.81037256      22.29206808        3       0.00000000       0.06651953      -0.03598427      -0.15097451
Pt       7.01803485       0.81037259      22.29206811        3       0.00000000      -0.06567367      -0.03889884      -0.15001243
Pt       2.80721434       3.24149110      22.29206780        3       0.00000000      -0.00120057      -0.00335977      -0.00255620
Pt       5.61442775       3.24149130      22.29206801        3       0.00000000       0.00344748      -0.00975013      -0.06528171
Pt       8.42164144       3.24149143      22.29206808        3       0.00000000       0.00265155       0.00145130      -0.00270094
Pt       4.21082099       5.67261006      22.29206776        3       0.00000000      -0.01238640       0.00279009      -0.06730689
Pt       7.01803485       5.67260985      22.29206778        3       0.00000000       0.00699733       0.01039070      -0.06664580
Pt       9.82524820       5.67261061      22.29206807        3       0.00000000      -0.00243731       0.07537195      -0.14881204
Pt      -0.00000053       1.62074559      24.58417356        2       0.00000000       0.20804727       0.12328840       0.23697053
Pt       2.80721447       1.62074548      24.58417379        2       0.00000000      -0.20486407       0.12943465       0.23637073
Pt       5.61442782       1.62074544      24.58417375        2       0.00000000       0.00589936      -0.01586528      -0.05286111
Pt       1.40360648       4.05186445      24.58417388        2       0.00000000      -0.00092308      -0.24492382       0.23799960
Pt       4.21082098       4.05186402      24.58417384        2       0.00000000      -0.00315089      -0.01126718      -0.01941011
Pt       7.01803473       4.05186413      24.58417382        2       0.00000000       0.00866625      -0.01272080      -0.01799512
Pt       2.80721282       6.48298339      24.58417358        2       0.00000000      -0.01300604      -0.00019576      -0.05795487
Pt       5.61442787       6.48298335      24.58417389        2       0.00000000       0.00225774       0.00744723      -0.03352135
Pt       8.42164231       6.48298348      24.58417365        2       0.00000000       0.01466161       0.00204365      -0.06008755
Pt      -0.00122162       0.00460491      26.89240090        1       0.00000000      -0.01315009      -0.02781695       0.02117993
Pt       2.81356599       0.00402737      26.89210854        1       0.00000000       0.00165908      -0.02792404       0.02199751
Pt       5.61587356      -0.00799910      26.91198138        1       0.00000000       0.00512629       0.01059025       0.00425330
Pt       1.40487469       2.42190072      27.13611591        1       0.00000000       0.00133103       0.03551553       0.02405188
Pt       4.21493711       2.42228061      26.89856431        1       0.00000000       0.00381296       0.01562181      -0.00261515
Pt       7.01699771       2.42407771      26.89999797        1       0.00000000      -0.00052827       0.01125488      -0.00855135
Pt       2.80935041       4.85635522      26.89469112        1       0.00000000      -0.00578621       0.01571974       0.00590478
Pt       5.61808147       4.86695463      26.90442098        1       0.00000000      -0.00473740      -0.02948877       0.00352753
Pt       8.42718440       4.85638833      26.89571004        1       0.00000000      -0.00091830       0.01728629       0.00356061
C        1.40432194       2.43275241      29.21941857        0       1.00000000       0.00249637       0.01732183       0.01788118
H        1.40664699       1.39129459      29.57046482        0       0.00000000      -0.00260482      -0.04084931      -0.00745831
H        0.49608492       2.95309004      29.55984511        0       0.00000000       0.03491214       0.00877876      -0.00501366
H        2.31153322       2.95566395      29.55831231        0       0.00000000      -0.03263189       0.01180247      -0.00123573
