40
Lattice="8.421641763931781 0.0 0.0 4.2108208819658905 7.293355709136913 0.0 0.0 0.0 46.87624170604845" Properties=species:S:1:pos:R:3:tags:I:1:initial_magmoms:R:1:forces:R:3 charge=0 spin=0 energy=-205.99792029208862 free_energy=-205.99792029208862 stress="0.00984434224665165 1.1830924506739393e-07 4.7833257355023306e-08 1.1830924506739393e-07 0.009838655591011047 3.3317808174615493e-06 4.7833257355023306e-08 3.3317808174615493e-06 -0.000296998507110402" pbc="T T T"
Pt      -0.00000001       0.00000004      19.95723550        4       0.00000000      -0.00074372      -0.00203544       0.01783606
Pt       2.80721400      -0.00000009      19.95723557        4       0.00000000       0.00213310       0.00033227       0.01780523
Pt       5.61442776      -0.00000012      19.95723555        4       0.00000000       0.00167798       0.00714050       0.00676716
Pt       1.40360718       2.43111835      19.95723542        4       0.00000000      -0.00136754       0.00162510       0.01789514
Pt       4.21082079       2.43111843      19.95723552        4       0.00000000       0.00082715      -0.00051237       0.01734641
Pt       7.01803481       2.43111844      19.95723550        4       0.00000000       0.00002299       0.00090425       0.01735447
Pt       2.80721421       4.86223734      19.95723529        4       0.00000000       0.00551558      -0.00510745       0.00671728
Pt       5.61442795       4.86223729      19.95723542        4       0.00000000      -0.00082871      -0.00044864       0.01725324
Pt       8.42164148       4.86223724      19.95723551        4       0.00000000      -0.00719887      -0.00224121       0.00670755
Pt       1.40360717       0.81037261      22.29206804        3       0.00000000       0.00000415       0.00001257      -0.04305423
Pt       4.21082121       0.81037256      22.29206808        3       0.00000000       0.01558306      -0.01115512      -0.07488949
Pt       7.01803485       0.81037259      22.29206811        3       0.00000000      -0.01507143      -0.00764963      -0.07308042
Pt       2.80721434       3.24149110      22.29206780        3       0.00000000       0.00108026       0.01676969      -0.07339365
Pt       5.61442775       3.24149130      22.29206801        3       0.00000000      -0.00001963      -0.00006147      -0.06995704
Pt       8.42164144       3.24149143      22.29206808        3       0.00000000       0.00165068       0.01906111      -0.07510532
Pt       4.21082099       5.67261006      22.29206776        3       0.00000000      -0.01734329      -0.00824619      -0.07476817
Pt       7.01803485       5.67260985      22.29206778        3       0.00000000       0.01405589      -0.00942940      -0.07312977
Pt       9.82524820       5.67261061      22.29206807        3       0.00000000       0.00000672      -0.00059020      -0.04375535
Pt      -0.00000053       1.62074559      24.58417356        2       0.00000000       0.02769562      -0.01637076       0.00765864
Pt       2.80721447       1.62074548      24.58417379        2       0.00000000      -0.02747530      -0.01669583       0.00772098
Pt       5.61442782       1.62074544      24.58417375        2       0.00000000      -0.00271168      -0.02514108      -0.08288351
Pt       1.40360648       4.05186445      24.58417388        2       0.00000000      -0.00631331      -0.16493109       0.23293062
Pt       4.21082098       4.05186402      24.58417384        2       0.00000000      -0.02068884       0.01523264      -0.08223081
Pt       7.01803473       4.05186413      24.58417382        2       0.00000000       0.02335326       0.01086670      -0.08228386
Pt       2.80721282       6.48298339      24.58417358        2       0.00000000       0.14850232       0.07854870       0.23468481
Pt       5.61442787       6.48298335      24.58417389        2       0.00000000      -0.00015727       0.03207056       0.00883925
Pt       8.42164231       6.48298348      24.58417365        2       0.00000000      -0.14216009       0.08981620       0.23452772
Pt      -0.03217115      -0.01841278      26.93918728        1       0.00000000      -0.01293567      -0.00989891      -0.00885532
Pt       2.83949932      -0.01834776      26.93920412        1       0.00000000       0.01522744      -0.00577140      -0.00888534
Pt       5.61414048      -0.00068842      26.92111775        1       0.00000000       0.00186056      -0.00979544      -0.01550259
Pt       1.40355406       2.46996755      26.93820955        1       0.00000000      -0.00230723       0.01602372      -0.00952291
Pt       4.22865954       2.44345028      26.90192374        1       0.00000000      -0.01541480      -0.00962134       0.01659183
Pt       6.99860437       2.44060299      26.90191654        1       0.00000000       0.01674891      -0.00707769       0.01658677
Pt       2.80677445       4.86369980      26.92137083        1       0.00000000      -0.01031801       0.00236918      -0.01657871
Pt       5.61607249       4.84056937      26.90211255        1       0.00000000      -0.00145388       0.02048508       0.01609907
Pt       8.42238531       4.86318949      26.92136675        1       0.00000000       0.00860558       0.00544954      -0.01656376
C        1.40357743       0.80990306      28.72973399        0       1.00000000      -0.00018698       0.00273298      -0.04442948
H        2.30582337       0.29832414      29.12477794        0       0.00000000       0.01700451      -0.01064392       0.02334466
H        0.50872451       0.28547689      29.12477791        0       0.00000000      -0.01685008      -0.01031202       0.02336739
H        1.39617161       1.84835097      29.12211261        0       0.00000000      -0.00000951       0.01429589       0.02083535
