40
Lattice="8.421641763931781 0.0 0.0 4.2108208819658905 7.293355709136913 0.0 0.0 0.0 46.87624170604845" Properties=species:S:1:pos:R:3:tags:I:1:initial_magmoms:R:1:forces:R:3 charge=0 spin=0 energy=-205.99759222812378 free_energy=-205.99759222812378 stress="0.009894736111164093 -1.555417981080609e-07 -2.661725488906086e-07 -1.555417981080609e-07 0.009878245182335377 6.492216925835237e-06 -2.661725488906086e-07 6.492216925835237e-06 -0.00021346005087252706" pbc="T T T"
Pt      -0.00000001       0.00000004      19.95723550        4       0.00000000      -0.00087923      -0.00198157       0.01803138
Pt       2.80721400      -0.00000009      19.95723557        4       0.00000000       0.00213849       0.00009900       0.01799312
Pt       5.61442776      -0.00000012      19.95723555        4       0.00000000       0.00151819       0.00669248       0.00686622
Pt       1.40360718       2.43111835      19.95723542        4       0.00000000      -0.00120344       0.00167245       0.01812060
Pt       4.21082079       2.43111843      19.95723552        4       0.00000000       0.00093697      -0.00036131       0.01732970
Pt       7.01803481       2.43111844      19.95723550        4       0.00000000      -0.00013156       0.00094058       0.01732247
Pt       2.80721421       4.86223734      19.95723529        4       0.00000000       0.00551406      -0.00489873       0.00653620
Pt       5.61442795       4.86223729      19.95723542        4       0.00000000      -0.00074961      -0.00062848       0.01716206
Pt       8.42164148       4.86223724      19.95723551        4       0.00000000      -0.00700559      -0.00229748       0.00656644
Pt       1.40360717       0.81037261      22.29206804        3       0.00000000       0.00002057      -0.00004299      -0.04261814
Pt       4.21082121       0.81037256      22.29206808        3       0.00000000       0.01470202      -0.01139440      -0.07537752
Pt       7.01803485       0.81037259      22.29206811        3       0.00000000      -0.01507575      -0.00763314      -0.07325064
Pt       2.80721434       3.24149110      22.29206780        3       0.00000000       0.00123728       0.01683011      -0.07409247
Pt       5.61442775       3.24149130      22.29206801        3       0.00000000      -0.00005000      -0.00009523      -0.06900004
Pt       8.42164144       3.24149143      22.29206808        3       0.00000000       0.00211222       0.01838128      -0.07605568
Pt       4.21082099       5.67261006      22.29206776        3       0.00000000      -0.01708256      -0.00766958      -0.07549737
Pt       7.01803485       5.67260985      22.29206778        3       0.00000000       0.01410019      -0.00971495      -0.07351317
Pt       9.82524820       5.67261061      22.29206807        3       0.00000000       0.00005565      -0.00138006      -0.04277362
Pt      -0.00000053       1.62074559      24.58417356        2       0.00000000       0.02972372      -0.01758009       0.02340515
Pt       2.80721447       1.62074548      24.58417379        2       0.00000000      -0.02855055      -0.01975491       0.02360652
Pt       5.61442782       1.62074544      24.58417375        2       0.00000000       0.00033944      -0.02062323      -0.07633337
Pt       1.40360648       4.05186445      24.58417388        2       0.00000000      -0.00659565      -0.16434895       0.23115078
Pt       4.21082098       4.05186402      24.58417384        2       0.00000000      -0.01846399       0.01059203      -0.07642680
Pt       7.01803473       4.05186413      24.58417382        2       0.00000000       0.01794461       0.01159959      -0.07650930
Pt       2.80721282       6.48298339      24.58417358        2       0.00000000       0.15040028       0.08006465       0.23805238
Pt       5.61442787       6.48298335      24.58417389        2       0.00000000      -0.00103678       0.03552026       0.02527775
Pt       8.42164231       6.48298348      24.58417365        2       0.00000000      -0.14425015       0.09193077       0.23846236
Pt      -0.03727095      -0.01801268      26.94195301        1       0.00000000       0.03473162       0.00272727      -0.01450175
Pt       2.84187274      -0.02239882      26.94214052        1       0.00000000      -0.01962564       0.02886716      -0.01492447
Pt       5.61492420       0.00026540      26.92121725        1       0.00000000      -0.00409388      -0.01152205      -0.01439886
Pt       1.40606956       2.47521257      26.93974430        1       0.00000000      -0.01514918      -0.02908562      -0.01641946
Pt       4.23083676       2.44092890      26.90438849        1       0.00000000      -0.02681357       0.00039340       0.00417480
Pt       6.99997173       2.44429313      26.90439746        1       0.00000000       0.01329552      -0.02282054       0.00416892
Pt       2.80681119       4.86279026      26.92133519        1       0.00000000      -0.00795263       0.01062986      -0.01395842
Pt       5.61246119       4.84068510      26.90437654        1       0.00000000       0.01321278       0.02323938       0.00432246
Pt       8.42142234       4.86377015      26.92132527        1       0.00000000       0.01236788       0.00297292      -0.01391703
C        1.40381237       0.80705912      28.72622036        0       1.00000000       0.00033826      -0.00305240       0.02548002
H        2.31400659       0.30898965      29.12639268        0       0.00000000      -0.02517656       0.00608843      -0.00633073
H        0.51656855       0.26954110      29.12677661        0       0.00000000       0.01983735       0.01547048      -0.00698772
H        1.38120958       1.84599362      29.12229801        0       0.00000000       0.00535929      -0.02782624      -0.01114263
