40
Lattice="8.421641763931781 0.0 0.0 4.2108208819658905 7.293355709136913 0.0 0.0 0.0 46.87624170604845" Properties=species:S:1:pos:R:3:tags:I:1:initial_magmoms:R:1:forces:R:3 charge=0 spin=0 energy=-205.99748732394897 free_energy=-205.99748732394897 stress="0.009919427335262299 3.923793485682836e-07 6.727692039021349e-07 3.923793485682836e-07 0.009884894825518131 1.3670227417605929e-05 6.727692039021349e-07 1.3670227417605929e-05 -0.0001879593764897436" pbc="T T T"
Pt      -0.00000001       0.00000004      19.95723550        4       0.00000000      -0.00067277      -0.00234283       0.01797141
Pt       2.80721400      -0.00000009      19.95723557        4       0.00000000       0.00231946       0.00031199       0.01794266
Pt       5.61442776      -0.00000012      19.95723555        4       0.00000000       0.00181653       0.00626260       0.00719553
Pt       1.40360718       2.43111835      19.95723542        4       0.00000000      -0.00155499       0.00157473       0.01811942
Pt       4.21082079       2.43111843      19.95723552        4       0.00000000       0.00100449      -0.00061681       0.01742141
Pt       7.01803481       2.43111844      19.95723550        4       0.00000000       0.00006102       0.00107303       0.01734756
Pt       2.80721421       4.86223734      19.95723529        4       0.00000000       0.00548904      -0.00521487       0.00655494
Pt       5.61442795       4.86223729      19.95723542        4       0.00000000      -0.00096392      -0.00056377       0.01710659
Pt       8.42164148       4.86223724      19.95723551        4       0.00000000      -0.00733812      -0.00209976       0.00649477
Pt       1.40360717       0.81037261      22.29206804        3       0.00000000       0.00001672      -0.00010363      -0.04293396
Pt       4.21082121       0.81037256      22.29206808        3       0.00000000       0.01549056      -0.01161331      -0.07452226
Pt       7.01803485       0.81037259      22.29206811        3       0.00000000      -0.01404361      -0.00786326      -0.07328079
Pt       2.80721434       3.24149110      22.29206780        3       0.00000000       0.00074063       0.01594320      -0.07513200
Pt       5.61442775       3.24149130      22.29206801        3       0.00000000      -0.00011741      -0.00019892      -0.06921390
Pt       8.42164144       3.24149143      22.29206808        3       0.00000000       0.00146291       0.01902499      -0.07617714
Pt       4.21082099       5.67261006      22.29206776        3       0.00000000      -0.01757508      -0.00877205      -0.07480858
Pt       7.01803485       5.67260985      22.29206778        3       0.00000000       0.01381522      -0.00921288      -0.07401782
Pt       9.82524820       5.67261061      22.29206807        3       0.00000000      -0.00001879      -0.00289276      -0.04302767
Pt      -0.00000053       1.62074559      24.58417356        2       0.00000000       0.02768436      -0.02240943       0.02781091
Pt       2.80721447       1.62074548      24.58417379        2       0.00000000      -0.02977554      -0.01870367       0.02776814
Pt       5.61442782       1.62074544      24.58417375        2       0.00000000      -0.00732182      -0.02065440      -0.07354623
Pt       1.40360648       4.05186445      24.58417388        2       0.00000000      -0.00766962      -0.16096893       0.22823355
Pt       4.21082098       4.05186402      24.58417384        2       0.00000000      -0.01499432       0.01797047      -0.07356872
Pt       7.01803473       4.05186413      24.58417382        2       0.00000000       0.02213858       0.00604343      -0.07361565
Pt       2.80721282       6.48298339      24.58417358        2       0.00000000       0.15416367       0.08185259       0.24349003
Pt       5.61442787       6.48298335      24.58417389        2       0.00000000       0.00206334       0.03715487       0.03163233
Pt       8.42164231       6.48298348      24.58417365        2       0.00000000      -0.14573859       0.09530234       0.24274428
Pt      -0.03289272      -0.02326693      26.94409474        1       0.00000000       0.02044935       0.03301027      -0.01986736
Pt       2.84506076      -0.01523794      26.94391828        1       0.00000000      -0.03864904       0.00172384      -0.01841950
Pt       5.61506867       0.00052273      26.92143396        1       0.00000000      -0.00088018      -0.00827647      -0.01585087
Pt       1.39895428       2.47736892      26.93912363        1       0.00000000       0.01817530      -0.02939458      -0.02264726
Pt       4.22706932       2.44858316      26.90505313        1       0.00000000      -0.01322104      -0.02966817       0.00126512
Pt       6.99573272       2.43802281      26.90501409        1       0.00000000       0.03325365       0.00436853       0.00114228
Pt       2.80680677       4.86401967      26.92171229        1       0.00000000      -0.00755496       0.00647843      -0.01498855
Pt       5.62054497       4.84087709      26.90503994        1       0.00000000      -0.01945194       0.02702578       0.00135547
Pt       8.42166663       4.86490583      26.92172361        1       0.00000000       0.00770685       0.00603987      -0.01516682
C        1.40333527       0.80338545      28.72745870        0       1.00000000      -0.00042742      -0.00622125       0.02856317
H        1.41073709       1.84378043      29.12069207        0       0.00000000      -0.00456365      -0.03174656      -0.01606435
H        2.29796136       0.27985562      29.13025958        0       0.00000000      -0.02141835       0.01336112      -0.00742089
H        0.50027428       0.29349160      29.12914788        0       0.00000000       0.02609941       0.00501632      -0.00588902
