40
Lattice="8.421641763931781 0.0 0.0 4.2108208819658905 7.293355709136913 0.0 0.0 0.0 46.87624170604845" Properties=species:S:1:pos:R:3:tags:I:1:initial_magmoms:R:1:forces:R:3 charge=0 spin=0 energy=-205.99748732394897 free_energy=-205.99748732394897 stress="0.009919418022036552 3.7666427488147747e-07 6.51875950552494e-07 3.7666427488147747e-07 0.009884904138743877 1.366688866255572e-05 6.51875950552494e-07 1.366688866255572e-05 -0.0001879464543890208" pbc="T T T"
Pt      -0.00000001       0.00000004      19.95723550        4       0.00000000      -0.00067243      -0.00234261       0.01797149
Pt       2.80721400      -0.00000009      19.95723557        4       0.00000000       0.00231947       0.00031196       0.01794261
Pt       5.61442776      -0.00000012      19.95723555        4       0.00000000       0.00181638       0.00626276       0.00719536
Pt       1.40360718       2.43111835      19.95723542        4       0.00000000      -0.00155495       0.00157480       0.01811963
Pt       4.21082079       2.43111843      19.95723552        4       0.00000000       0.00100475      -0.00061691       0.01742111
Pt       7.01803481       2.43111844      19.95723550        4       0.00000000       0.00006107       0.00107322       0.01734781
Pt       2.80721421       4.86223734      19.95723529        4       0.00000000       0.00548930      -0.00521524       0.00655477
Pt       5.61442795       4.86223729      19.95723542        4       0.00000000      -0.00096365      -0.00056370       0.01710653
Pt       8.42164148       4.86223724      19.95723551        4       0.00000000      -0.00733742      -0.00209943       0.00649534
Pt       1.40360717       0.81037261      22.29206804        3       0.00000000       0.00001665      -0.00010341      -0.04293396
Pt       4.21082121       0.81037256      22.29206808        3       0.00000000       0.01549116      -0.01161331      -0.07452095
Pt       7.01803485       0.81037259      22.29206811        3       0.00000000      -0.01404335      -0.00786383      -0.07328305
Pt       2.80721434       3.24149110      22.29206780        3       0.00000000       0.00074041       0.01594431      -0.07513215
Pt       5.61442775       3.24149130      22.29206801        3       0.00000000      -0.00011762      -0.00019906      -0.06921368
Pt       8.42164144       3.24149143      22.29206808        3       0.00000000       0.00146316       0.01902476      -0.07617563
Pt       4.21082099       5.67261006      22.29206776        3       0.00000000      -0.01757528      -0.00877214      -0.07481046
Pt       7.01803485       5.67260985      22.29206778        3       0.00000000       0.01381468      -0.00921259      -0.07401628
Pt       9.82524820       5.67261061      22.29206807        3       0.00000000      -0.00001498      -0.00289137      -0.04302740
Pt      -0.00000053       1.62074559      24.58417356        2       0.00000000       0.02768658      -0.02240297       0.02780687
Pt       2.80721447       1.62074548      24.58417379        2       0.00000000      -0.02977416      -0.01870732       0.02777743
Pt       5.61442782       1.62074544      24.58417375        2       0.00000000      -0.00732619      -0.02065360      -0.07354239
Pt       1.40360648       4.05186445      24.58417388        2       0.00000000      -0.00766955      -0.16097412       0.22823517
Pt       4.21082098       4.05186402      24.58417384        2       0.00000000      -0.01499415       0.01796792      -0.07356321
Pt       7.01803473       4.05186413      24.58417382        2       0.00000000       0.02213635       0.00604118      -0.07361810
Pt       2.80721282       6.48298339      24.58417358        2       0.00000000       0.15415271       0.08184673       0.24347630
Pt       5.61442787       6.48298335      24.58417389        2       0.00000000       0.00207233       0.03715499       0.03163376
Pt       8.42164231       6.48298348      24.58417365        2       0.00000000      -0.14574772       0.09530824       0.24275425
Pt      -0.03289608      -0.02326803      26.94409035        1       0.00000000       0.02044878       0.03300090      -0.01986150
Pt       2.84505817      -0.01523706      26.94392311        1       0.00000000      -0.03865026       0.00172390      -0.01843596
Pt       5.61506665       0.00052213      26.92143431        1       0.00000000      -0.00088401      -0.00827592      -0.01585023
Pt       1.39895353       2.47736702      26.93912578        1       0.00000000       0.01816880      -0.02939604      -0.02264467
Pt       4.22706860       2.44858347      26.90505402        1       0.00000000      -0.01321835      -0.02966893       0.00125771
Pt       6.99573178       2.43802195      26.90501478        1       0.00000000       0.03325311       0.00437191       0.00114145
Pt       2.80680521       4.86401833      26.92171237        1       0.00000000      -0.00754891       0.00648063      -0.01498934
Pt       5.62054530       4.84087700      26.90504031        1       0.00000000      -0.01946188       0.02702496       0.00135396
Pt       8.42166570       4.86490531      26.92172323        1       0.00000000       0.00770590       0.00604123      -0.01515910
C        1.40334165       0.80338813      28.72746007        0       1.00000000      -0.00043329      -0.00619952       0.02854994
H        0.50028076       0.29348904      29.12914361        0       0.00000000       0.02609781       0.00501481      -0.00589714
H        1.41073734       1.84378157      29.12069640        0       0.00000000      -0.00455764      -0.03174561      -0.01606592
H        2.29796754       0.27986099      29.13026402        0       0.00000000      -0.02139338       0.01334845      -0.00740032
