40
Lattice="8.421641763931781 0.0 0.0 4.2108208819658905 7.293355709136913 0.0 0.0 0.0 46.87624170604845" Properties=species:S:1:pos:R:3:tags:I:1:initial_magmoms:R:1:forces:R:3 charge=0 spin=0 energy=-205.99748732394897 free_energy=-205.99748732394897 stress="0.009919476695358753 3.8955687386987847e-07 6.633259772570455e-07 3.8955687386987847e-07 0.009884963743388653 1.3663389836438e-05 6.633259772570455e-07 1.3663389836438e-05 -0.00018787450972013175" pbc="T T T"
Pt      -0.00000001       0.00000004      19.95723550        4       0.00000000      -0.00067223      -0.00234265       0.01797124
Pt       2.80721400      -0.00000009      19.95723557        4       0.00000000       0.00231918       0.00031214       0.01794247
Pt       5.61442776      -0.00000012      19.95723555        4       0.00000000       0.00181640       0.00626273       0.00719515
Pt       1.40360718       2.43111835      19.95723542        4       0.00000000      -0.00155537       0.00157478       0.01811948
Pt       4.21082079       2.43111843      19.95723552        4       0.00000000       0.00100468      -0.00061723       0.01742143
Pt       7.01803481       2.43111844      19.95723550        4       0.00000000       0.00006120       0.00107328       0.01734781
Pt       2.80721421       4.86223734      19.95723529        4       0.00000000       0.00548868      -0.00521486       0.00655499
Pt       5.61442795       4.86223729      19.95723542        4       0.00000000      -0.00096386      -0.00056357       0.01710651
Pt       8.42164148       4.86223724      19.95723551        4       0.00000000      -0.00733744      -0.00209966       0.00649523
Pt       1.40360717       0.81037261      22.29206804        3       0.00000000       0.00001670      -0.00010340      -0.04293146
Pt       4.21082121       0.81037256      22.29206808        3       0.00000000       0.01549139      -0.01161348      -0.07452095
Pt       7.01803485       0.81037259      22.29206811        3       0.00000000      -0.01404414      -0.00786405      -0.07328296
Pt       2.80721434       3.24149110      22.29206780        3       0.00000000       0.00074043       0.01594378      -0.07513239
Pt       5.61442775       3.24149130      22.29206801        3       0.00000000      -0.00011750      -0.00019922      -0.06921366
Pt       8.42164144       3.24149143      22.29206808        3       0.00000000       0.00146309       0.01902545      -0.07617549
Pt       4.21082099       5.67261006      22.29206776        3       0.00000000      -0.01757616      -0.00877217      -0.07480914
Pt       7.01803485       5.67260985      22.29206778        3       0.00000000       0.01381531      -0.00921250      -0.07401752
Pt       9.82524820       5.67261061      22.29206807        3       0.00000000      -0.00001705      -0.00289054      -0.04303095
Pt      -0.00000053       1.62074559      24.58417356        2       0.00000000       0.02768933      -0.02240370       0.02782021
Pt       2.80721447       1.62074548      24.58417379        2       0.00000000      -0.02977731      -0.01870393       0.02778555
Pt       5.61442782       1.62074544      24.58417375        2       0.00000000      -0.00732603      -0.02064920      -0.07352746
Pt       1.40360648       4.05186445      24.58417388        2       0.00000000      -0.00767110      -0.16098130       0.22824867
Pt       4.21082098       4.05186402      24.58417384        2       0.00000000      -0.01498916       0.01796682      -0.07355013
Pt       7.01803473       4.05186413      24.58417382        2       0.00000000       0.02213576       0.00603872      -0.07360139
Pt       2.80721282       6.48298339      24.58417358        2       0.00000000       0.15416235       0.08185053       0.24348673
Pt       5.61442787       6.48298335      24.58417389        2       0.00000000       0.00206768       0.03715590       0.03164046
Pt       8.42164231       6.48298348      24.58417365        2       0.00000000      -0.14574564       0.09530600       0.24275218
Pt      -0.03289216      -0.02326717      26.94409635        1       0.00000000       0.02043682       0.03299581      -0.01987553
Pt       2.84505917      -0.01523680      26.94392437        1       0.00000000      -0.03863532       0.00171545      -0.01844349
Pt       5.61506855       0.00052083      26.92143463        1       0.00000000      -0.00088635      -0.00826326      -0.01585227
Pt       1.39895351       2.47736447      26.93912998        1       0.00000000       0.01817139      -0.02937748      -0.02266642
Pt       4.22706626       2.44858313      26.90505537        1       0.00000000      -0.01319173      -0.02966097       0.00124334
Pt       6.99573417       2.43801953      26.90501654        1       0.00000000       0.03323228       0.00439198       0.00112811
Pt       2.80680473       4.86401898      26.92171221        1       0.00000000      -0.00754127       0.00647471      -0.01499061
Pt       5.62054737       4.84087971      26.90504179        1       0.00000000      -0.01946692       0.02699525       0.00134050
Pt       8.42166714       4.86490622      26.92172440        1       0.00000000       0.00770358       0.00602712      -0.01516902
C        1.40333723       0.80338855      28.72746665        0       1.00000000      -0.00044150      -0.00619921       0.02855461
H        2.29796199       0.27985627      29.13026633        0       0.00000000      -0.02140102       0.01335483      -0.00740874
H        0.50027440       0.29349405      29.12915119        0       0.00000000       0.02610212       0.00501759      -0.00589309
H        1.41073919       1.84378217      29.12070260        0       0.00000000      -0.00456122      -0.03175043      -0.01606192
