40
Lattice="8.421641763931781 0.0 0.0 4.2108208819658905 7.293355709136913 0.0 0.0 0.0 46.87624170604845" Properties=species:S:1:pos:R:3:tags:I:1:initial_magmoms:R:1:forces:R:3 charge=0 spin=0 energy=-206.89719702548706 free_energy=-206.89719702548706 stress="0.010328922420740128 3.2855275549081853e-06 5.881556717213243e-07 3.2855275549081853e-06 0.010298479348421097 -8.102939318632707e-06 5.881556717213243e-07 -8.102939318632707e-06 -0.00041149024036712945" pbc="T T T"
Pt      -0.00000001       0.00000004      19.95723550        4       0.00000000      -0.00367991       0.00441928       0.01728615
Pt       2.80721400      -0.00000009      19.95723557        4       0.00000000       0.00206613       0.00369134       0.01933247
Pt       5.61442776      -0.00000012      19.95723555        4       0.00000000      -0.00001150      -0.00025257      -0.03717004
Pt       1.40360718       2.43111835      19.95723542        4       0.00000000      -0.00023855      -0.00011538       0.01299969
Pt       4.21082079       2.43111843      19.95723552        4       0.00000000      -0.00218250      -0.00458034       0.01729073
Pt       7.01803481       2.43111844      19.95723550        4       0.00000000       0.00179270      -0.00316799       0.01948748
Pt       2.80721421       4.86223734      19.95723529        4       0.00000000      -0.00422947      -0.00000560       0.01911733
Pt       5.61442795       4.86223729      19.95723542        4       0.00000000      -0.00007644       0.00011922       0.02534308
Pt       8.42164148       4.86223724      19.95723551        4       0.00000000       0.00512370       0.00082679       0.01726058
Pt       1.40360717       0.81037261      22.29206804        3       0.00000000      -0.00305209       0.00201164      -0.00365480
Pt       4.21082121       0.81037256      22.29206808        3       0.00000000       0.06652234      -0.03598527      -0.15097375
Pt       7.01803485       0.81037259      22.29206811        3       0.00000000      -0.06567652      -0.03889655      -0.15001352
Pt       2.80721434       3.24149110      22.29206780        3       0.00000000      -0.00120311      -0.00335635      -0.00254784
Pt       5.61442775       3.24149130      22.29206801        3       0.00000000       0.00344847      -0.00974520      -0.06527663
Pt       8.42164144       3.24149143      22.29206808        3       0.00000000       0.00265245       0.00145613      -0.00270486
Pt       4.21082099       5.67261006      22.29206776        3       0.00000000      -0.01238798       0.00279650      -0.06730410
Pt       7.01803485       5.67260985      22.29206778        3       0.00000000       0.00699863       0.01039545      -0.06665020
Pt       9.82524820       5.67261061      22.29206807        3       0.00000000      -0.00243854       0.07537299      -0.14881997
Pt      -0.00000053       1.62074559      24.58417356        2       0.00000000       0.20804201       0.12327451       0.23696698
Pt       2.80721447       1.62074548      24.58417379        2       0.00000000      -0.20485872       0.12944907       0.23634295
Pt       5.61442782       1.62074544      24.58417375        2       0.00000000       0.00589682      -0.01584514      -0.05288694
Pt       1.40360648       4.05186445      24.58417388        2       0.00000000      -0.00090438      -0.24496107       0.23794374
Pt       4.21082098       4.05186402      24.58417384        2       0.00000000      -0.00312988      -0.01128946      -0.01934416
Pt       7.01803473       4.05186413      24.58417382        2       0.00000000       0.00862840      -0.01274838      -0.01793557
Pt       2.80721282       6.48298339      24.58417358        2       0.00000000      -0.01295970      -0.00021097      -0.05798611
Pt       5.61442787       6.48298335      24.58417389        2       0.00000000       0.00223973       0.00740749      -0.03347830
Pt       8.42164231       6.48298348      24.58417365        2       0.00000000       0.01463221       0.00204397      -0.06014951
Pt      -0.00122245       0.00460335      26.89241656        1       0.00000000      -0.01313409      -0.02793230       0.02113389
Pt       2.81355872       0.00403337      26.89210163        1       0.00000000       0.00167270      -0.02806832       0.02203140
Pt       5.61588009      -0.00802345      26.91195538        1       0.00000000       0.00510105       0.01062873       0.00436320
Pt       1.40487379       2.42187261      27.13611002        1       0.00000000       0.00133604       0.03561326       0.02401155
Pt       4.21494069       2.42224382      26.89857744        1       0.00000000       0.00382770       0.01577087      -0.00266244
Pt       7.01699574       2.42403816      26.90000988        1       0.00000000      -0.00053758       0.01142003      -0.00859584
Pt       2.80934275       4.85634336      26.89468797        1       0.00000000      -0.00568668       0.01567685       0.00592030
Pt       5.61807704       4.86694105      26.90444360        1       0.00000000      -0.00471105      -0.02951274       0.00341458
Pt       8.42720093       4.85637909      26.89568386        1       0.00000000      -0.00105252       0.01723831       0.00364622
C        1.40432029       2.43272134      29.21940294        0       1.00000000       0.00253745       0.01805177       0.01795277
H        0.49609913       2.95306990      29.55984972        0       0.00000000       0.03478150       0.00880036      -0.00508044
H        2.31152245       2.95563112      29.55831919        0       0.00000000      -0.03253695       0.01181441      -0.00132432
H        1.40663875       1.39129344      29.57046123        0       0.00000000      -0.00261214      -0.04160555      -0.00728573
