40
Lattice="8.421641763931781 0.0 0.0 4.2108208819658905 7.293355709136913 0.0 0.0 0.0 46.87624170604845" Properties=species:S:1:pos:R:3:tags:I:1:initial_magmoms:R:1:forces:R:3 charge=0 spin=0 energy=-205.99759604282104 free_energy=-205.99759604282104 stress="0.009894761256873608 -1.5794633156929194e-07 -2.648156112172728e-07 -1.5794633156929194e-07 0.009878259152173996 6.49835919830366e-06 -2.648156112172728e-07 6.49835919830366e-06 -0.00021344766719266772" pbc="T T T"
Pt      -0.00000001       0.00000004      19.95723550        4       0.00000000      -0.00087928      -0.00198161       0.01803118
Pt       2.80721400      -0.00000009      19.95723557        4       0.00000000       0.00213858       0.00009886       0.01799295
Pt       5.61442776      -0.00000012      19.95723555        4       0.00000000       0.00151806       0.00669248       0.00686629
Pt       1.40360718       2.43111835      19.95723542        4       0.00000000      -0.00120339       0.00167224       0.01812077
Pt       4.21082079       2.43111843      19.95723552        4       0.00000000       0.00093696      -0.00036155       0.01732974
Pt       7.01803481       2.43111844      19.95723550        4       0.00000000      -0.00013156       0.00094047       0.01732247
Pt       2.80721421       4.86223734      19.95723529        4       0.00000000       0.00551438      -0.00489896       0.00653624
Pt       5.61442795       4.86223729      19.95723542        4       0.00000000      -0.00074944      -0.00062854       0.01716195
Pt       8.42164148       4.86223724      19.95723551        4       0.00000000      -0.00700579      -0.00229751       0.00656631
Pt       1.40360717       0.81037261      22.29206804        3       0.00000000       0.00002055      -0.00004283      -0.04261658
Pt       4.21082121       0.81037256      22.29206808        3       0.00000000       0.01470197      -0.01139409      -0.07537708
Pt       7.01803485       0.81037259      22.29206811        3       0.00000000      -0.01507631      -0.00763370      -0.07324876
Pt       2.80721434       3.24149110      22.29206780        3       0.00000000       0.00123700       0.01683054      -0.07409252
Pt       5.61442775       3.24149130      22.29206801        3       0.00000000      -0.00005074      -0.00009494      -0.06900167
Pt       8.42164144       3.24149143      22.29206808        3       0.00000000       0.00211222       0.01838174      -0.07605579
Pt       4.21082099       5.67261006      22.29206776        3       0.00000000      -0.01708352      -0.00766972      -0.07549803
Pt       7.01803485       5.67260985      22.29206778        3       0.00000000       0.01410036      -0.00971512      -0.07351221
Pt       9.82524820       5.67261061      22.29206807        3       0.00000000       0.00005565      -0.00138109      -0.04277534
Pt      -0.00000053       1.62074559      24.58417356        2       0.00000000       0.02972345      -0.01758204       0.02340563
Pt       2.80721447       1.62074548      24.58417379        2       0.00000000      -0.02855026      -0.01975912       0.02360946
Pt       5.61442782       1.62074544      24.58417375        2       0.00000000       0.00034152      -0.02062235      -0.07632734
Pt       1.40360648       4.05186445      24.58417388        2       0.00000000      -0.00659692      -0.16435011       0.23114245
Pt       4.21082098       4.05186402      24.58417384        2       0.00000000      -0.01846096       0.01058890      -0.07642280
Pt       7.01803473       4.05186413      24.58417382        2       0.00000000       0.01794341       0.01160059      -0.07650373
Pt       2.80721282       6.48298339      24.58417358        2       0.00000000       0.15040398       0.08007104       0.23805003
Pt       5.61442787       6.48298335      24.58417389        2       0.00000000      -0.00103433       0.03552246       0.02528217
Pt       8.42164231       6.48298348      24.58417365        2       0.00000000      -0.14425531       0.09193395       0.23846628
Pt      -0.03726918      -0.01801143      26.94195601        1       0.00000000       0.03472234       0.00272434      -0.01450644
Pt       2.84187215      -0.02239845      26.94214354        1       0.00000000      -0.01962052       0.02886333      -0.01493589
Pt       5.61492376       0.00026425      26.92121708        1       0.00000000      -0.00408858      -0.01150441      -0.01439945
Pt       1.40606973       2.47521279      26.93974524        1       0.00000000      -0.01514551      -0.02907587      -0.01642305
Pt       4.23083589       2.44092652      26.90438937        1       0.00000000      -0.02679914       0.00041306       0.00417075
Pt       6.99997449       2.44429393      26.90439797        1       0.00000000       0.01327557      -0.02281899       0.00416502
Pt       2.80680987       4.86279268      26.92133402        1       0.00000000      -0.00793831       0.01061529      -0.01394896
Pt       5.61245996       4.84068715      26.90437770        1       0.00000000       0.01321989       0.02321964       0.00432000
Pt       8.42142465       4.86377073      26.92132475        1       0.00000000       0.01234476       0.00297026      -0.01391603
C        1.40381211       0.80705665      28.72622419        0       1.00000000       0.00034867      -0.00304209       0.02548152
H        1.38120867       1.84599320      29.12229823        0       0.00000000       0.00535947      -0.02784705      -0.01114823
H        2.31400763       0.30898873      29.12639652        0       0.00000000      -0.02518942       0.00609248      -0.00632874
H        0.51656835       0.26953871      29.12678006        0       0.00000000       0.01984050       0.01546997      -0.00698247
