40
Lattice="8.421641763931781 0.0 0.0 4.2108208819658905 7.293355709136913 0.0 0.0 0.0 46.87624170604845" Properties=species:S:1:pos:R:3:tags:I:1:initial_magmoms:R:1:forces:R:3 charge=0 spin=0 energy=-205.99759222812378 free_energy=-205.99759222812378 stress="0.009894686751067638 -1.6375146572045196e-07 -2.643884613462433e-07 -1.6375146572045196e-07 0.009878206066787243 6.491167823696742e-06 -2.643884613462433e-07 6.491167823696742e-06 -0.00021350057795643806" pbc="T T T"
Pt      -0.00000001       0.00000004      19.95723550        4       0.00000000      -0.00087948      -0.00198167       0.01803135
Pt       2.80721400      -0.00000009      19.95723557        4       0.00000000       0.00213890       0.00009880       0.01799278
Pt       5.61442776      -0.00000012      19.95723555        4       0.00000000       0.00151823       0.00669275       0.00686603
Pt       1.40360718       2.43111835      19.95723542        4       0.00000000      -0.00120357       0.00167270       0.01812069
Pt       4.21082079       2.43111843      19.95723552        4       0.00000000       0.00093718      -0.00036150       0.01732941
Pt       7.01803481       2.43111844      19.95723550        4       0.00000000      -0.00013155       0.00094080       0.01732243
Pt       2.80721421       4.86223734      19.95723529        4       0.00000000       0.00551390      -0.00489881       0.00653614
Pt       5.61442795       4.86223729      19.95723542        4       0.00000000      -0.00074963      -0.00062848       0.01716178
Pt       8.42164148       4.86223724      19.95723551        4       0.00000000      -0.00700533      -0.00229719       0.00656646
Pt       1.40360717       0.81037261      22.29206804        3       0.00000000       0.00002052      -0.00004271      -0.04261992
Pt       4.21082121       0.81037256      22.29206808        3       0.00000000       0.01470274      -0.01139330      -0.07537721
Pt       7.01803485       0.81037259      22.29206811        3       0.00000000      -0.01507599      -0.00763250      -0.07324973
Pt       2.80721434       3.24149110      22.29206780        3       0.00000000       0.00123728       0.01683031      -0.07409285
Pt       5.61442775       3.24149130      22.29206801        3       0.00000000      -0.00004988      -0.00009539      -0.06899997
Pt       8.42164144       3.24149143      22.29206808        3       0.00000000       0.00211192       0.01838153      -0.07605570
Pt       4.21082099       5.67261006      22.29206776        3       0.00000000      -0.01708243      -0.00766972      -0.07549744
Pt       7.01803485       5.67260985      22.29206778        3       0.00000000       0.01409941      -0.00971480      -0.07351234
Pt       9.82524820       5.67261061      22.29206807        3       0.00000000       0.00005611      -0.00137986      -0.04277159
Pt      -0.00000053       1.62074559      24.58417356        2       0.00000000       0.02972305      -0.01758330       0.02339886
Pt       2.80721447       1.62074548      24.58417379        2       0.00000000      -0.02855027      -0.01975751       0.02360127
Pt       5.61442782       1.62074544      24.58417375        2       0.00000000       0.00033839      -0.02062742      -0.07634506
Pt       1.40360648       4.05186445      24.58417388        2       0.00000000      -0.00659708      -0.16434576       0.23114294
Pt       4.21082098       4.05186402      24.58417384        2       0.00000000      -0.01846403       0.01059582      -0.07643443
Pt       7.01803473       4.05186413      24.58417382        2       0.00000000       0.01794618       0.01160163      -0.07651840
Pt       2.80721282       6.48298339      24.58417358        2       0.00000000       0.15039715       0.08006188       0.23804411
Pt       5.61442787       6.48298335      24.58417389        2       0.00000000      -0.00103686       0.03551935       0.02527753
Pt       8.42164231       6.48298348      24.58417365        2       0.00000000      -0.14424779       0.09192945       0.23845705
Pt      -0.03727417      -0.01801553      26.94195092        1       0.00000000       0.03475755       0.00274195      -0.01450126
Pt       2.84187514      -0.02240042      26.94213919        1       0.00000000      -0.01964988       0.02888033      -0.01491663
Pt       5.61492430       0.00026532      26.92121790        1       0.00000000      -0.00409874      -0.01152455      -0.01439483
Pt       1.40606832       2.47521361      26.93974172        1       0.00000000      -0.01514683      -0.02911592      -0.01639383
Pt       4.23083794       2.44092989      26.90438706        1       0.00000000      -0.02682718       0.00038405       0.00418595
Pt       6.99997003       2.44429343      26.90439659        1       0.00000000       0.01331133      -0.02282848       0.00417999
Pt       2.80681018       4.86278908      26.92133483        1       0.00000000      -0.00794785       0.01063127      -0.01395488
Pt       5.61246146       4.84068321      26.90437613        1       0.00000000       0.01320726       0.02325729       0.00432524
Pt       8.42142162       4.86376975      26.92132532        1       0.00000000       0.01236564       0.00297218      -0.01391457
C        1.40381305       0.80706189      28.72621712        0       1.00000000       0.00037229      -0.00302054       0.02546197
H        0.51656922       0.26954570      29.12677062        0       0.00000000       0.01980049       0.01544973      -0.00697180
H        1.38121359       1.84599500      29.12229676        0       0.00000000       0.00535580      -0.02782631      -0.01114957
H        2.31400547       0.30898946      29.12638843        0       0.00000000      -0.02516684       0.00608402      -0.00633037
