40
Lattice="8.421641763931781 0.0 0.0 4.2108208819658905 7.293355709136913 0.0 0.0 0.0 46.87624170604845" Properties=species:S:1:pos:R:3:tags:I:1:initial_magmoms:R:1:forces:R:3 charge=0 spin=0 energy=-206.89720084018433 free_energy=-206.89720084018433 stress="0.010329007171094418 3.289888354629511e-06 5.888350642635487e-07 3.289888354629511e-06 0.010298661887645721 -8.14570921647828e-06 5.888350642635487e-07 -8.14570921647828e-06 -0.00041154722566716373" pbc="T T T"
Pt      -0.00000001       0.00000004      19.95723550        4       0.00000000      -0.00368003       0.00441766       0.01728681
Pt       2.80721400      -0.00000009      19.95723557        4       0.00000000       0.00206678       0.00368981       0.01933294
Pt       5.61442776      -0.00000012      19.95723555        4       0.00000000      -0.00001167      -0.00025100      -0.03716870
Pt       1.40360718       2.43111835      19.95723542        4       0.00000000      -0.00023856      -0.00011576       0.01299992
Pt       4.21082079       2.43111843      19.95723552        4       0.00000000      -0.00218127      -0.00458171       0.01729085
Pt       7.01803481       2.43111844      19.95723550        4       0.00000000       0.00179210      -0.00316815       0.01948733
Pt       2.80721421       4.86223734      19.95723529        4       0.00000000      -0.00422970      -0.00000576       0.01911814
Pt       5.61442795       4.86223729      19.95723542        4       0.00000000      -0.00007567       0.00011888       0.02534278
Pt       8.42164148       4.86223724      19.95723551        4       0.00000000       0.00512327       0.00082624       0.01726106
Pt       1.40360717       0.81037261      22.29206804        3       0.00000000      -0.00305105       0.00200894      -0.00366063
Pt       4.21082121       0.81037256      22.29206808        3       0.00000000       0.06651966      -0.03598551      -0.15097030
Pt       7.01803485       0.81037259      22.29206811        3       0.00000000      -0.06567383      -0.03889899      -0.15000896
Pt       2.80721434       3.24149110      22.29206780        3       0.00000000      -0.00120256      -0.00335926      -0.00255624
Pt       5.61442775       3.24149130      22.29206801        3       0.00000000       0.00344731      -0.00974834      -0.06527983
Pt       8.42164144       3.24149143      22.29206808        3       0.00000000       0.00265414       0.00145222      -0.00270004
Pt       4.21082099       5.67261006      22.29206776        3       0.00000000      -0.01238774       0.00279239      -0.06730615
Pt       7.01803485       5.67260985      22.29206778        3       0.00000000       0.00699765       0.01039150      -0.06664503
Pt       9.82524820       5.67261061      22.29206807        3       0.00000000      -0.00243690       0.07537277      -0.14882146
Pt      -0.00000053       1.62074559      24.58417356        2       0.00000000       0.20802364       0.12328738       0.23695253
Pt       2.80721447       1.62074548      24.58417379        2       0.00000000      -0.20484136       0.12943342       0.23635295
Pt       5.61442782       1.62074544      24.58417375        2       0.00000000       0.00589857      -0.01585825      -0.05286418
Pt       1.40360648       4.05186445      24.58417388        2       0.00000000      -0.00092747      -0.24493369       0.23798381
Pt       4.21082098       4.05186402      24.58417384        2       0.00000000      -0.00313436      -0.01127574      -0.01937429
Pt       7.01803473       4.05186413      24.58417382        2       0.00000000       0.00865271      -0.01272972      -0.01795861
Pt       2.80721282       6.48298339      24.58417358        2       0.00000000      -0.01298284      -0.00018892      -0.05797485
Pt       5.61442787       6.48298335      24.58417389        2       0.00000000       0.00225705       0.00742380      -0.03349681
Pt       8.42164231       6.48298348      24.58417365        2       0.00000000       0.01464015       0.00205204      -0.06010432
Pt      -0.00121359       0.00461331      26.89240628        1       0.00000000      -0.01319418      -0.02790125       0.02114918
Pt       2.81355646       0.00403471      26.89211399        1       0.00000000       0.00170861      -0.02799889       0.02196637
Pt       5.61587685      -0.00801063      26.91196967        1       0.00000000       0.00511226       0.01062797       0.00429950
Pt       1.40487415       2.42188861      27.13610027        1       0.00000000       0.00132945       0.03558985       0.02394513
Pt       4.21494216       2.42226762      26.89857337        1       0.00000000       0.00380561       0.01568429      -0.00265290
Pt       7.01699176       2.42406554      26.90000698        1       0.00000000      -0.00051678       0.01132044      -0.00858670
Pt       2.80934506       4.85635769      26.89468207        1       0.00000000      -0.00573754       0.01567732       0.00593790
Pt       5.61808156       4.86694809      26.90443565        1       0.00000000      -0.00474182      -0.02948374       0.00346471
Pt       8.42718591       4.85639435      26.89570203        1       0.00000000      -0.00095671       0.01723284       0.00358788
C        1.40432136       2.43266806      29.21939142        0       1.00000000       0.00253028       0.01768977       0.01796278
H        2.31152716       2.95557173      29.55831181        0       0.00000000      -0.03262781       0.01177221      -0.00126639
H        1.40664929       1.39120382      29.57038304        0       0.00000000      -0.00260078      -0.04115097      -0.00728872
H        0.49608662       2.95298995      29.55984630        0       0.00000000       0.03487154       0.00877393      -0.00503718
