40
Lattice="8.421641763931781 0.0 0.0 4.2108208819658905 7.293355709136913 0.0 0.0 0.0 46.87624170604845" Properties=species:S:1:pos:R:3:tags:I:1:initial_magmoms:R:1:forces:R:3 charge=0 spin=0 energy=-205.99792029208862 free_energy=-205.99792029208862 stress="0.009844332933425903 1.1484236495107325e-07 4.6441051892998075e-08 1.1484236495107325e-07 0.009838656522333622 3.334921757414122e-06 4.6441051892998075e-08 3.334921757414122e-06 -0.0002970103523693979" pbc="T T T"
Pt      -0.00000001       0.00000004      19.95723550        4       0.00000000      -0.00074371      -0.00203537       0.01783602
Pt       2.80721400      -0.00000009      19.95723557        4       0.00000000       0.00213326       0.00033211       0.01780532
Pt       5.61442776      -0.00000012      19.95723555        4       0.00000000       0.00167797       0.00714055       0.00676724
Pt       1.40360718       2.43111835      19.95723542        4       0.00000000      -0.00136762       0.00162507       0.01789518
Pt       4.21082079       2.43111843      19.95723552        4       0.00000000       0.00082725      -0.00051242       0.01734607
Pt       7.01803481       2.43111844      19.95723550        4       0.00000000       0.00002300       0.00090431       0.01735440
Pt       2.80721421       4.86223734      19.95723529        4       0.00000000       0.00551549      -0.00510768       0.00671769
Pt       5.61442795       4.86223729      19.95723542        4       0.00000000      -0.00082889      -0.00044860       0.01725322
Pt       8.42164148       4.86223724      19.95723551        4       0.00000000      -0.00719888      -0.00224120       0.00670751
Pt       1.40360717       0.81037261      22.29206804        3       0.00000000       0.00000418       0.00001261      -0.04305476
Pt       4.21082121       0.81037256      22.29206808        3       0.00000000       0.01558327      -0.01115507      -0.07488891
Pt       7.01803485       0.81037259      22.29206811        3       0.00000000      -0.01507148      -0.00764981      -0.07308093
Pt       2.80721434       3.24149110      22.29206780        3       0.00000000       0.00108028       0.01677025      -0.07339320
Pt       5.61442775       3.24149130      22.29206801        3       0.00000000      -0.00001966      -0.00006104      -0.06995653
Pt       8.42164144       3.24149143      22.29206808        3       0.00000000       0.00165086       0.01906120      -0.07510523
Pt       4.21082099       5.67261006      22.29206776        3       0.00000000      -0.01734330      -0.00824627      -0.07476828
Pt       7.01803485       5.67260985      22.29206778        3       0.00000000       0.01405563      -0.00942898      -0.07312928
Pt       9.82524820       5.67261061      22.29206807        3       0.00000000       0.00000680      -0.00058978      -0.04375533
Pt      -0.00000053       1.62074559      24.58417356        2       0.00000000       0.02769515      -0.01636935       0.00765457
Pt       2.80721447       1.62074548      24.58417379        2       0.00000000      -0.02747520      -0.01669539       0.00772120
Pt       5.61442782       1.62074544      24.58417375        2       0.00000000      -0.00271205      -0.02514126      -0.08288374
Pt       1.40360648       4.05186445      24.58417388        2       0.00000000      -0.00631113      -0.16493240       0.23292805
Pt       4.21082098       4.05186402      24.58417384        2       0.00000000      -0.02068905       0.01523227      -0.08223159
Pt       7.01803473       4.05186413      24.58417382        2       0.00000000       0.02335096       0.01086547      -0.08228724
Pt       2.80721282       6.48298339      24.58417358        2       0.00000000       0.14850073       0.07854775       0.23468252
Pt       5.61442787       6.48298335      24.58417389        2       0.00000000      -0.00015535       0.03206934       0.00883527
Pt       8.42164231       6.48298348      24.58417365        2       0.00000000      -0.14215979       0.08981843       0.23452505
Pt      -0.03217090      -0.01841262      26.93918668        1       0.00000000      -0.01294353      -0.00989906      -0.00884835
Pt       2.83949925      -0.01834781      26.93920322        1       0.00000000       0.01522862      -0.00577052      -0.00888487
Pt       5.61414045      -0.00068826      26.92111684        1       0.00000000       0.00186179      -0.00979418      -0.01550322
Pt       1.40355400       2.46996724      26.93820941        1       0.00000000      -0.00230116       0.01602434      -0.00951774
Pt       4.22865954       2.44345050      26.90192369        1       0.00000000      -0.01541565      -0.00962311       0.01659208
Pt       6.99860452       2.44060327      26.90191682        1       0.00000000       0.01674754      -0.00708063       0.01658692
Pt       2.80677429       4.86369975      26.92137065        1       0.00000000      -0.01031821       0.00236842      -0.01657894
Pt       5.61607279       4.84056960      26.90211255        1       0.00000000      -0.00145432       0.02048460       0.01609999
Pt       8.42238555       4.86318959      26.92136648        1       0.00000000       0.00860593       0.00544995      -0.01655428
C        1.40357733       0.80990292      28.72973366        0       1.00000000      -0.00018241       0.00276180      -0.04441924
H        1.39617153       1.84835093      29.12211326        0       0.00000000      -0.00000885       0.01427495       0.02082151
H        2.30582334       0.29832415      29.12477809        0       0.00000000       0.01700470      -0.01064544       0.02334432
H        0.50872460       0.28547692      29.12477811        0       0.00000000      -0.01685333      -0.01031581       0.02336758
