40
Lattice="8.421641763931781 0.0 0.0 4.2108208819658905 7.293355709136913 0.0 0.0 0.0 46.87624170604845" Properties=species:S:1:pos:R:3:tags:I:1:initial_magmoms:R:1:forces:R:3 charge=0 spin=0 energy=-205.99792029208862 free_energy=-205.99792029208862 stress="0.009844322688877583 1.122445070222966e-07 4.8156998389004e-08 1.122445070222966e-07 0.009838640689849854 3.332362439323333e-06 4.8156998389004e-08 3.332362439323333e-06 -0.00029702240135520697" pbc="T T T"
Pt      -0.00000001       0.00000004      19.95723550        4       0.00000000      -0.00074385      -0.00203541       0.01783583
Pt       2.80721400      -0.00000009      19.95723557        4       0.00000000       0.00213317       0.00033210       0.01780515
Pt       5.61442776      -0.00000012      19.95723555        4       0.00000000       0.00167786       0.00714051       0.00676714
Pt       1.40360718       2.43111835      19.95723542        4       0.00000000      -0.00136767       0.00162516       0.01789518
Pt       4.21082079       2.43111843      19.95723552        4       0.00000000       0.00082721      -0.00051244       0.01734609
Pt       7.01803481       2.43111844      19.95723550        4       0.00000000       0.00002299       0.00090438       0.01735455
Pt       2.80721421       4.86223734      19.95723529        4       0.00000000       0.00551556      -0.00510745       0.00671752
Pt       5.61442795       4.86223729      19.95723542        4       0.00000000      -0.00082868      -0.00044865       0.01725334
Pt       8.42164148       4.86223724      19.95723551        4       0.00000000      -0.00719872      -0.00224122       0.00670755
Pt       1.40360717       0.81037261      22.29206804        3       0.00000000       0.00000420       0.00001258      -0.04305484
Pt       4.21082121       0.81037256      22.29206808        3       0.00000000       0.01558300      -0.01115509      -0.07488934
Pt       7.01803485       0.81037259      22.29206811        3       0.00000000      -0.01507151      -0.00764963      -0.07308057
Pt       2.80721434       3.24149110      22.29206780        3       0.00000000       0.00108038       0.01676983      -0.07339349
Pt       5.61442775       3.24149130      22.29206801        3       0.00000000      -0.00001974      -0.00006146      -0.06995709
Pt       8.42164144       3.24149143      22.29206808        3       0.00000000       0.00165061       0.01906091      -0.07510488
Pt       4.21082099       5.67261006      22.29206776        3       0.00000000      -0.01734315      -0.00824632      -0.07476800
Pt       7.01803485       5.67260985      22.29206778        3       0.00000000       0.01405556      -0.00942915      -0.07312922
Pt       9.82524820       5.67261061      22.29206807        3       0.00000000       0.00000685      -0.00059042      -0.04375554
Pt      -0.00000053       1.62074559      24.58417356        2       0.00000000       0.02769535      -0.01636920       0.00765769
Pt       2.80721447       1.62074548      24.58417379        2       0.00000000      -0.02747717      -0.01669692       0.00771852
Pt       5.61442782       1.62074544      24.58417375        2       0.00000000      -0.00270990      -0.02514276      -0.08288769
Pt       1.40360648       4.05186445      24.58417388        2       0.00000000      -0.00631164      -0.16493167       0.23292732
Pt       4.21082098       4.05186402      24.58417384        2       0.00000000      -0.02068936       0.01523495      -0.08223552
Pt       7.01803473       4.05186413      24.58417382        2       0.00000000       0.02335197       0.01086547      -0.08228798
Pt       2.80721282       6.48298339      24.58417358        2       0.00000000       0.14850029       0.07854746       0.23468117
Pt       5.61442787       6.48298335      24.58417389        2       0.00000000      -0.00015544       0.03206966       0.00883691
Pt       8.42164231       6.48298348      24.58417365        2       0.00000000      -0.14215986       0.08981831       0.23452492
Pt      -0.03217154      -0.01841309      26.93918693        1       0.00000000      -0.01293567      -0.00989427      -0.00885043
Pt       2.83949962      -0.01834814      26.93920375        1       0.00000000       0.01522219      -0.00577069      -0.00888385
Pt       5.61414055      -0.00068832      26.92111745        1       0.00000000       0.00186175      -0.00979464      -0.01550299
Pt       1.40355418       2.46996779      26.93820940        1       0.00000000      -0.00230920       0.01601821      -0.00952165
Pt       4.22865978       2.44345052      26.90192310        1       0.00000000      -0.01541629      -0.00962418       0.01660247
Pt       6.99860401       2.44060318      26.90191642        1       0.00000000       0.01675391      -0.00708227       0.01658633
Pt       2.80677469       4.86369978      26.92137099        1       0.00000000      -0.01031852       0.00236978      -0.01657826
Pt       5.61607269       4.84056897      26.90211214        1       0.00000000      -0.00145349       0.02048985       0.01610019
Pt       8.42238525       4.86318950      26.92136667        1       0.00000000       0.00860526       0.00544918      -0.01655405
C        1.40357740       0.80990312      28.72973445        0       1.00000000      -0.00015945       0.00274521      -0.04444144
H        0.50872478       0.28547703      29.12477733        0       0.00000000      -0.01686837      -0.01032250       0.02337848
H        1.39617172       1.84835095      29.12211238        0       0.00000000      -0.00001098       0.01429534       0.02083658
H        2.30582365       0.29832428      29.12477782        0       0.00000000       0.01700048      -0.01064278       0.02334372
