40
Lattice="8.421641763931781 0.0 0.0 4.2108208819658905 7.293355709136913 0.0 0.0 0.0 46.87624170604845" Properties=species:S:1:pos:R:3:tags:I:1:initial_magmoms:R:1:forces:R:3 charge=0 spin=0 energy=-205.9975292856189 free_energy=-205.9975292856189 stress="0.00993968453258276 2.6856878321268596e-06 1.2725922715617344e-06 2.6856878321268596e-06 0.009873570874333382 2.73783352895407e-05 1.2725922715617344e-06 2.73783352895407e-05 -0.00019477303430903703" pbc="T T T"
Pt      -0.00000001       0.00000004      19.95723550        4       0.00000000      -0.00065920      -0.00190159       0.01795939
Pt       2.80721400      -0.00000009      19.95723557        4       0.00000000       0.00190090      -0.00013943       0.01793731
Pt       5.61442776      -0.00000012      19.95723555        4       0.00000000       0.00134850       0.00572247       0.00761705
Pt       1.40360718       2.43111835      19.95723542        4       0.00000000      -0.00103450       0.00121313       0.01817031
Pt       4.21082079       2.43111843      19.95723552        4       0.00000000       0.00081154      -0.00004352       0.01766806
Pt       7.01803481       2.43111844      19.95723550        4       0.00000000      -0.00027928       0.00054300       0.01748322
Pt       2.80721421       4.86223734      19.95723529        4       0.00000000       0.00619402      -0.00492634       0.00630889
Pt       5.61442795       4.86223729      19.95723542        4       0.00000000      -0.00027119      -0.00063881       0.01707837
Pt       8.42164148       4.86223724      19.95723551        4       0.00000000      -0.00754869      -0.00275120       0.00634701
Pt       1.40360717       0.81037261      22.29206804        3       0.00000000       0.00014052      -0.00008950      -0.04215778
Pt       4.21082121       0.81037256      22.29206808        3       0.00000000       0.01394354      -0.01242111      -0.07435682
Pt       7.01803485       0.81037259      22.29206811        3       0.00000000      -0.01470803      -0.00891373      -0.07064764
Pt       2.80721434       3.24149110      22.29206780        3       0.00000000       0.00067415       0.01706106      -0.07461257
Pt       5.61442775       3.24149130      22.29206801        3       0.00000000      -0.00018149      -0.00028895      -0.06611252
Pt       8.42164144       3.24149143      22.29206808        3       0.00000000       0.00235566       0.01788887      -0.07784368
Pt       4.21082099       5.67261006      22.29206776        3       0.00000000      -0.01742761      -0.00790828      -0.07521191
Pt       7.01803485       5.67260985      22.29206778        3       0.00000000       0.01516255      -0.01013840      -0.07216002
Pt       9.82524820       5.67261061      22.29206807        3       0.00000000      -0.00015050      -0.00548742      -0.04587533
Pt      -0.00000053       1.62074559      24.58417356        2       0.00000000       0.02434183      -0.01621059       0.02337838
Pt       2.80721447       1.62074548      24.58417379        2       0.00000000      -0.01911353      -0.02607118       0.02357104
Pt       5.61442782       1.62074544      24.58417375        2       0.00000000       0.00332561      -0.00917897      -0.06888958
Pt       1.40360648       4.05186445      24.58417388        2       0.00000000      -0.00282743      -0.15748928       0.20929277
Pt       4.21082098       4.05186402      24.58417384        2       0.00000000      -0.01124435       0.00424590      -0.06835213
Pt       7.01803473       4.05186413      24.58417382        2       0.00000000       0.00704881       0.01082160      -0.06853269
Pt       2.80721282       6.48298339      24.58417358        2       0.00000000       0.15851483       0.09194342       0.23878567
Pt       5.61442787       6.48298335      24.58417389        2       0.00000000      -0.00559376       0.03329193       0.03185576
Pt       8.42164231       6.48298348      24.58417365        2       0.00000000      -0.15596443       0.09687926       0.23848234
Pt      -0.03469034      -0.00898481      26.94595160        1       0.00000000       0.02040253      -0.01970628      -0.01103085
Pt       2.83415688      -0.02279829      26.94600762        1       0.00000000       0.01099558       0.02809178      -0.01672285
Pt       5.61113231       0.00208460      26.91709564        1       0.00000000       0.01397905      -0.00832738      -0.00006637
Pt       1.41102595       2.47697279      26.93590410        1       0.00000000      -0.02870528       0.00332030      -0.01916866
Pt       4.23081891       2.43878369      26.90739019        1       0.00000000      -0.01828862       0.02003021      -0.01181835
Pt       7.00276993       2.44724533      26.90745624        1       0.00000000      -0.00666807      -0.02288865      -0.01168071
Pt       2.80941844       4.86839454      26.91769715        1       0.00000000      -0.01456228      -0.00293530       0.00076906
Pt       5.60937032       4.84334559      26.90746099        1       0.00000000       0.02438402       0.00713062      -0.01124136
Pt       8.42227137       4.86289640      26.91767692        1       0.00000000       0.00199589       0.01911485       0.00110456
C        1.40359305       0.79705999      28.73621531        0       1.00000000       0.00084260      -0.01296209       0.01563774
H        1.42649025       1.83905815      29.12213242        0       0.00000000      -0.00898825      -0.01991004      -0.01925726
H        2.29214741       0.26443834      29.13814423        0       0.00000000      -0.00772297       0.00135528       0.00097373
H        0.49571975       0.30151827      29.14206877        0       0.00000000       0.01357753      -0.00732555      -0.00468179
