40
Lattice="8.421641763931781 0.0 0.0 4.2108208819658905 7.293355709136913 0.0 0.0 0.0 46.87624170604845" Properties=species:S:1:pos:R:3:tags:I:1:initial_magmoms:R:1:forces:R:3 charge=0 spin=0 energy=-206.8979485208484 free_energy=-206.8979485208484 stress="0.010363588109612465 -4.793001906477912e-08 -5.547601045208239e-09 -4.793001906477912e-08 0.01036339532583952 4.616990281647304e-06 -5.547601045208239e-09 4.616990281647304e-06 -0.00033679083571769297" pbc="T T T"
Pt      -0.00000001       0.00000004      19.95723550        4       0.00000000      -0.00000163      -0.00002439       0.01319216
Pt       2.80721400      -0.00000009      19.95723557        4       0.00000000      -0.00194889      -0.00474598       0.01724690
Pt       5.61442776      -0.00000012      19.95723555        4       0.00000000       0.00197951      -0.00329961       0.01934556
Pt       1.40360718       2.43111835      19.95723542        4       0.00000000      -0.00387293      -0.00007176       0.01932302
Pt       4.21082079       2.43111843      19.95723552        4       0.00000000      -0.00001075      -0.00000025       0.02529669
Pt       7.01803481       2.43111844      19.95723550        4       0.00000000       0.00511802       0.00063067       0.01726681
Pt       2.80721421       4.86223734      19.95723529        4       0.00000000      -0.00317893       0.00412129       0.01732686
Pt       5.61442795       4.86223729      19.95723542        4       0.00000000       0.00190385       0.00340284       0.01936110
Pt       8.42164148       4.86223724      19.95723551        4       0.00000000       0.00000592       0.00008054      -0.03673752
Pt       1.40360717       0.81037261      22.29206804        3       0.00000000      -0.00029536      -0.00348192      -0.00252527
Pt       4.21082121       0.81037256      22.29206808        3       0.00000000       0.00441062      -0.01135688      -0.06727309
Pt       7.01803485       0.81037259      22.29206811        3       0.00000000       0.00307853       0.00139573      -0.00258000
Pt       2.80721434       3.24149110      22.29206780        3       0.00000000      -0.01208748       0.00186018      -0.06698325
Pt       5.61442775       3.24149130      22.29206801        3       0.00000000       0.00767611       0.00958658      -0.06701235
Pt       8.42164144       3.24149143      22.29206808        3       0.00000000      -0.00178971       0.07603430      -0.15051237
Pt       4.21082099       5.67261006      22.29206776        3       0.00000000      -0.00278507       0.00197753      -0.00251967
Pt       7.01803485       5.67260985      22.29206778        3       0.00000000       0.06648628      -0.03632416      -0.15031160
Pt       9.82524820       5.67261061      22.29206807        3       0.00000000      -0.06470042      -0.03941388      -0.15036011
Pt      -0.00000053       1.62074559      24.58417356        2       0.00000000      -0.00251962      -0.24244857       0.25301737
Pt       2.80721447       1.62074548      24.58417379        2       0.00000000      -0.00799483      -0.00437270      -0.01731413
Pt       5.61442782       1.62074544      24.58417375        2       0.00000000       0.00756375      -0.00482297      -0.01726497
Pt       1.40360648       4.05186445      24.58417388        2       0.00000000      -0.01030693       0.00251764      -0.04734285
Pt       4.21082098       4.05186402      24.58417384        2       0.00000000       0.00039637       0.00843135      -0.01898130
Pt       7.01803473       4.05186413      24.58417382        2       0.00000000       0.00791118       0.00687773      -0.04754621
Pt       2.80721282       6.48298339      24.58417358        2       0.00000000       0.21240962       0.11994733       0.25273627
Pt       5.61442787       6.48298335      24.58417389        2       0.00000000      -0.20983200       0.12442008       0.25256079
Pt       8.42164231       6.48298348      24.58417365        2       0.00000000       0.00238546      -0.01021320      -0.04822721
Pt       0.00000415       0.00207678      27.14278524        1       0.00000000       0.00001280      -0.00395926       0.00600224
Pt       2.80634221      -0.00482893      26.89809502        1       0.00000000       0.00624995       0.00442825      -0.00215156
Pt       5.61547748      -0.00267524      26.89826317        1       0.00000000      -0.00693533       0.00243593      -0.00315826
Pt       1.40157413       2.43137005      26.89856063        1       0.00000000       0.00281458       0.00646419      -0.00428519
Pt       4.21081085       2.43097972      26.90645262        1       0.00000000       0.00004127       0.00002051      -0.00081514
Pt       7.02184846       2.43258684      26.89837157        1       0.00000000      -0.00425905       0.00490228      -0.00337223
Pt       2.80451198       4.86529799      26.89788127        1       0.00000000      -0.00254967      -0.00581272      -0.00206066
Pt       5.61519058       4.86436358      26.89798886        1       0.00000000       0.00460016      -0.00540248      -0.00295283
Pt       8.42164204       4.86210441      26.91182673        1       0.00000000       0.00003748       0.00013129       0.00177953
C        0.00000386       0.00076960      29.22676608        0       1.00000000      -0.00002169      -0.00220682      -0.02367722
H       -0.90570912      -0.52314519      29.56530584        0       0.00000000      -0.00065618      -0.00030462       0.01105862
H        0.00008008       1.04531665      29.57117203        0       0.00000000       0.00033194      -0.00090360      -0.00059968
H        0.90561141      -0.52333951      29.56529885        0       0.00000000       0.00033301      -0.00050039       0.01105029
