40
Lattice="8.421641763931781 0.0 0.0 4.2108208819658905 7.293355709136913 0.0 0.0 0.0 46.87624170604845" Properties=species:S:1:pos:R:3:tags:I:1:initial_magmoms:R:1:forces:R:3 charge=0 spin=0 energy=-206.89734579868042 free_energy=-206.89734579868042 stress="0.010351866483688354 3.1492837138102914e-07 -3.437786517679342e-07 3.1492837138102914e-07 0.010366151109337807 7.854683644836769e-06 -3.437786517679342e-07 7.854683644836769e-06 -0.0003748745657503605" pbc="T T T"
Pt      -0.00000001       0.00000004      19.95723550        4       0.00000000      -0.00001938       0.00015137       0.01350982
Pt       2.80721400      -0.00000009      19.95723557        4       0.00000000      -0.00180646      -0.00460527       0.01711085
Pt       5.61442776      -0.00000012      19.95723555        4       0.00000000       0.00187294      -0.00328742       0.01924655
Pt       1.40360718       2.43111835      19.95723542        4       0.00000000      -0.00404798       0.00053950       0.01905680
Pt       4.21082079       2.43111843      19.95723552        4       0.00000000      -0.00002415       0.00014306       0.02530761
Pt       7.01803481       2.43111844      19.95723550        4       0.00000000       0.00514972       0.00131999       0.01696503
Pt       2.80721421       4.86223734      19.95723529        4       0.00000000      -0.00338305       0.00411423       0.01712900
Pt       5.61442795       4.86223729      19.95723542        4       0.00000000       0.00208350       0.00351041       0.01914312
Pt       8.42164148       4.86223724      19.95723551        4       0.00000000      -0.00005248      -0.00036946      -0.03646211
Pt       1.40360717       0.81037261      22.29206804        3       0.00000000      -0.00051601      -0.00265819      -0.00477887
Pt       4.21082121       0.81037256      22.29206808        3       0.00000000       0.00434847      -0.01032821      -0.06746664
Pt       7.01803485       0.81037259      22.29206811        3       0.00000000       0.00331871       0.00224078      -0.00478572
Pt       2.80721434       3.24149110      22.29206780        3       0.00000000      -0.01163284       0.00243876      -0.06756050
Pt       5.61442775       3.24149130      22.29206801        3       0.00000000       0.00738834       0.01007000      -0.06762645
Pt       8.42164144       3.24149143      22.29206808        3       0.00000000      -0.00189590       0.07567745      -0.14750361
Pt       4.21082099       5.67261006      22.29206776        3       0.00000000      -0.00279282       0.00323618      -0.00309420
Pt       7.01803485       5.67260985      22.29206778        3       0.00000000       0.06650645      -0.03560012      -0.14910546
Pt       9.82524820       5.67261061      22.29206807        3       0.00000000      -0.06461891      -0.03864174      -0.14902872
Pt      -0.00000053       1.62074559      24.58417356        2       0.00000000      -0.00294834      -0.24784130       0.24229363
Pt       2.80721447       1.62074548      24.58417379        2       0.00000000      -0.00258501      -0.00429889      -0.02425824
Pt       5.61442782       1.62074544      24.58417375        2       0.00000000       0.00205580      -0.00480436      -0.02440902
Pt       1.40360648       4.05186445      24.58417388        2       0.00000000      -0.02051059       0.00770537      -0.05505453
Pt       4.21082098       4.05186402      24.58417384        2       0.00000000       0.00021922       0.00415491      -0.01838356
Pt       7.01803473       4.05186413      24.58417382        2       0.00000000       0.01895495       0.01101020      -0.05521186
Pt       2.80721282       6.48298339      24.58417358        2       0.00000000       0.21575634       0.11511828       0.25761181
Pt       5.61442787       6.48298335      24.58417389        2       0.00000000      -0.21266392       0.12078989       0.25742656
Pt       8.42164231       6.48298348      24.58417365        2       0.00000000       0.00179261      -0.02447654      -0.05554217
Pt       0.00004131      -0.00298791      27.14196686        1       0.00000000       0.00008680       0.00187438      -0.01751777
Pt       2.81031604      -0.00592260      26.89434484        1       0.00000000      -0.02004777      -0.00617890       0.01142414
Pt       5.61132345      -0.00466150      26.89410680        1       0.00000000       0.02003150      -0.00571410       0.01179795
Pt       1.40221299       2.43058047      26.89321263        1       0.00000000      -0.00543696      -0.00852152       0.01592585
Pt       4.21082489       2.42861325      26.91273014        1       0.00000000      -0.00010093      -0.00014222      -0.01621151
Pt       7.02047706       2.43106619      26.89352246        1       0.00000000       0.00603379      -0.00807670       0.01532455
Pt       2.80095551       4.85610223      26.89569890        1       0.00000000       0.01741169       0.02814212       0.00818558
Pt       5.61968399       4.85539530      26.89527085        1       0.00000000      -0.01773852       0.02799435       0.00893708
Pt       8.42169983       4.85980122      26.92171327        1       0.00000000      -0.00017565      -0.00032639      -0.02342725
C        0.00005471       0.01023612      29.22413902        0       1.00000000      -0.00024081      -0.00501991       0.01475030
H        0.00076693       1.05729875      29.56381333        0       0.00000000       0.00071707      -0.02682499      -0.00977179
H        0.90564038      -0.51271273      29.56694211        0       0.00000000      -0.01595968       0.00893639       0.00298093
H       -0.90639922      -0.51122983      29.56687398        0       0.00000000       0.01547028       0.00854850       0.00307264
