40
Lattice="8.421641763931781 0.0 0.0 4.2108208819658905 7.293355709136913 0.0 0.0 0.0 46.87624170604845" Properties=species:S:1:pos:R:3:tags:I:1:initial_magmoms:R:1:forces:R:3 charge=0 spin=0 energy=-206.89379431552612 free_energy=-206.89379431552612 stress="0.010169285349547863 -1.6336367991698353e-07 -1.1005906408456667e-08 -1.6336367991698353e-07 0.010169195011258125 1.368173485616353e-07 -1.1005906408456667e-08 1.368173485616353e-07 -0.0007338305003941059" pbc="T T T"
Pt      -0.00000001       0.00000004      19.95723550        4       0.00000000       0.00000062      -0.00000172       0.01279159
Pt       2.80721400      -0.00000009      19.95723557        4       0.00000000      -0.00181277      -0.00506492       0.01678825
Pt       5.61442776      -0.00000012      19.95723555        4       0.00000000       0.00194454      -0.00337291       0.01922743
Pt       1.40360718       2.43111835      19.95723542        4       0.00000000      -0.00390503       0.00001297       0.01917085
Pt       4.21082079       2.43111843      19.95723552        4       0.00000000       0.00000037      -0.00000546       0.02501795
Pt       7.01803481       2.43111844      19.95723550        4       0.00000000       0.00531144       0.00094473       0.01678350
Pt       2.80721421       4.86223734      19.95723529        4       0.00000000      -0.00350100       0.00411782       0.01687215
Pt       5.61442795       4.86223729      19.95723542        4       0.00000000       0.00196006       0.00336087       0.01921916
Pt       8.42164148       4.86223724      19.95723551        4       0.00000000       0.00000348       0.00000393      -0.03743938
Pt       1.40360717       0.81037261      22.29206804        3       0.00000000      -0.00064578      -0.00434293      -0.00343967
Pt       4.21082121       0.81037256      22.29206808        3       0.00000000       0.00391173      -0.01099825      -0.06657024
Pt       7.01803485       0.81037259      22.29206811        3       0.00000000       0.00404164       0.00164078      -0.00348357
Pt       2.80721434       3.24149110      22.29206780        3       0.00000000      -0.01149531       0.00209668      -0.06636021
Pt       5.61442775       3.24149130      22.29206801        3       0.00000000       0.00758600       0.00892435      -0.06640717
Pt       8.42164144       3.24149143      22.29206808        3       0.00000000      -0.00159614       0.07593391      -0.14750080
Pt       4.21082099       5.67261006      22.29206776        3       0.00000000      -0.00339847       0.00266067      -0.00330856
Pt       7.01803485       5.67260985      22.29206778        3       0.00000000       0.06651744      -0.03661236      -0.14750421
Pt       9.82524820       5.67261061      22.29206807        3       0.00000000      -0.06492542      -0.03933172      -0.14749596
Pt      -0.00000053       1.62074559      24.58417356        2       0.00000000      -0.00078977      -0.24258173       0.20518802
Pt       2.80721447       1.62074548      24.58417379        2       0.00000000      -0.00555341       0.00197590      -0.05535282
Pt       5.61442782       1.62074544      24.58417375        2       0.00000000       0.00084407      -0.00593740      -0.05535226
Pt       1.40360648       4.05186445      24.58417388        2       0.00000000      -0.02683360       0.00565970      -0.09065515
Pt       4.21082098       4.05186402      24.58417384        2       0.00000000       0.00454492       0.00369770      -0.05544303
Pt       7.01803473       4.05186413      24.58417382        2       0.00000000       0.01858370       0.02033866      -0.09090976
Pt       2.80721282       6.48298339      24.58417358        2       0.00000000       0.21029294       0.12063656       0.20558278
Pt       5.61442787       6.48298335      24.58417389        2       0.00000000      -0.20948559       0.12221801       0.20532461
Pt       8.42164231       6.48298348      24.58417365        2       0.00000000       0.00838536      -0.02588517      -0.09050712
Pt      -0.00000004       0.00012405      27.12253537        1       0.00000000      -0.00002062       0.00005900      -0.02432938
Pt       2.81030979      -0.00457122      26.88481188        1       0.00000000      -0.00175778       0.00319447       0.04713314
Pt       5.61556761      -0.00289252      26.88825940        1       0.00000000      -0.00260489       0.00230500       0.04048958
Pt       1.40053326       2.43155966      26.88814339        1       0.00000000       0.00327316       0.00118749       0.04064432
Pt       4.21081270       2.43112777      26.90235393        1       0.00000000       0.00001285       0.00001809       0.01623473
Pt       7.02043403       2.43607018      26.88467851        1       0.00000000      -0.00177774      -0.00308125       0.04739667
Pt       2.80172777       4.86189470      26.88474849        1       0.00000000       0.00357226       0.00005016       0.04713820
Pt       5.61635809       4.86473914      26.88804468        1       0.00000000      -0.00070799      -0.00334463       0.04071522
Pt       8.42165579       4.86224787      26.91384154        1       0.00000000       0.00001817       0.00004594       0.00461651
C       -0.00000003       0.00002968      29.20169776        0       1.00000000       0.00005007      -0.00026520      -0.00874372
H        1.04661271       0.00002648      29.53797573        0       0.00000000       0.00284957       0.00006617       0.03814470
H       -0.52325621      -0.90653904      29.53755626        0       0.00000000      -0.00160182      -0.00266335       0.03838327
H       -0.52335481       0.90624359      29.53839631        0       0.00000000      -0.00129112       0.00233960       0.03794023
