40
Lattice="8.421641763931781 0.0 0.0 4.2108208819658905 7.293355709136913 0.0 0.0 0.0 46.87624170604845" Properties=species:S:1:pos:R:3:tags:I:1:initial_magmoms:R:1:forces:R:3 charge=0 spin=0 energy=-206.89610983676636 free_energy=-206.89610983676636 stress="0.010364209301769733 1.2222626821767335e-07 7.0294929876979495e-09 1.2222626821767335e-07 0.010364342480897903 -4.186469766409573e-07 7.0294929876979495e-09 -4.186469766409573e-07 -0.0003273809561505914" pbc="T T T"
Pt      -0.00000001       0.00000004      19.95723550        4       0.00000000       0.00000138       0.00000213       0.01359254
Pt       2.80721400      -0.00000009      19.95723557        4       0.00000000      -0.00179118      -0.00489145       0.01722701
Pt       5.61442776      -0.00000012      19.95723555        4       0.00000000       0.00184438      -0.00364290       0.01908633
Pt       1.40360718       2.43111835      19.95723542        4       0.00000000      -0.00409100       0.00024164       0.01902881
Pt       4.21082079       2.43111843      19.95723552        4       0.00000000       0.00000180      -0.00000029       0.02544198
Pt       7.01803481       2.43111844      19.95723550        4       0.00000000       0.00514599       0.00088463       0.01721838
Pt       2.80721421       4.86223734      19.95723529        4       0.00000000      -0.00335965       0.00401194       0.01731147
Pt       5.61442795       4.86223729      19.95723542        4       0.00000000       0.00224380       0.00340670       0.01907355
Pt       8.42164148       4.86223724      19.95723551        4       0.00000000       0.00000350      -0.00000717      -0.03645295
Pt       1.40360717       0.81037261      22.29206804        3       0.00000000      -0.00058782      -0.00292872      -0.00398476
Pt       4.21082121       0.81037256      22.29206808        3       0.00000000       0.00450398      -0.01092768      -0.06746387
Pt       7.01803485       0.81037259      22.29206811        3       0.00000000       0.00280586       0.00101376      -0.00399416
Pt       2.80721434       3.24149110      22.29206780        3       0.00000000      -0.01173735       0.00155231      -0.06724530
Pt       5.61442775       3.24149130      22.29206801        3       0.00000000       0.00723130       0.00940567      -0.06726389
Pt       8.42164144       3.24149143      22.29206808        3       0.00000000      -0.00189980       0.07547491      -0.14932455
Pt       4.21082099       5.67261006      22.29206776        3       0.00000000      -0.00222231       0.00193385      -0.00376858
Pt       7.01803485       5.67260985      22.29206778        3       0.00000000       0.06630728      -0.03611334      -0.14935054
Pt       9.82524820       5.67261061      22.29206807        3       0.00000000      -0.06440149      -0.03937385      -0.14934126
Pt      -0.00000053       1.62074559      24.58417356        2       0.00000000      -0.00533820      -0.24700484       0.25662813
Pt       2.80721447       1.62074548      24.58417379        2       0.00000000      -0.00422509      -0.00634885      -0.01665391
Pt       5.61442782       1.62074544      24.58417375        2       0.00000000       0.00745721      -0.00052095      -0.01666467
Pt       1.40360648       4.05186445      24.58417388        2       0.00000000      -0.01652338       0.01168269      -0.05049175
Pt       4.21082098       4.05186402      24.58417384        2       0.00000000      -0.00328204       0.00674167      -0.01663032
Pt       7.01803473       4.05186413      24.58417382        2       0.00000000       0.01856963       0.00837091      -0.05059263
Pt       2.80721282       6.48298339      24.58417358        2       0.00000000       0.21633443       0.11879349       0.25674224
Pt       5.61442787       6.48298335      24.58417389        2       0.00000000      -0.21094607       0.12811211       0.25664407
Pt       8.42164231       6.48298348      24.58417365        2       0.00000000      -0.00203513      -0.02004430      -0.05044065
Pt       0.00000027      -0.00013496      27.14584070        1       0.00000000       0.00000423       0.00006558      -0.01023086
Pt       2.80842597      -0.00360244      26.89736587        1       0.00000000      -0.01635281      -0.00214762       0.00531487
Pt       5.61097837      -0.00253756      26.89420353        1       0.00000000       0.01543985      -0.00126794       0.00725906
Pt       1.40313008       2.43532974      26.89416315        1       0.00000000      -0.00873569      -0.01281292       0.00723202
Pt       4.21082080       2.43110330      26.91232484        1       0.00000000      -0.00001555      -0.00004337      -0.01693770
Pt       7.02054615       2.43392640      26.89729359        1       0.00000000       0.00995956      -0.01321022       0.00499903
Pt       2.80348437       4.86296123      26.89732533        1       0.00000000       0.00639807       0.01525178       0.00504943
Pt       5.61836446       4.86049835      26.89414564        1       0.00000000      -0.00671705       0.01399276       0.00732933
Pt       8.42164439       4.86222206      26.92030164        1       0.00000000       0.00001328      -0.00003311      -0.02096110
C       -0.00000064       0.00001826      29.22939489        0       1.00000000      -0.00002781       0.00003758      -0.02151773
H        0.52274168      -0.90479384      29.57151710        0       0.00000000       0.00580709      -0.00993748       0.00458239
H       -1.04509053      -0.00024206      29.57112167        0       0.00000000      -0.01146174       0.00033309       0.00470866
H        0.52234549       0.90535267      29.57072979        0       0.00000000       0.00567836       0.00994797       0.00484208
