40
Lattice="8.421641763931781 0.0 0.0 4.2108208819658905 7.293355709136913 0.0 0.0 0.0 46.87624170604845" Properties=species:S:1:pos:R:3:tags:I:1:initial_magmoms:R:1:forces:R:3 charge=0 spin=0 energy=-206.89748884982788 free_energy=-206.89748884982788 stress="0.010361693799495697 -8.10527239991643e-07 4.1626086044743715e-07 -8.10527239991643e-07 0.010353493504226208 -7.13831923349062e-06 4.1626086044743715e-07 -7.13831923349062e-06 -0.00037488024099729955" pbc="T T T"
Pt      -0.00000001       0.00000004      19.95723550        4       0.00000000       0.00002123      -0.00014817       0.01359841
Pt       2.80721400      -0.00000009      19.95723557        4       0.00000000      -0.00158782      -0.00548417       0.01704357
Pt       5.61442776      -0.00000012      19.95723555        4       0.00000000       0.00176626      -0.00394278       0.01914715
Pt       1.40360718       2.43111835      19.95723542        4       0.00000000      -0.00405650      -0.00008684       0.01923572
Pt       4.21082079       2.43111843      19.95723552        4       0.00000000       0.00002681      -0.00016794       0.02544266
Pt       7.01803481       2.43111844      19.95723550        4       0.00000000       0.00531034       0.00070085       0.01718432
Pt       2.80721421       4.86223734      19.95723529        4       0.00000000      -0.00366016       0.00389459       0.01720409
Pt       5.61442795       4.86223729      19.95723542        4       0.00000000       0.00235184       0.00323121       0.01923742
Pt       8.42164148       4.86223724      19.95723551        4       0.00000000       0.00006068       0.00038337      -0.03661296
Pt       1.40360717       0.81037261      22.29206804        3       0.00000000      -0.00060585      -0.00446180      -0.00409765
Pt       4.21082121       0.81037256      22.29206808        3       0.00000000       0.00413902      -0.01140996      -0.06762078
Pt       7.01803485       0.81037259      22.29206811        3       0.00000000       0.00328744       0.00038127      -0.00414411
Pt       2.80721434       3.24149110      22.29206780        3       0.00000000      -0.01144950       0.00096875      -0.06713646
Pt       5.61442775       3.24149130      22.29206801        3       0.00000000       0.00717363       0.00815266      -0.06712411
Pt       8.42164144       3.24149143      22.29206808        3       0.00000000      -0.00171943       0.07505544      -0.14964649
Pt       4.21082099       5.67261006      22.29206776        3       0.00000000      -0.00272871       0.00114942      -0.00544465
Pt       7.01803485       5.67260985      22.29206778        3       0.00000000       0.06576417      -0.03672165      -0.14800595
Pt       9.82524820       5.67261061      22.29206807        3       0.00000000      -0.06403699      -0.03988062      -0.14805807
Pt      -0.00000053       1.62074559      24.58417356        2       0.00000000      -0.00365967      -0.24353015       0.26056412
Pt       2.80721447       1.62074548      24.58417379        2       0.00000000      -0.00838809      -0.00163733      -0.01744936
Pt       5.61442782       1.62074544      24.58417375        2       0.00000000       0.00844588      -0.00150037      -0.01736228
Pt       1.40360648       4.05186445      24.58417388        2       0.00000000      -0.02261399       0.01207552      -0.05659433
Pt       4.21082098       4.05186402      24.58417384        2       0.00000000       0.00021970       0.00820256      -0.02297490
Pt       7.01803473       4.05186413      24.58417382        2       0.00000000       0.01995063       0.01649953      -0.05661013
Pt       2.80721282       6.48298339      24.58417358        2       0.00000000       0.21318801       0.12513079       0.24505810
Pt       5.61442787       6.48298335      24.58417389        2       0.00000000      -0.20948696       0.13115630       0.24508156
Pt       8.42164231       6.48298348      24.58417365        2       0.00000000       0.00246088      -0.02210312      -0.05601517
Pt       0.00001312       0.00330635      27.14204425        1       0.00000000      -0.00013439      -0.00172125      -0.01724022
Pt       2.81103484      -0.00189866      26.89487583        1       0.00000000      -0.02196190       0.00524968       0.01165856
Pt       5.61112637      -0.00073472      26.89422342        1       0.00000000       0.02100379       0.00569240       0.01282560
Pt       1.40359125       2.44050206      26.89509553        1       0.00000000      -0.01605763      -0.02852424       0.00852667
Pt       4.21083535       2.43346685      26.91094809        1       0.00000000       0.00009850       0.00111169      -0.01407127
Pt       7.01890806       2.44155309      26.89563029        1       0.00000000       0.01662972      -0.02900520       0.00749546
Pt       2.80309352       4.86643324      26.89345726        1       0.00000000       0.00324389       0.00943655       0.01499924
Pt       5.61729377       4.86630614      26.89297478        1       0.00000000      -0.00321280       0.00847338       0.01540981
Pt       8.42160006       4.86508030      26.92288905        1       0.00000000       0.00022396      -0.00033068      -0.02437985
C       -0.00002955      -0.00998240      29.22411794        0       1.00000000       0.00024420       0.00486364       0.01376472
H        0.90640463       0.51139238      29.56706725        0       0.00000000      -0.01495543      -0.00887908       0.00267978
H       -0.00074535      -1.05724838      29.56315344        0       0.00000000      -0.00088916       0.02676528      -0.00825326
H       -0.90562137       0.51287001      29.56707326        0       0.00000000       0.01559434      -0.00903971       0.00268496
