40
Lattice="8.421641763931781 0.0 0.0 4.2108208819658905 7.293355709136913 0.0 0.0 0.0 46.87624170604845" Properties=species:S:1:pos:R:3:tags:I:1:initial_magmoms:R:1:forces:R:3 charge=0 spin=0 energy=-206.896111744115 free_energy=-206.896111744115 stress="0.010364183224737644 1.2404808558130753e-07 9.485581209389693e-09 1.2404808558130753e-07 0.010364334098994732 -4.146111791669682e-07 9.485581209389693e-09 -4.146111791669682e-07 -0.00032737464061938226" pbc="T T T"
Pt      -0.00000001       0.00000004      19.95723550        4       0.00000000       0.00000153       0.00000237       0.01359244
Pt       2.80721400      -0.00000009      19.95723557        4       0.00000000      -0.00179117      -0.00489139       0.01722697
Pt       5.61442776      -0.00000012      19.95723555        4       0.00000000       0.00184433      -0.00364291       0.01908623
Pt       1.40360718       2.43111835      19.95723542        4       0.00000000      -0.00409113       0.00024151       0.01902857
Pt       4.21082079       2.43111843      19.95723552        4       0.00000000       0.00000191      -0.00000032       0.02544185
Pt       7.01803481       2.43111844      19.95723550        4       0.00000000       0.00514599       0.00088478       0.01721849
Pt       2.80721421       4.86223734      19.95723529        4       0.00000000      -0.00335960       0.00401188       0.01731147
Pt       5.61442795       4.86223729      19.95723542        4       0.00000000       0.00224375       0.00340676       0.01907350
Pt       8.42164148       4.86223724      19.95723551        4       0.00000000       0.00000356      -0.00000722      -0.03645298
Pt       1.40360717       0.81037261      22.29206804        3       0.00000000      -0.00058804      -0.00292890      -0.00398497
Pt       4.21082121       0.81037256      22.29206808        3       0.00000000       0.00450374      -0.01092752      -0.06746367
Pt       7.01803485       0.81037259      22.29206811        3       0.00000000       0.00280601       0.00101373      -0.00399441
Pt       2.80721434       3.24149110      22.29206780        3       0.00000000      -0.01173741       0.00155216      -0.06724505
Pt       5.61442775       3.24149130      22.29206801        3       0.00000000       0.00723108       0.00940563      -0.06726363
Pt       8.42164144       3.24149143      22.29206808        3       0.00000000      -0.00189981       0.07547514      -0.14932355
Pt       4.21082099       5.67261006      22.29206776        3       0.00000000      -0.00222225       0.00193398      -0.00376829
Pt       7.01803485       5.67260985      22.29206778        3       0.00000000       0.06630728      -0.03611330      -0.14935069
Pt       9.82524820       5.67261061      22.29206807        3       0.00000000      -0.06440159      -0.03937391      -0.14934118
Pt      -0.00000053       1.62074559      24.58417356        2       0.00000000      -0.00533800      -0.24700403       0.25662673
Pt       2.80721447       1.62074548      24.58417379        2       0.00000000      -0.00422477      -0.00634886      -0.01665442
Pt       5.61442782       1.62074544      24.58417375        2       0.00000000       0.00745696      -0.00052104      -0.01666496
Pt       1.40360648       4.05186445      24.58417388        2       0.00000000      -0.01652400       0.01168277      -0.05049229
Pt       4.21082098       4.05186402      24.58417384        2       0.00000000      -0.00328183       0.00674204      -0.01663085
Pt       7.01803473       4.05186413      24.58417382        2       0.00000000       0.01857019       0.00837080      -0.05059377
Pt       2.80721282       6.48298339      24.58417358        2       0.00000000       0.21633333       0.11879253       0.25674081
Pt       5.61442787       6.48298335      24.58417389        2       0.00000000      -0.21094556       0.12811114       0.25664353
Pt       8.42164231       6.48298348      24.58417365        2       0.00000000      -0.00203514      -0.02004408      -0.05044043
Pt       0.00000024      -0.00013489      27.14584015        1       0.00000000       0.00000101       0.00006130      -0.01020983
Pt       2.80842591      -0.00360240      26.89736566        1       0.00000000      -0.01635012      -0.00214838       0.00531457
Pt       5.61097840      -0.00253765      26.89420332        1       0.00000000       0.01543929      -0.00126831       0.00725838
Pt       1.40313038       2.43532978      26.89416332        1       0.00000000      -0.00873577      -0.01281247       0.00723216
Pt       4.21082078       2.43110335      26.91232477        1       0.00000000      -0.00001504      -0.00004513      -0.01693628
Pt       7.02054610       2.43392646      26.89729379        1       0.00000000       0.00995911      -0.01320975       0.00499944
Pt       2.80348438       4.86296102      26.89732505        1       0.00000000       0.00639870       0.01525441       0.00504956
Pt       5.61836459       4.86049814      26.89414580        1       0.00000000      -0.00671891       0.01399460       0.00732848
Pt       8.42164429       4.86222214      26.92030154        1       0.00000000       0.00001370      -0.00003236      -0.02096139
C       -0.00000106       0.00001788      29.22939404        0       1.00000000       0.00002204       0.00006891      -0.02155910
H       -1.04508992      -0.00024197      29.57112106        0       0.00000000      -0.01151167       0.00033073       0.00472329
H        0.52234542       0.90535284      29.57072832        0       0.00000000       0.00567314       0.00994093       0.00484280
H        0.52274161      -0.90479352      29.57151596        0       0.00000000       0.00581511      -0.00995824       0.00459246
