40
Lattice="8.421641763931781 0.0 0.0 4.2108208819658905 7.293355709136913 0.0 0.0 0.0 46.87624170604845" Properties=species:S:1:pos:R:3:tags:I:1:initial_magmoms:R:1:forces:R:3 charge=0 spin=0 energy=-206.89795042819702 free_energy=-206.89795042819702 stress="0.010357290506362915 -5.4265914428697215e-08 -9.356701191620687e-09 -5.4265914428697215e-08 0.010355471633374691 -2.8749445846187882e-06 -9.356701191620687e-09 -2.8749445846187882e-06 -0.0003519798337947577" pbc="T T T"
Pt      -0.00000001       0.00000004      19.95723550        4       0.00000000       0.00000860       0.00003013       0.01322303
Pt       2.80721400      -0.00000009      19.95723557        4       0.00000000      -0.00193239      -0.00484227       0.01727440
Pt       5.61442776      -0.00000012      19.95723555        4       0.00000000       0.00198428      -0.00339382       0.01937499
Pt       1.40360718       2.43111835      19.95723542        4       0.00000000      -0.00387196      -0.00004949       0.01925024
Pt       4.21082079       2.43111843      19.95723552        4       0.00000000       0.00002731      -0.00001445       0.02528244
Pt       7.01803481       2.43111844      19.95723550        4       0.00000000       0.00510144       0.00069697       0.01720004
Pt       2.80721421       4.86223734      19.95723529        4       0.00000000      -0.00317402       0.00404759       0.01732152
Pt       5.61442795       4.86223729      19.95723542        4       0.00000000       0.00190005       0.00331666       0.01930287
Pt       8.42164148       4.86223724      19.95723551        4       0.00000000      -0.00000261      -0.00017595      -0.03670543
Pt       1.40360717       0.81037261      22.29206804        3       0.00000000      -0.00035003      -0.00342614      -0.00273489
Pt       4.21082121       0.81037256      22.29206808        3       0.00000000       0.00445737      -0.01138524      -0.06719100
Pt       7.01803485       0.81037259      22.29206811        3       0.00000000       0.00308719       0.00148275      -0.00275649
Pt       2.80721434       3.24149110      22.29206780        3       0.00000000      -0.01208169       0.00175005      -0.06724754
Pt       5.61442775       3.24149130      22.29206801        3       0.00000000       0.00758204       0.00947617      -0.06725713
Pt       8.42164144       3.24149143      22.29206808        3       0.00000000      -0.00184417       0.07541896      -0.15036422
Pt       4.21082099       5.67261006      22.29206776        3       0.00000000      -0.00275738       0.00180059      -0.00234916
Pt       7.01803485       5.67260985      22.29206778        3       0.00000000       0.06681895      -0.03663037      -0.15041289
Pt       9.82524820       5.67261061      22.29206807        3       0.00000000      -0.06495193      -0.03976352      -0.15032998
Pt      -0.00000053       1.62074559      24.58417356        2       0.00000000      -0.00280846      -0.24462676       0.25447172
Pt       2.80721447       1.62074548      24.58417379        2       0.00000000      -0.00859123      -0.00464529      -0.02165728
Pt       5.61442782       1.62074544      24.58417375        2       0.00000000       0.00836167      -0.00490133      -0.02165132
Pt       1.40360648       4.05186445      24.58417388        2       0.00000000      -0.01192754       0.00513145      -0.04681917
Pt       4.21082098       4.05186402      24.58417384        2       0.00000000       0.00013844       0.00953527      -0.02139414
Pt       7.01803473       4.05186413      24.58417382        2       0.00000000       0.01005054       0.00873531      -0.04697826
Pt       2.80721282       6.48298339      24.58417358        2       0.00000000       0.21195149       0.11999914       0.25290549
Pt       5.61442787       6.48298335      24.58417389        2       0.00000000      -0.20913357       0.12494710       0.25271121
Pt       8.42164231       6.48298348      24.58417365        2       0.00000000       0.00195808      -0.01235751      -0.04577386
Pt      -0.00002479      -0.00371687      27.14350315        1       0.00000000       0.00008271       0.01766356      -0.01278597
Pt       2.80654284      -0.00282937      26.89802697        1       0.00000000       0.00422644      -0.00422949      -0.00175665
Pt       5.61504912      -0.00110774      26.89773674        1       0.00000000      -0.00423872      -0.00496784      -0.00111009
Pt       1.40189700       2.43191988      26.89729652        1       0.00000000      -0.00378504       0.00206278      -0.00063284
Pt       4.21080049       2.43145194      26.90537348        1       0.00000000       0.00014503      -0.00092924       0.00431099
Pt       7.02129048       2.43277086      26.89753144        1       0.00000000       0.00288330       0.00153904      -0.00129164
Pt       2.80446774       4.86509486      26.89788494        1       0.00000000      -0.00710858      -0.00567291      -0.00112903
Pt       5.61572505       4.86422794      26.89752543        1       0.00000000       0.00771897      -0.00537224      -0.00051486
Pt       8.42164272       4.86257510      26.91409805        1       0.00000000       0.00009959      -0.00093856      -0.00599231
C        0.00001559      -0.00121982      29.22529227        0       1.00000000      -0.00050216       0.00637759       0.01182174
H        0.00055568       1.04430881      29.56635913        0       0.00000000       0.00050425       0.00797371       0.00175078
H        0.90480297      -0.52317078      29.56917196        0       0.00000000       0.00640524      -0.00691953       0.00040901
H       -0.90538745      -0.52210910      29.56918638        0       0.00000000      -0.00643171      -0.00674308       0.00022555
