40
Lattice="8.421641763931781 0.0 0.0 4.2108208819658905 7.293355709136913 0.0 0.0 0.0 46.87624170604845" Properties=species:S:1:pos:R:3:tags:I:1:initial_magmoms:R:1:forces:R:3 charge=0 spin=0 energy=-206.89628531284058 free_energy=-206.89628531284058 stress="0.01036442257463932 4.394583896782933e-08 -1.5866991276425324e-08 4.394583896782933e-08 0.010364368557929993 1.1300909363853862e-07 -1.5866991276425324e-08 1.1300909363853862e-07 -0.00032732533873058856" pbc="T T T"
Pt      -0.00000001       0.00000004      19.95723550        4       0.00000000       0.00000097      -0.00000144       0.01356659
Pt       2.80721400      -0.00000009      19.95723557        4       0.00000000      -0.00175370      -0.00508970       0.01698547
Pt       5.61442776      -0.00000012      19.95723555        4       0.00000000       0.00190819      -0.00339130       0.01938917
Pt       1.40360718       2.43111835      19.95723542        4       0.00000000      -0.00390383       0.00005457       0.01933742
Pt       4.21082079       2.43111843      19.95723552        4       0.00000000       0.00000077      -0.00000316       0.02549272
Pt       7.01803481       2.43111844      19.95723550        4       0.00000000       0.00529953       0.00100771       0.01697945
Pt       2.80721421       4.86223734      19.95723529        4       0.00000000      -0.00354807       0.00407619       0.01706984
Pt       5.61442795       4.86223729      19.95723542        4       0.00000000       0.00199359       0.00333623       0.01938194
Pt       8.42164148       4.86223724      19.95723551        4       0.00000000       0.00000299       0.00000472      -0.03659856
Pt       1.40360717       0.81037261      22.29206804        3       0.00000000      -0.00025038      -0.00409233      -0.00410463
Pt       4.21082121       0.81037256      22.29206808        3       0.00000000       0.00407468      -0.01125363      -0.06719253
Pt       7.01803485       0.81037259      22.29206811        3       0.00000000       0.00362868       0.00185875      -0.00412819
Pt       2.80721434       3.24149110      22.29206780        3       0.00000000      -0.01179611       0.00207134      -0.06696092
Pt       5.61442775       3.24149130      22.29206801        3       0.00000000       0.00772020       0.00918316      -0.06698523
Pt       8.42164144       3.24149143      22.29206808        3       0.00000000      -0.00167170       0.07535059      -0.14944223
Pt       4.21082099       5.67261006      22.29206776        3       0.00000000      -0.00337947       0.00220161      -0.00392900
Pt       7.01803485       5.67260985      22.29206778        3       0.00000000       0.06605876      -0.03624231      -0.14943199
Pt       9.82524820       5.67261061      22.29206807        3       0.00000000      -0.06438253      -0.03911107      -0.14942965
Pt      -0.00000053       1.62074559      24.58417356        2       0.00000000      -0.00123094      -0.24652837       0.25648209
Pt       2.80721447       1.62074548      24.58417379        2       0.00000000      -0.00791890      -0.00026904      -0.01631370
Pt       5.61442782       1.62074544      24.58417375        2       0.00000000       0.00407154      -0.00669398      -0.01632397
Pt       1.40360648       4.05186445      24.58417388        2       0.00000000      -0.02089951       0.00435351      -0.05072446
Pt       4.21082098       4.05186402      24.58417384        2       0.00000000       0.00378781       0.00690559      -0.01639447
Pt       7.01803473       4.05186413      24.58417382        2       0.00000000       0.01442839       0.01580665      -0.05084364
Pt       2.80721282       6.48298339      24.58417358        2       0.00000000       0.21398541       0.12225739       0.25656906
Pt       5.61442787       6.48298335      24.58417389        2       0.00000000      -0.21272583       0.12446020       0.25645930
Pt       8.42164231       6.48298348      24.58417365        2       0.00000000       0.00648371      -0.02012727      -0.05068526
Pt      -0.00000032       0.00011486      27.14587046        1       0.00000000      -0.00000340      -0.00015963      -0.01030707
Pt       2.81108700      -0.00380768      26.89463147        1       0.00000000      -0.01649582      -0.00185338       0.00677837
Pt       5.61365539      -0.00266767      26.89699417        1       0.00000000       0.01535340      -0.00103807       0.00589718
Pt       1.40168011       2.43314124      26.89696787        1       0.00000000      -0.00864403      -0.01281984       0.00563805
Pt       4.21082046       2.43113152      26.91158823        1       0.00000000      -0.00001070       0.00001718      -0.01660267
Pt       7.01939141       2.43640083      26.89458753        1       0.00000000       0.00987202      -0.01339169       0.00657347
Pt       2.80199102       4.86083346      26.89457851        1       0.00000000       0.00662947       0.01531839       0.00678530
Pt       5.61711818       4.86295617      26.89689909        1       0.00000000      -0.00670722       0.01393981       0.00559063
Pt       8.42164302       4.86225428      26.92089189        1       0.00000000       0.00002080       0.00002892      -0.02130539
C        0.00000026      -0.00002796      29.22936053        0       1.00000000      -0.00003617      -0.00007297      -0.02143482
H       -0.52415886      -0.90425537      29.57086621        0       0.00000000      -0.00538458      -0.01003482       0.00509678
H       -0.52093556       0.90589988      29.57130066        0       0.00000000      -0.00605629       0.00978013       0.00433565
H        1.04509336      -0.00192940      29.57108204        0       0.00000000       0.01147828       0.00016128       0.00472997
