40
Lattice="8.421641763931781 0.0 0.0 4.2108208819658905 7.293355709136913 0.0 0.0 0.0 46.87624170604845" Properties=species:S:1:pos:R:3:tags:I:1:initial_magmoms:R:1:forces:R:3 charge=0 spin=0 energy=-206.89362074680054 free_energy=-206.89362074680054 stress="0.010168843902647495 -1.4932625447272585e-07 1.3668202569760979e-08 -1.4932625447272585e-07 0.010168967768549919 -3.59758900003726e-07 1.3668202569760979e-08 -3.59758900003726e-07 -0.0007342974422499537" pbc="T T T"
Pt      -0.00000001       0.00000004      19.95723550        4       0.00000000       0.00000331       0.00000134       0.01283516
Pt       2.80721400      -0.00000009      19.95723557        4       0.00000000      -0.00186207      -0.00479662       0.01709264
Pt       5.61442776      -0.00000012      19.95723555        4       0.00000000       0.00186618      -0.00371246       0.01884583
Pt       1.40360718       2.43111835      19.95723542        4       0.00000000      -0.00415866       0.00025105       0.01878574
Pt       4.21082079       2.43111843      19.95723552        4       0.00000000       0.00000103      -0.00000185       0.02499486
Pt       7.01803481       2.43111844      19.95723550        4       0.00000000       0.00509967       0.00077385       0.01708687
Pt       2.80721421       4.86223734      19.95723529        4       0.00000000      -0.00324238       0.00402693       0.01717813
Pt       5.61442795       4.86223729      19.95723542        4       0.00000000       0.00229127       0.00346338       0.01883231
Pt       8.42164148       4.86223724      19.95723551        4       0.00000000       0.00000414      -0.00000355      -0.03730450
Pt       1.40360717       0.81037261      22.29206804        3       0.00000000      -0.00107754      -0.00300030      -0.00333810
Pt       4.21082121       0.81037256      22.29206808        3       0.00000000       0.00436335      -0.01069854      -0.06680965
Pt       7.01803485       0.81037259      22.29206811        3       0.00000000       0.00311366       0.00062078      -0.00337455
Pt       2.80721434       3.24149110      22.29206780        3       0.00000000      -0.01146676       0.00156524      -0.06661951
Pt       5.61442775       3.24149130      22.29206801        3       0.00000000       0.00710209       0.00916628      -0.06663189
Pt       8.42164144       3.24149143      22.29206808        3       0.00000000      -0.00197484       0.07603253      -0.14740850
Pt       4.21082099       5.67261006      22.29206776        3       0.00000000      -0.00204863       0.00238299      -0.00316780
Pt       7.01803485       5.67260985      22.29206778        3       0.00000000       0.06682415      -0.03632755      -0.14741966
Pt       9.82524820       5.67261061      22.29206807        3       0.00000000      -0.06483462      -0.03972236      -0.14743115
Pt      -0.00000053       1.62074559      24.58417356        2       0.00000000      -0.00555430      -0.24305318       0.20536375
Pt       2.80721447       1.62074548      24.58417379        2       0.00000000      -0.00061811      -0.00571127      -0.05533402
Pt       5.61442782       1.62074544      24.58417375        2       0.00000000       0.00495769       0.00220161      -0.05550308
Pt       1.40360648       4.05186445      24.58417388        2       0.00000000      -0.02071760       0.01580981      -0.09084950
Pt       4.21082098       4.05186402      24.58417384        2       0.00000000      -0.00443014       0.00323515      -0.05541917
Pt       7.01803473       4.05186413      24.58417382        2       0.00000000       0.02421894       0.00999916      -0.09095312
Pt       2.80721282       6.48298339      24.58417358        2       0.00000000       0.21300764       0.11661249       0.20545740
Pt       5.61442787       6.48298335      24.58417389        2       0.00000000      -0.20726393       0.12641533       0.20548818
Pt       8.42164231       6.48298348      24.58417365        2       0.00000000      -0.00359952      -0.02567656      -0.09065576
Pt       0.00000491      -0.00010715      27.12248430        1       0.00000000       0.00000627      -0.00007715      -0.02418159
Pt       2.80620699      -0.00439332      26.88837533        1       0.00000000       0.00272138       0.00336503       0.04117189
Pt       5.61143325      -0.00282427      26.88455912        1       0.00000000       0.00180394       0.00298027       0.04696834
Pt       1.40266517       2.43508598      26.88451535        1       0.00000000       0.00164485      -0.00321489       0.04680075
Pt       4.21080890       2.43110938      26.90329488        1       0.00000000       0.00001090      -0.00004369       0.01479485
Pt       7.02233404       2.43239675      26.88817039        1       0.00000000      -0.00422717       0.00062537       0.04147759
Pt       2.80391620       4.86531653      26.88823184        1       0.00000000       0.00153717      -0.00409608       0.04134800
Pt       5.61837295       4.86107230      26.88450305        1       0.00000000      -0.00346748       0.00009722       0.04668507
Pt       8.42164749       4.86222747      26.91311093        1       0.00000000      -0.00002678      -0.00001201       0.00564697
C       -0.00000048      -0.00002939      29.20171609        0       1.00000000       0.00000964       0.00030094      -0.00852086
H        0.52337487      -0.90623616      29.53842437        0       0.00000000       0.00108885      -0.00211523       0.03781272
H       -1.04661410      -0.00005141      29.53801218        0       0.00000000      -0.00258623      -0.00001391       0.03801323
H        0.52323789       0.90654962      29.53760026        0       0.00000000       0.00148077       0.00235048       0.03824249
