40
Lattice="8.421641763931781 0.0 0.0 4.2108208819658905 7.293355709136913 0.0 0.0 0.0 46.87624170604845" Properties=species:S:1:pos:R:3:tags:I:1:initial_magmoms:R:1:forces:R:3 charge=0 spin=0 energy=-206.89362074680054 free_energy=-206.89362074680054 stress="0.010168843902647495 -1.4877939236157545e-07 8.892731884202476e-09 -1.4877939236157545e-07 0.01016895193606615 -3.571416300474084e-07 8.892731884202476e-09 -3.571416300474084e-07 -0.0007342941826209426" pbc="T T T"
Pt      -0.00000001       0.00000004      19.95723550        4       0.00000000       0.00000326       0.00000142       0.01283514
Pt       2.80721400      -0.00000009      19.95723557        4       0.00000000      -0.00186198      -0.00479675       0.01709285
Pt       5.61442776      -0.00000012      19.95723555        4       0.00000000       0.00186615      -0.00371252       0.01884592
Pt       1.40360718       2.43111835      19.95723542        4       0.00000000      -0.00415864       0.00025108       0.01878597
Pt       4.21082079       2.43111843      19.95723552        4       0.00000000       0.00000110      -0.00000195       0.02499491
Pt       7.01803481       2.43111844      19.95723550        4       0.00000000       0.00509973       0.00077374       0.01708666
Pt       2.80721421       4.86223734      19.95723529        4       0.00000000      -0.00324245       0.00402692       0.01717815
Pt       5.61442795       4.86223729      19.95723542        4       0.00000000       0.00229113       0.00346353       0.01883222
Pt       8.42164148       4.86223724      19.95723551        4       0.00000000       0.00000420      -0.00000357      -0.03730458
Pt       1.40360717       0.81037261      22.29206804        3       0.00000000      -0.00107741      -0.00300012      -0.00333877
Pt       4.21082121       0.81037256      22.29206808        3       0.00000000       0.00436332      -0.01069851      -0.06680974
Pt       7.01803485       0.81037259      22.29206811        3       0.00000000       0.00311359       0.00062101      -0.00337428
Pt       2.80721434       3.24149110      22.29206780        3       0.00000000      -0.01146690       0.00156491      -0.06661929
Pt       5.61442775       3.24149130      22.29206801        3       0.00000000       0.00710219       0.00916605      -0.06663176
Pt       8.42164144       3.24149143      22.29206808        3       0.00000000      -0.00197456       0.07603290      -0.14740947
Pt       4.21082099       5.67261006      22.29206776        3       0.00000000      -0.00204883       0.00238296      -0.00316783
Pt       7.01803485       5.67260985      22.29206778        3       0.00000000       0.06682438      -0.03632728      -0.14741954
Pt       9.82524820       5.67261061      22.29206807        3       0.00000000      -0.06483438      -0.03972211      -0.14743046
Pt      -0.00000053       1.62074559      24.58417356        2       0.00000000      -0.00555474      -0.24305451       0.20536630
Pt       2.80721447       1.62074548      24.58417379        2       0.00000000      -0.00061815      -0.00570971      -0.05533643
Pt       5.61442782       1.62074544      24.58417375        2       0.00000000       0.00495788       0.00220142      -0.05550304
Pt       1.40360648       4.05186445      24.58417388        2       0.00000000      -0.02071724       0.01580981      -0.09084893
Pt       4.21082098       4.05186402      24.58417384        2       0.00000000      -0.00442866       0.00323663      -0.05541654
Pt       7.01803473       4.05186413      24.58417382        2       0.00000000       0.02421710       0.01000017      -0.09095166
Pt       2.80721282       6.48298339      24.58417358        2       0.00000000       0.21300915       0.11661308       0.20545889
Pt       5.61442787       6.48298335      24.58417389        2       0.00000000      -0.20726669       0.12641300       0.20549090
Pt       8.42164231       6.48298348      24.58417365        2       0.00000000      -0.00359752      -0.02567755      -0.09065828
Pt       0.00000505      -0.00010712      27.12248566        1       0.00000000       0.00000443      -0.00007909      -0.02419066
Pt       2.80620714      -0.00439324      26.88837504        1       0.00000000       0.00271939       0.00336441       0.04118031
Pt       5.61143341      -0.00282415      26.88455894        1       0.00000000       0.00180619       0.00298067       0.04696855
Pt       1.40266469       2.43508596      26.88451547        1       0.00000000       0.00164355      -0.00321578       0.04680053
Pt       4.21080896       2.43110932      26.90329475        1       0.00000000       0.00001128      -0.00004262       0.01479479
Pt       7.02233419       2.43239677      26.88817019        1       0.00000000      -0.00422657       0.00062325       0.04147821
Pt       2.80391647       4.86531647      26.88823181        1       0.00000000       0.00153827      -0.00409535       0.04134853
Pt       5.61837299       4.86107214      26.88450393        1       0.00000000      -0.00346803       0.00009908       0.04667643
Pt       8.42164743       4.86222730      26.91311108        1       0.00000000      -0.00002734      -0.00001243       0.00564678
C       -0.00000033      -0.00002974      29.20171739        0       1.00000000      -0.00004010       0.00032162      -0.00854612
H        0.52323794       0.90654902      29.53760023        0       0.00000000       0.00149454       0.00236914       0.03825456
H        0.52337477      -0.90623534      29.53842401        0       0.00000000       0.00111065      -0.00215143       0.03783168
H       -1.04661417      -0.00005147      29.53801252        0       0.00000000      -0.00257118      -0.00001563       0.03800929
