40
Lattice="8.421641763931781 0.0 0.0 4.2108208819658905 7.293355709136913 0.0 0.0 0.0 46.87624170604845" Properties=species:S:1:pos:R:3:tags:I:1:initial_magmoms:R:1:forces:R:3 charge=0 spin=0 energy=-206.89634062595093 free_energy=-206.89634062595093 stress="0.010375063866376877 1.6545889991448348e-07 -3.5442049295397737e-09 1.6545889991448348e-07 0.010374914854764938 1.1866918470104793e-07 -3.5442049295397737e-09 1.1866918470104793e-07 -0.0002853954501915723" pbc="T T T"
Pt      -0.00000001       0.00000004      19.95723550        4       0.00000000       0.00000125      -0.00000340       0.01343238
Pt       2.80721400      -0.00000009      19.95723557        4       0.00000000      -0.00170567      -0.00512617       0.01724961
Pt       5.61442776      -0.00000012      19.95723555        4       0.00000000       0.00187935      -0.00345270       0.01955317
Pt       1.40360718       2.43111835      19.95723542        4       0.00000000      -0.00394189       0.00010822       0.01950205
Pt       4.21082079       2.43111843      19.95723552        4       0.00000000       0.00000056      -0.00000406       0.02537385
Pt       7.01803481       2.43111844      19.95723550        4       0.00000000       0.00530740       0.00106608       0.01724484
Pt       2.80721421       4.86223734      19.95723529        4       0.00000000      -0.00360397       0.00405323       0.01733386
Pt       5.61442795       4.86223729      19.95723542        4       0.00000000       0.00206169       0.00334216       0.01954643
Pt       8.42164148       4.86223724      19.95723551        4       0.00000000       0.00000338       0.00000787      -0.03671150
Pt       1.40360717       0.81037261      22.29206804        3       0.00000000      -0.00031699      -0.00410313      -0.00433322
Pt       4.21082121       0.81037256      22.29206808        3       0.00000000       0.00402477      -0.01100188      -0.06739615
Pt       7.01803485       0.81037259      22.29206811        3       0.00000000       0.00366838       0.00179869      -0.00436400
Pt       2.80721434       3.24149110      22.29206780        3       0.00000000      -0.01155259       0.00198750      -0.06716327
Pt       5.61442775       3.24149130      22.29206801        3       0.00000000       0.00752882       0.00901196      -0.06719305
Pt       8.42164144       3.24149143      22.29206808        3       0.00000000      -0.00161594       0.07512982      -0.14874071
Pt       4.21082099       5.67261006      22.29206776        3       0.00000000      -0.00335291       0.00225713      -0.00417805
Pt       7.01803485       5.67260985      22.29206778        3       0.00000000       0.06583075      -0.03618211      -0.14872618
Pt       9.82524820       5.67261061      22.29206807        3       0.00000000      -0.06421210      -0.03894919      -0.14872697
Pt      -0.00000053       1.62074559      24.58417356        2       0.00000000      -0.00166220      -0.24032477       0.25727409
Pt       2.80721447       1.62074548      24.58417379        2       0.00000000      -0.01023390      -0.00211956      -0.01094112
Pt       5.61442782       1.62074544      24.58417375        2       0.00000000       0.00681072      -0.00780240      -0.01097581
Pt       1.40360648       4.05186445      24.58417388        2       0.00000000      -0.01816854       0.00310875      -0.04768813
Pt       4.21082098       4.05186402      24.58417384        2       0.00000000       0.00333733       0.00982647      -0.01109590
Pt       7.01803473       4.05186413      24.58417382        2       0.00000000       0.01199720       0.01407597      -0.04786172
Pt       2.80721282       6.48298339      24.58417358        2       0.00000000       0.20884532       0.11880960       0.25741923
Pt       5.61442787       6.48298335      24.58417389        2       0.00000000      -0.20715594       0.12179938       0.25727546
Pt       8.42164231       6.48298348      24.58417365        2       0.00000000       0.00621511      -0.01711616      -0.04761173
Pt       0.00000008       0.00019154      27.13941990        1       0.00000000      -0.00001221      -0.00021279       0.03359007
Pt       2.81150493      -0.00450958      26.89765476        1       0.00000000      -0.01623639       0.00285517      -0.00525847
Pt       5.61362295      -0.00327892      26.89933810        1       0.00000000       0.01408530       0.00314363      -0.00353324
Pt       1.40116748       2.43349069      26.89929149        1       0.00000000      -0.00439491      -0.01381120      -0.00371133
Pt       4.21082356       2.43114598      26.90936905        1       0.00000000      -0.00004460      -0.00002047      -0.01074039
Pt       7.01977526       2.43712810      26.89757943        1       0.00000000       0.00582738      -0.01553562      -0.00528334
Pt       2.80119253       4.86083711      26.89758541        1       0.00000000       0.01042632       0.01282430      -0.00526639
Pt       5.61766017       4.86325040      26.89919506        1       0.00000000      -0.00970491       0.01082783      -0.00370387
Pt       8.42164025       4.86225592      26.91873664        1       0.00000000       0.00006080       0.00008982      -0.01367937
C        0.00000036      -0.00005564      29.22571127        0       1.00000000       0.00002368       0.00009737      -0.02851854
H       -0.52272306       0.90485080      29.56834394        0       0.00000000      -0.00265540       0.00403519      -0.00066921
H        1.04518725       0.00019008      29.56788546        0       0.00000000       0.00455985      -0.00060098      -0.00046552
H       -0.52246105      -0.90546275      29.56743191        0       0.00000000      -0.00192431      -0.00388932      -0.00025787
