40
Lattice="8.421641763931781 0.0 0.0 4.2108208819658905 7.293355709136913 0.0 0.0 0.0 46.87624170604845" Properties=species:S:1:pos:R:3:tags:I:1:initial_magmoms:R:1:forces:R:3 charge=0 spin=0 energy=-206.8974907571765 free_energy=-206.8974907571765 stress="0.010361677967011929 -8.114311640383676e-07 4.185438911008532e-07 -8.114311640383676e-07 0.01035347767174244 -7.1397662395611405e-06 4.185438911008532e-07 -7.1397662395611405e-06 -0.00037486126529984176" pbc="T T T"
Pt      -0.00000001       0.00000004      19.95723550        4       0.00000000       0.00002108      -0.00014817       0.01359833
Pt       2.80721400      -0.00000009      19.95723557        4       0.00000000      -0.00158803      -0.00548413       0.01704361
Pt       5.61442776      -0.00000012      19.95723555        4       0.00000000       0.00176641      -0.00394257       0.01914725
Pt       1.40360718       2.43111835      19.95723542        4       0.00000000      -0.00405657      -0.00008683       0.01923555
Pt       4.21082079       2.43111843      19.95723552        4       0.00000000       0.00002674      -0.00016796       0.02544262
Pt       7.01803481       2.43111844      19.95723550        4       0.00000000       0.00531043       0.00070085       0.01718432
Pt       2.80721421       4.86223734      19.95723529        4       0.00000000      -0.00366017       0.00389454       0.01720407
Pt       5.61442795       4.86223729      19.95723542        4       0.00000000       0.00235195       0.00323129       0.01923744
Pt       8.42164148       4.86223724      19.95723551        4       0.00000000       0.00006071       0.00038328      -0.03661313
Pt       1.40360717       0.81037261      22.29206804        3       0.00000000      -0.00060554      -0.00446147      -0.00409842
Pt       4.21082121       0.81037256      22.29206808        3       0.00000000       0.00413889      -0.01140989      -0.06762094
Pt       7.01803485       0.81037259      22.29206811        3       0.00000000       0.00328757       0.00038111      -0.00414304
Pt       2.80721434       3.24149110      22.29206780        3       0.00000000      -0.01144940       0.00096886      -0.06713616
Pt       5.61442775       3.24149130      22.29206801        3       0.00000000       0.00717377       0.00815278      -0.06712367
Pt       8.42164144       3.24149143      22.29206808        3       0.00000000      -0.00171952       0.07505538      -0.14964584
Pt       4.21082099       5.67261006      22.29206776        3       0.00000000      -0.00272853       0.00114955      -0.00544445
Pt       7.01803485       5.67260985      22.29206778        3       0.00000000       0.06576428      -0.03672186      -0.14800638
Pt       9.82524820       5.67261061      22.29206807        3       0.00000000      -0.06403683      -0.03988016      -0.14805821
Pt      -0.00000053       1.62074559      24.58417356        2       0.00000000      -0.00366109      -0.24352960       0.26056460
Pt       2.80721447       1.62074548      24.58417379        2       0.00000000      -0.00838839      -0.00163653      -0.01744881
Pt       5.61442782       1.62074544      24.58417375        2       0.00000000       0.00844725      -0.00149983      -0.01736065
Pt       1.40360648       4.05186445      24.58417388        2       0.00000000      -0.02261275       0.01207433      -0.05659587
Pt       4.21082098       4.05186402      24.58417384        2       0.00000000       0.00021955       0.00820217      -0.02297427
Pt       7.01803473       4.05186413      24.58417382        2       0.00000000       0.01994959       0.01649681      -0.05661003
Pt       2.80721282       6.48298339      24.58417358        2       0.00000000       0.21318813       0.12513040       0.24505912
Pt       5.61442787       6.48298335      24.58417389        2       0.00000000      -0.20948738       0.13115555       0.24508256
Pt       8.42164231       6.48298348      24.58417365        2       0.00000000       0.00246106      -0.02210238      -0.05601600
Pt       0.00001356       0.00330479      27.14204315        1       0.00000000      -0.00013953      -0.00171572      -0.01721055
Pt       2.81103509      -0.00189881      26.89487603        1       0.00000000      -0.02196222       0.00524996       0.01165875
Pt       5.61112601      -0.00073474      26.89422373        1       0.00000000       0.02100560       0.00569107       0.01282571
Pt       1.40359120       2.44050164      26.89509591        1       0.00000000      -0.01605400      -0.02852486       0.00852669
Pt       4.21083537       2.43346678      26.91094709        1       0.00000000       0.00009808       0.00111140      -0.01407148
Pt       7.01890793       2.44155270      26.89563157        1       0.00000000       0.01662925      -0.02900637       0.00748857
Pt       2.80309315       4.86643253      26.89345788        1       0.00000000       0.00324494       0.00943769       0.01499846
Pt       5.61729448       4.86630536      26.89297564        1       0.00000000      -0.00321521       0.00847508       0.01541055
Pt       8.42159990       4.86507995      26.92288794        1       0.00000000       0.00022427      -0.00033039      -0.02437396
C       -0.00002960      -0.00998076      29.22412064        0       1.00000000       0.00024721       0.00485118       0.01367072
H       -0.00074516      -1.05724712      29.56315462        0       0.00000000      -0.00089104       0.02673932      -0.00823255
H       -0.90562089       0.51287117      29.56707435        0       0.00000000       0.01556092      -0.00902321       0.00270506
H        0.90640388       0.51139353      29.56706889        0       0.00000000      -0.01492194      -0.00886047       0.00270044
