40
Lattice="8.421641763931781 0.0 0.0 4.2108208819658905 7.293355709136913 0.0 0.0 0.0 46.87624170604845" Properties=species:S:1:pos:R:3:tags:I:1:initial_magmoms:R:1:forces:R:3 charge=0 spin=0 energy=-206.89639975375854 free_energy=-206.89639975375854 stress="0.010357772931456566 9.131736078415997e-08 1.0091317115268339e-08 9.131736078415997e-08 0.010357971303164959 -2.0044365101057338e-07 1.0091317115268339e-08 -2.0044365101057338e-07 -0.0003387369215488434" pbc="T T T"
Pt      -0.00000001       0.00000004      19.95723550        4       0.00000000       0.00000126       0.00000306       0.01324000
Pt       2.80721400      -0.00000009      19.95723557        4       0.00000000      -0.00199677      -0.00478706       0.01739902
Pt       5.61442776      -0.00000012      19.95723555        4       0.00000000       0.00195952      -0.00351620       0.01924800
Pt       1.40360718       2.43111835      19.95723542        4       0.00000000      -0.00403921       0.00008030       0.01918941
Pt       4.21082079       2.43111843      19.95723552        4       0.00000000       0.00000230       0.00000027       0.02534384
Pt       7.01803481       2.43111844      19.95723550        4       0.00000000       0.00515942       0.00065705       0.01738931
Pt       2.80721421       4.86223734      19.95723529        4       0.00000000      -0.00316824       0.00413840       0.01748462
Pt       5.61442795       4.86223729      19.95723542        4       0.00000000       0.00207811       0.00344333       0.01923595
Pt       8.42164148       4.86223724      19.95723551        4       0.00000000       0.00000292      -0.00000942      -0.03679996
Pt       1.40360717       0.81037261      22.29206804        3       0.00000000      -0.00051079      -0.00279719      -0.00272867
Pt       4.21082121       0.81037256      22.29206808        3       0.00000000       0.00453606      -0.01114722      -0.06708152
Pt       7.01803485       0.81037259      22.29206811        3       0.00000000       0.00265699       0.00101832      -0.00275031
Pt       2.80721434       3.24149110      22.29206780        3       0.00000000      -0.01194324       0.00164170      -0.06686600
Pt       5.61442775       3.24149130      22.29206801        3       0.00000000       0.00740934       0.00954544      -0.06688579
Pt       8.42164144       3.24149143      22.29206808        3       0.00000000      -0.00188032       0.07582865      -0.15043797
Pt       4.21082099       5.67261006      22.29206776        3       0.00000000      -0.00215166       0.00180145      -0.00251317
Pt       7.01803485       5.67260985      22.29206778        3       0.00000000       0.06660740      -0.03630573      -0.15046698
Pt       9.82524820       5.67261061      22.29206807        3       0.00000000      -0.06471910      -0.03953366      -0.15046264
Pt      -0.00000053       1.62074559      24.58417356        2       0.00000000      -0.00457591      -0.24401397       0.25212300
Pt       2.80721447       1.62074548      24.58417379        2       0.00000000      -0.00774520      -0.00833916      -0.01743279
Pt       5.61442782       1.62074544      24.58417375        2       0.00000000       0.01090697      -0.00260804      -0.01746694
Pt       1.40360648       4.05186445      24.58417388        2       0.00000000      -0.00894023       0.00662308      -0.04887128
Pt       4.21082098       4.05186402      24.58417384        2       0.00000000      -0.00323006       0.01074906      -0.01742680
Pt       7.01803473       4.05186413      24.58417382        2       0.00000000       0.01040831       0.00432515      -0.04897761
Pt       2.80721282       6.48298339      24.58417358        2       0.00000000       0.21335004       0.11794229       0.25228471
Pt       5.61442787       6.48298335      24.58417389        2       0.00000000      -0.20870757       0.12596245       0.25219402
Pt       8.42164231       6.48298348      24.58417365        2       0.00000000      -0.00147214      -0.01096418      -0.04878584
Pt       0.00000111      -0.00016893      27.14295904        1       0.00000000       0.00000329       0.00019070       0.00644952
Pt       2.80490397      -0.00437701      26.89929849        1       0.00000000       0.00534691       0.00134452      -0.00272096
Pt       5.61405529      -0.00221895      26.89680891        1       0.00000000      -0.00526242      -0.00070632      -0.00272495
Pt       1.40187863       2.43247951      26.89676271        1       0.00000000       0.00205720       0.00478295      -0.00292416
Pt       4.21081882       2.43109004      26.90577302        1       0.00000000      -0.00001518      -0.00004233       0.00101669
Pt       7.02296850       2.43123117      26.89919362        1       0.00000000      -0.00382589       0.00393556      -0.00256378
Pt       2.80458272       4.86638808      26.89923245        1       0.00000000      -0.00150996      -0.00538299      -0.00275671
Pt       5.61653873       4.86298852      26.89673864        1       0.00000000       0.00320242      -0.00417298      -0.00299255
Pt       8.42164317       4.86220444      26.91168065        1       0.00000000       0.00000970      -0.00001939       0.00235911
C       -0.00000004       0.00006849      29.22682982        0       1.00000000       0.00005145      -0.00021958      -0.01421671
H       -1.04526992       0.00062265      29.56852014        0       0.00000000      -0.00568673       0.00033749       0.00398095
H        0.52314645       0.90516308      29.56809456        0       0.00000000       0.00273059       0.00499714       0.00415317
H        0.52212402      -0.90529773      29.56895044        0       0.00000000       0.00290055      -0.00478312       0.00376254
