40
Lattice="8.421641763931781 0.0 0.0 4.2108208819658905 7.293355709136913 0.0 0.0 0.0 46.87624170604845" Properties=species:S:1:pos:R:3:tags:I:1:initial_magmoms:R:1:forces:R:3 charge=0 spin=0 energy=-206.89809729404175 free_energy=-206.89809729404175 stress="0.010356007143855095 -5.688880122534101e-08 1.4370829859444711e-08 -5.688880122534101e-08 0.010354899801313877 2.7593871436693007e-06 1.4370829859444711e-08 2.7593871436693007e-06 -0.00035167156602256" pbc="T T T"
Pt      -0.00000001       0.00000004      19.95723550        4       0.00000000      -0.00000626      -0.00002939       0.01328482
Pt       2.80721400      -0.00000009      19.95723557        4       0.00000000      -0.00192421      -0.00497115       0.01727510
Pt       5.61442776      -0.00000012      19.95723555        4       0.00000000       0.00194666      -0.00340379       0.01934320
Pt       1.40360718       2.43111835      19.95723542        4       0.00000000      -0.00401420       0.00006496       0.01935415
Pt       4.21082079       2.43111843      19.95723552        4       0.00000000      -0.00002489       0.00000763       0.02543059
Pt       7.01803481       2.43111844      19.95723550        4       0.00000000       0.00536786       0.00083531       0.01733636
Pt       2.80721421       4.86223734      19.95723529        4       0.00000000      -0.00342811       0.00423389       0.01740629
Pt       5.61442795       4.86223729      19.95723542        4       0.00000000       0.00203564       0.00347219       0.01940228
Pt       8.42164148       4.86223724      19.95723551        4       0.00000000       0.00000921       0.00017813      -0.03683425
Pt       1.40360717       0.81037261      22.29206804        3       0.00000000      -0.00026175      -0.00333247      -0.00310880
Pt       4.21082121       0.81037256      22.29206808        3       0.00000000       0.00425291      -0.01101637      -0.06698260
Pt       7.01803485       0.81037259      22.29206811        3       0.00000000       0.00300623       0.00143652      -0.00315185
Pt       2.80721434       3.24149110      22.29206780        3       0.00000000      -0.01170538       0.00189686      -0.06656053
Pt       5.61442775       3.24149130      22.29206801        3       0.00000000       0.00749433       0.00935084      -0.06662200
Pt       8.42164144       3.24149143      22.29206808        3       0.00000000      -0.00178727       0.07622480      -0.15047027
Pt       4.21082099       5.67261006      22.29206776        3       0.00000000      -0.00272019       0.00199042      -0.00317664
Pt       7.01803485       5.67260985      22.29206778        3       0.00000000       0.06625495      -0.03609776      -0.15047947
Pt       9.82524820       5.67261061      22.29206807        3       0.00000000      -0.06449483      -0.03917702      -0.15054977
Pt      -0.00000053       1.62074559      24.58417356        2       0.00000000      -0.00312533      -0.24350052       0.25029075
Pt       2.80721447       1.62074548      24.58417379        2       0.00000000      -0.01090507      -0.00694333      -0.01875409
Pt       5.61442782       1.62074544      24.58417375        2       0.00000000       0.01085349      -0.00669165      -0.01872582
Pt       1.40360648       4.05186445      24.58417388        2       0.00000000      -0.01409953       0.00416400      -0.04719351
Pt       4.21082098       4.05186402      24.58417384        2       0.00000000      -0.00007074       0.01281980      -0.01924115
Pt       7.01803473       4.05186413      24.58417382        2       0.00000000       0.01152103       0.00891810      -0.04737427
Pt       2.80721282       6.48298339      24.58417358        2       0.00000000       0.21316104       0.11898783       0.25235543
Pt       5.61442787       6.48298335      24.58417389        2       0.00000000      -0.20996316       0.12461976       0.25217628
Pt       8.42164231       6.48298348      24.58417365        2       0.00000000       0.00262458      -0.01428756      -0.04740253
Pt       0.00002807       0.00374347      27.14358318        1       0.00000000      -0.00012217      -0.01778008      -0.01332379
Pt       2.80667974      -0.00455757      26.89793892        1       0.00000000       0.00397486      -0.00298266      -0.00143407
Pt       5.61533468      -0.00287302      26.89751750        1       0.00000000      -0.00435786      -0.00376660      -0.00078566
Pt       1.40121158       2.43095493      26.89759474        1       0.00000000       0.00002570       0.00955626      -0.00070810
Pt       4.21081931       2.43077545      26.90435616        1       0.00000000      -0.00006688       0.00080925       0.00515611
Pt       7.02168301       2.43211267      26.89800891        1       0.00000000      -0.00039348       0.00883012      -0.00153399
Pt       2.80411399       4.86412921      26.89774214        1       0.00000000      -0.00287233       0.00255756      -0.00178744
Pt       5.61586754       4.86360388      26.89718942        1       0.00000000       0.00393316       0.00256939      -0.00075617
Pt       8.42167251       4.86188663      26.91484743        1       0.00000000      -0.00014168       0.00110548      -0.00657999
C       -0.00001463       0.00123119      29.22518408        0       1.00000000       0.00048875      -0.00648064       0.01244797
H       -0.90466189       0.52341822      29.56907856        0       0.00000000      -0.00679517       0.00737913       0.00041037
H        0.90553521       0.52185799      29.56909457        0       0.00000000       0.00697472       0.00692842       0.00022559
H       -0.00084776      -1.04429238      29.56627891        0       0.00000000      -0.00064461      -0.00847574       0.00164156
