40
Lattice="8.421641763931781 0.0 0.0 4.2108208819658905 7.293355709136913 0.0 0.0 0.0 46.87624170604845" Properties=species:S:1:pos:R:3:tags:I:1:initial_magmoms:R:1:forces:R:3 charge=0 spin=0 energy=-206.8961708719226 free_energy=-206.8961708719226 stress="0.010375074110925198 2.0291838609409751e-07 1.1440876690471669e-08 2.0291838609409751e-07 0.010375219397246838 -4.6654091079290083e-07 1.1440876690471669e-08 -4.6654091079290083e-07 -0.00028510979609563947" pbc="T T T"
Pt      -0.00000001       0.00000004      19.95723550        4       0.00000000       0.00000134       0.00000210       0.01344835
Pt       2.80721400      -0.00000009      19.95723557        4       0.00000000      -0.00174234      -0.00490735       0.01744683
Pt       5.61442776      -0.00000012      19.95723555        4       0.00000000       0.00181255      -0.00372708       0.01930188
Pt       1.40360718       2.43111835      19.95723542        4       0.00000000      -0.00414767       0.00031103       0.01924206
Pt       4.21082079       2.43111843      19.95723552        4       0.00000000       0.00000275      -0.00000014       0.02532275
Pt       7.01803481       2.43111844      19.95723550        4       0.00000000       0.00513467       0.00093565       0.01743710
Pt       2.80721421       4.86223734      19.95723529        4       0.00000000      -0.00339664       0.00397831       0.01753038
Pt       5.61442795       4.86223729      19.95723542        4       0.00000000       0.00233268       0.00342156       0.01928686
Pt       8.42164148       4.86223724      19.95723551        4       0.00000000       0.00000335      -0.00000961      -0.03656589
Pt       1.40360717       0.81037261      22.29206804        3       0.00000000      -0.00070558      -0.00287867      -0.00423116
Pt       4.21082121       0.81037256      22.29206808        3       0.00000000       0.00444517      -0.01066947      -0.06766979
Pt       7.01803485       0.81037259      22.29206811        3       0.00000000       0.00282455       0.00088970      -0.00423920
Pt       2.80721434       3.24149110      22.29206780        3       0.00000000      -0.01148814       0.00147630      -0.06745806
Pt       5.61442775       3.24149130      22.29206801        3       0.00000000       0.00703788       0.00922924      -0.06747367
Pt       8.42164144       3.24149143      22.29206808        3       0.00000000      -0.00187975       0.07525889      -0.14862190
Pt       4.21082099       5.67261006      22.29206776        3       0.00000000      -0.00212495       0.00201177      -0.00401437
Pt       7.01803485       5.67260985      22.29206778        3       0.00000000       0.06611489      -0.03602587      -0.14865506
Pt       9.82524820       5.67261061      22.29206807        3       0.00000000      -0.06422821      -0.03925022      -0.14864781
Pt      -0.00000053       1.62074559      24.58417356        2       0.00000000      -0.00460734      -0.24079187       0.25752920
Pt       2.80721447       1.62074548      24.58417379        2       0.00000000      -0.00708783      -0.00738994      -0.01159351
Pt       5.61442782       1.62074544      24.58417375        2       0.00000000       0.00976914      -0.00252328      -0.01162010
Pt       1.40360648       4.05186445      24.58417388        2       0.00000000      -0.01434481       0.00985131      -0.04712388
Pt       4.21082098       4.05186402      24.58417384        2       0.00000000      -0.00271711       0.00973275      -0.01159056
Pt       7.01803473       4.05186413      24.58417382        2       0.00000000       0.01588475       0.00740830      -0.04722985
Pt       2.80721282       6.48298339      24.58417358        2       0.00000000       0.21056087       0.11631665       0.25768590
Pt       5.61442787       6.48298335      24.58417389        2       0.00000000      -0.20590095       0.12436592       0.25759369
Pt       8.42164231       6.48298348      24.58417365        2       0.00000000      -0.00153122      -0.01722860      -0.04700856
Pt       0.00000279      -0.00017485      27.13938011        1       0.00000000      -0.00001369       0.00022085       0.03365954
Pt       2.80832373      -0.00429274      26.89958870        1       0.00000000      -0.01477386       0.00190196      -0.00382603
Pt       5.61041721      -0.00295676      26.89735434        1       0.00000000       0.01552412       0.00199177      -0.00512000
Pt       1.40304506       2.43601813      26.89728919        1       0.00000000      -0.00593425      -0.01456307      -0.00506759
Pt       4.21082438       2.43110707      26.90997804        1       0.00000000      -0.00003625      -0.00009949      -0.01055608
Pt       7.02119182       2.43417991      26.89948696        1       0.00000000       0.00573512      -0.01393816      -0.00401454
Pt       2.80293847       4.86338308      26.89952203        1       0.00000000       0.00905823       0.01189717      -0.00402639
Pt       5.61901508       4.86021559      26.89728120        1       0.00000000      -0.00962751       0.01244999      -0.00498149
Pt       8.42163818       4.86221211      26.91836425        1       0.00000000       0.00004517       0.00000585      -0.01414033
C       -0.00000060       0.00004828      29.22573487        0       1.00000000      -0.00003214      -0.00011690      -0.02853427
H        0.52214652       0.90561830      29.56748970        0       0.00000000       0.00200239       0.00387378      -0.00031113
H        0.52303142      -0.90468288      29.56835637        0       0.00000000       0.00257226      -0.00404854      -0.00066037
H       -1.04518042      -0.00055658      29.56792348        0       0.00000000      -0.00454159       0.00063719      -0.00050299
