40
Lattice="8.421641763931781 0.0 0.0 4.2108208819658905 7.293355709136913 0.0 0.0 0.0 46.87624170604845" Properties=species:S:1:pos:R:3:tags:I:1:initial_magmoms:R:1:forces:R:3 charge=0 spin=0 energy=-206.89734579868042 free_energy=-206.89734579868042 stress="0.010351886041462421 3.1684771784057375e-07 -3.4455194963811664e-07 3.1684771784057375e-07 0.010366157628595829 7.855688636482228e-06 -3.4455194963811664e-07 7.855688636482228e-06 -0.00037493169656954706" pbc="T T T"
Pt      -0.00000001       0.00000004      19.95723550        4       0.00000000      -0.00001959       0.00015137       0.01350982
Pt       2.80721400      -0.00000009      19.95723557        4       0.00000000      -0.00180633      -0.00460487       0.01711098
Pt       5.61442776      -0.00000012      19.95723555        4       0.00000000       0.00187294      -0.00328714       0.01924632
Pt       1.40360718       2.43111835      19.95723542        4       0.00000000      -0.00404797       0.00053947       0.01905669
Pt       4.21082079       2.43111843      19.95723552        4       0.00000000      -0.00002435       0.00014305       0.02530763
Pt       7.01803481       2.43111844      19.95723550        4       0.00000000       0.00514940       0.00131996       0.01696484
Pt       2.80721421       4.86223734      19.95723529        4       0.00000000      -0.00338284       0.00411425       0.01712885
Pt       5.61442795       4.86223729      19.95723542        4       0.00000000       0.00208312       0.00351052       0.01914301
Pt       8.42164148       4.86223724      19.95723551        4       0.00000000      -0.00005247      -0.00036988      -0.03646218
Pt       1.40360717       0.81037261      22.29206804        3       0.00000000      -0.00051648      -0.00265763      -0.00477866
Pt       4.21082121       0.81037256      22.29206808        3       0.00000000       0.00434863      -0.01032809      -0.06746614
Pt       7.01803485       0.81037259      22.29206811        3       0.00000000       0.00331955       0.00224106      -0.00478561
Pt       2.80721434       3.24149110      22.29206780        3       0.00000000      -0.01163277       0.00243889      -0.06756111
Pt       5.61442775       3.24149130      22.29206801        3       0.00000000       0.00738873       0.01007033      -0.06762665
Pt       8.42164144       3.24149143      22.29206808        3       0.00000000      -0.00189579       0.07567723      -0.14750351
Pt       4.21082099       5.67261006      22.29206776        3       0.00000000      -0.00279282       0.00323700      -0.00309316
Pt       7.01803485       5.67260985      22.29206778        3       0.00000000       0.06650650      -0.03559988      -0.14910501
Pt       9.82524820       5.67261061      22.29206807        3       0.00000000      -0.06461921      -0.03864167      -0.14903007
Pt      -0.00000053       1.62074559      24.58417356        2       0.00000000      -0.00294808      -0.24784499       0.24227688
Pt       2.80721447       1.62074548      24.58417379        2       0.00000000      -0.00257915      -0.00429705      -0.02426226
Pt       5.61442782       1.62074544      24.58417375        2       0.00000000       0.00204937      -0.00480320      -0.02441218
Pt       1.40360648       4.05186445      24.58417388        2       0.00000000      -0.02051234       0.00770831      -0.05505386
Pt       4.21082098       4.05186402      24.58417384        2       0.00000000       0.00021775       0.00414977      -0.01838216
Pt       7.01803473       4.05186413      24.58417382        2       0.00000000       0.01895856       0.01101226      -0.05521438
Pt       2.80721282       6.48298339      24.58417358        2       0.00000000       0.21575695       0.11511535       0.25760591
Pt       5.61442787       6.48298335      24.58417389        2       0.00000000      -0.21266489       0.12078872       0.25741866
Pt       8.42164231       6.48298348      24.58417365        2       0.00000000       0.00179222      -0.02448102      -0.05554077
Pt       0.00004142      -0.00299393      27.14196624        1       0.00000000       0.00008702       0.00189734      -0.01754525
Pt       2.81031405      -0.00592248      26.89434271        1       0.00000000      -0.02003306      -0.00618459       0.01143050
Pt       5.61132547      -0.00466161      26.89410457        1       0.00000000       0.02001679      -0.00571809       0.01180398
Pt       1.40221123       2.43057702      26.89320943        1       0.00000000      -0.00542612      -0.00850755       0.01593914
Pt       4.21082471       2.42861273      26.91273333        1       0.00000000      -0.00009948      -0.00014400      -0.01622443
Pt       7.02047873       2.43106271      26.89351906        1       0.00000000       0.00602481      -0.00806373       0.01533851
Pt       2.80095508       4.85610165      26.89569774        1       0.00000000       0.01740649       0.02813032       0.00818569
Pt       5.61968489       4.85539477      26.89526959        1       0.00000000      -0.01773694       0.02798339       0.00894514
Pt       8.42169977       4.85980051      26.92171707        1       0.00000000      -0.00017527      -0.00032552      -0.02344082
C        0.00005516       0.01024002      29.22413228        0       1.00000000      -0.00025649      -0.00504420       0.01485526
H       -0.90640133      -0.51122589      29.56686938        0       0.00000000       0.01555074       0.00858311       0.00305154
H        0.00076663       1.05730397      29.56381074        0       0.00000000       0.00072074      -0.02687671      -0.00979692
H        0.90564258      -0.51270888      29.56693747        0       0.00000000      -0.01602823       0.00896800       0.00296575
