40
Lattice="8.421641763931781 0.0 0.0 4.2108208819658905 7.293355709136913 0.0 0.0 0.0 46.87624170604845" Properties=species:S:1:pos:R:3:tags:I:1:initial_magmoms:R:1:forces:R:3 charge=0 spin=0 energy=-206.89809538669311 free_energy=-206.89809538669311 stress="0.010355990380048752 -5.587479279256513e-08 1.4095808964498246e-08 -5.587479279256513e-08 0.010354893282055855 2.75567526841769e-06 1.4095808964498246e-08 2.75567526841769e-06 -0.00035164892324246466" pbc="T T T"
Pt      -0.00000001       0.00000004      19.95723550        4       0.00000000      -0.00000652      -0.00002920       0.01328504
Pt       2.80721400      -0.00000009      19.95723557        4       0.00000000      -0.00192421      -0.00497100       0.01727531
Pt       5.61442776      -0.00000012      19.95723555        4       0.00000000       0.00194683      -0.00340360       0.01934339
Pt       1.40360718       2.43111835      19.95723542        4       0.00000000      -0.00401409       0.00006498       0.01935406
Pt       4.21082079       2.43111843      19.95723552        4       0.00000000      -0.00002484       0.00000760       0.02543042
Pt       7.01803481       2.43111844      19.95723550        4       0.00000000       0.00536782       0.00083522       0.01733659
Pt       2.80721421       4.86223734      19.95723529        4       0.00000000      -0.00342815       0.00423396       0.01740642
Pt       5.61442795       4.86223729      19.95723542        4       0.00000000       0.00203559       0.00347192       0.01940232
Pt       8.42164148       4.86223724      19.95723551        4       0.00000000       0.00000932       0.00017818      -0.03683408
Pt       1.40360717       0.81037261      22.29206804        3       0.00000000      -0.00026181      -0.00333333      -0.00310850
Pt       4.21082121       0.81037256      22.29206808        3       0.00000000       0.00425273      -0.01101656      -0.06698271
Pt       7.01803485       0.81037259      22.29206811        3       0.00000000       0.00300640       0.00143660      -0.00315165
Pt       2.80721434       3.24149110      22.29206780        3       0.00000000      -0.01170531       0.00189681      -0.06656057
Pt       5.61442775       3.24149130      22.29206801        3       0.00000000       0.00749438       0.00935086      -0.06662186
Pt       8.42164144       3.24149143      22.29206808        3       0.00000000      -0.00178770       0.07622463      -0.15047005
Pt       4.21082099       5.67261006      22.29206776        3       0.00000000      -0.00272017       0.00198994      -0.00317601
Pt       7.01803485       5.67260985      22.29206778        3       0.00000000       0.06625507      -0.03609783      -0.15047975
Pt       9.82524820       5.67261061      22.29206807        3       0.00000000      -0.06449486      -0.03917703      -0.15054984
Pt      -0.00000053       1.62074559      24.58417356        2       0.00000000      -0.00312381      -0.24349916       0.25029370
Pt       2.80721447       1.62074548      24.58417379        2       0.00000000      -0.01090604      -0.00694222      -0.01875151
Pt       5.61442782       1.62074544      24.58417375        2       0.00000000       0.01085301      -0.00669215      -0.01872827
Pt       1.40360648       4.05186445      24.58417388        2       0.00000000      -0.01409951       0.00416198      -0.04719005
Pt       4.21082098       4.05186402      24.58417384        2       0.00000000      -0.00007318       0.01281949      -0.01924470
Pt       7.01803473       4.05186413      24.58417382        2       0.00000000       0.01152300       0.00891718      -0.04737645
Pt       2.80721282       6.48298339      24.58417358        2       0.00000000       0.21316129       0.11898839       0.25235504
Pt       5.61442787       6.48298335      24.58417389        2       0.00000000      -0.20996355       0.12462202       0.25217450
Pt       8.42164231       6.48298348      24.58417365        2       0.00000000       0.00262498      -0.01428714      -0.04740158
Pt       0.00002837       0.00374342      27.14358399        1       0.00000000      -0.00012111      -0.01777923      -0.01330359
Pt       2.80667944      -0.00455771      26.89793905        1       0.00000000       0.00397584      -0.00297964      -0.00143405
Pt       5.61533582      -0.00287266      26.89751733        1       0.00000000      -0.00436262      -0.00376964      -0.00078511
Pt       1.40121130       2.43095467      26.89759545        1       0.00000000       0.00002578       0.00955787      -0.00071605
Pt       4.21081992       2.43077608      26.90435643        1       0.00000000      -0.00007175       0.00080556       0.00515654
Pt       7.02168235       2.43211236      26.89800853        1       0.00000000      -0.00038740       0.00883085      -0.00153244
Pt       2.80411397       4.86412940      26.89774142        1       0.00000000      -0.00287481       0.00255461      -0.00178721
Pt       5.61586705       4.86360346      26.89718875        1       0.00000000       0.00393556       0.00257310      -0.00074853
Pt       8.42167238       4.86188652      26.91484809        1       0.00000000      -0.00013980       0.00110533      -0.00658066
C       -0.00001488       0.00123143      29.22518500        0       1.00000000       0.00048945      -0.00651267       0.01241557
H        0.90553437       0.52185744      29.56909569        0       0.00000000       0.00700335       0.00694555       0.00023157
H       -0.00084768      -1.04429183      29.56628098        0       0.00000000      -0.00064528      -0.00847799       0.00163791
H       -0.90466124       0.52341782      29.56907996        0       0.00000000      -0.00682383       0.00739563       0.00041662
