40
Lattice="8.421641763931781 0.0 0.0 4.2108208819658905 7.293355709136913 0.0 0.0 0.0 46.87624170604845" Properties=species:S:1:pos:R:3:tags:I:1:initial_magmoms:R:1:forces:R:3 charge=0 spin=0 energy=-206.89795042819702 free_energy=-206.89795042819702 stress="0.010357302613556385 -5.182398155056944e-08 -1.2762819245892842e-08 -5.182398155056944e-08 0.010355468839406967 -2.873508719858364e-06 -1.2762819245892842e-08 -2.873508719858364e-06 -0.0003520087630022317" pbc="T T T"
Pt      -0.00000001       0.00000004      19.95723550        4       0.00000000       0.00000862       0.00003028       0.01322318
Pt       2.80721400      -0.00000009      19.95723557        4       0.00000000      -0.00193258      -0.00484238       0.01727432
Pt       5.61442776      -0.00000012      19.95723555        4       0.00000000       0.00198443      -0.00339379       0.01937488
Pt       1.40360718       2.43111835      19.95723542        4       0.00000000      -0.00387211      -0.00004948       0.01925024
Pt       4.21082079       2.43111843      19.95723552        4       0.00000000       0.00002736      -0.00001453       0.02528239
Pt       7.01803481       2.43111844      19.95723550        4       0.00000000       0.00510162       0.00069680       0.01719999
Pt       2.80721421       4.86223734      19.95723529        4       0.00000000      -0.00317396       0.00404754       0.01732156
Pt       5.61442795       4.86223729      19.95723542        4       0.00000000       0.00189998       0.00331674       0.01930281
Pt       8.42164148       4.86223724      19.95723551        4       0.00000000      -0.00000252      -0.00017590      -0.03670545
Pt       1.40360717       0.81037261      22.29206804        3       0.00000000      -0.00035018      -0.00342609      -0.00273498
Pt       4.21082121       0.81037256      22.29206808        3       0.00000000       0.00445728      -0.01138490      -0.06719092
Pt       7.01803485       0.81037259      22.29206811        3       0.00000000       0.00308748       0.00148297      -0.00275581
Pt       2.80721434       3.24149110      22.29206780        3       0.00000000      -0.01208205       0.00175042      -0.06724733
Pt       5.61442775       3.24149130      22.29206801        3       0.00000000       0.00758209       0.00947629      -0.06725668
Pt       8.42164144       3.24149143      22.29206808        3       0.00000000      -0.00184417       0.07541975      -0.15036580
Pt       4.21082099       5.67261006      22.29206776        3       0.00000000      -0.00275799       0.00180075      -0.00234889
Pt       7.01803485       5.67260985      22.29206778        3       0.00000000       0.06681862      -0.03663035      -0.15041387
Pt       9.82524820       5.67261061      22.29206807        3       0.00000000      -0.06495210      -0.03976348      -0.15032993
Pt      -0.00000053       1.62074559      24.58417356        2       0.00000000      -0.00280991      -0.24462870       0.25447023
Pt       2.80721447       1.62074548      24.58417379        2       0.00000000      -0.00858849      -0.00464560      -0.02165800
Pt       5.61442782       1.62074544      24.58417375        2       0.00000000       0.00836033      -0.00490027      -0.02164993
Pt       1.40360648       4.05186445      24.58417388        2       0.00000000      -0.01192587       0.00513209      -0.04682322
Pt       4.21082098       4.05186402      24.58417384        2       0.00000000       0.00013890       0.00953416      -0.02139167
Pt       7.01803473       4.05186413      24.58417382        2       0.00000000       0.01004922       0.00873433      -0.04698144
Pt       2.80721282       6.48298339      24.58417358        2       0.00000000       0.21195255       0.11999977       0.25290614
Pt       5.61442787       6.48298335      24.58417389        2       0.00000000      -0.20913467       0.12494751       0.25271201
Pt       8.42164231       6.48298348      24.58417365        2       0.00000000       0.00195846      -0.01235610      -0.04577414
Pt      -0.00002534      -0.00371694      27.14350493        1       0.00000000       0.00008606       0.01766409      -0.01282256
Pt       2.80654241      -0.00282909      26.89802667        1       0.00000000       0.00422963      -0.00422855      -0.00175646
Pt       5.61504973      -0.00110748      26.89773721        1       0.00000000      -0.00424275      -0.00496768      -0.00111037
Pt       1.40189675       2.43191988      26.89729590        1       0.00000000      -0.00378377       0.00206150      -0.00062650
Pt       4.21080037       2.43145206      26.90537439        1       0.00000000       0.00014774      -0.00092896       0.00430408
Pt       7.02129079       2.43277087      26.89753133        1       0.00000000       0.00287932       0.00153851      -0.00129107
Pt       2.80446758       4.86509509      26.89788449        1       0.00000000      -0.00710691      -0.00567526      -0.00112890
Pt       5.61572542       4.86422772      26.89752582        1       0.00000000       0.00771541      -0.00537314      -0.00051497
Pt       8.42164276       4.86257464      26.91409758        1       0.00000000       0.00010005      -0.00093527      -0.00598573
C        0.00001577      -0.00121944      29.22529042        0       1.00000000      -0.00051622       0.00635271       0.01188139
H       -0.90538721      -0.52210840      29.56918636        0       0.00000000      -0.00641436      -0.00673881       0.00021512
H        0.00055542       1.04430759      29.56635967        0       0.00000000       0.00050840       0.00798857       0.00174455
H        0.90480317      -0.52317056      29.56917238        0       0.00000000       0.00639697      -0.00691568       0.00040174
