40
Lattice="8.421641763931781 0.0 0.0 4.2108208819658905 7.293355709136913 0.0 0.0 0.0 46.87624170604845" Properties=species:S:1:pos:R:3:tags:I:1:initial_magmoms:R:1:forces:R:3 charge=0 spin=0 energy=-206.89657332248413 free_energy=-206.89657332248413 stress="0.01035830844193697 -9.39904687413673e-09 1.2372495916679327e-08 -9.39904687413673e-09 0.0103581128641963 1.644934428668421e-07 1.2372495916679327e-08 1.644934428668421e-07 -0.0003380735870450735" pbc="T T T"
Pt      -0.00000001       0.00000004      19.95723550        4       0.00000000       0.00000112      -0.00000359       0.01320978
Pt       2.80721400      -0.00000009      19.95723557        4       0.00000000      -0.00195653      -0.00498558       0.01716450
Pt       5.61442776      -0.00000012      19.95723555        4       0.00000000       0.00202328      -0.00324619       0.01953585
Pt       1.40360718       2.43111835      19.95723542        4       0.00000000      -0.00383499      -0.00011904       0.01948515
Pt       4.21082079       2.43111843      19.95723552        4       0.00000000       0.00000129      -0.00000630       0.02540298
Pt       7.01803481       2.43111844      19.95723550        4       0.00000000       0.00531363       0.00077871       0.01716036
Pt       2.80721421       4.86223734      19.95723529        4       0.00000000      -0.00335961       0.00419955       0.01725239
Pt       5.61442795       4.86223729      19.95723542        4       0.00000000       0.00181280       0.00336060       0.01953266
Pt       8.42164148       4.86223724      19.95723551        4       0.00000000       0.00000399       0.00000776      -0.03694443
Pt       1.40360717       0.81037261      22.29206804        3       0.00000000      -0.00016997      -0.00402902      -0.00290175
Pt       4.21082121       0.81037256      22.29206808        3       0.00000000       0.00410154      -0.01150633      -0.06672740
Pt       7.01803485       0.81037259      22.29206811        3       0.00000000       0.00352727       0.00188342      -0.00293095
Pt       2.80721434       3.24149110      22.29206780        3       0.00000000      -0.01202371       0.00216814      -0.06649946
Pt       5.61442775       3.24149130      22.29206801        3       0.00000000       0.00792257       0.00932817      -0.06653126
Pt       8.42164144       3.24149143      22.29206808        3       0.00000000      -0.00163351       0.07570544      -0.15057951
Pt       4.21082099       5.67261006      22.29206776        3       0.00000000      -0.00335918       0.00208152      -0.00275181
Pt       7.01803485       5.67260985      22.29206778        3       0.00000000       0.06633613      -0.03645733      -0.15057006
Pt       9.82524820       5.67261061      22.29206807        3       0.00000000      -0.06470253      -0.03925300      -0.15056638
Pt      -0.00000053       1.62074559      24.58417356        2       0.00000000      -0.00074632      -0.24348095       0.25201017
Pt       2.80721447       1.62074548      24.58417379        2       0.00000000      -0.01100937      -0.00220920      -0.01676934
Pt       5.61442782       1.62074544      24.58417375        2       0.00000000       0.00730321      -0.00842223      -0.01675690
Pt       1.40360648       4.05186445      24.58417388        2       0.00000000      -0.01306903      -0.00070435      -0.04927265
Pt       4.21082098       4.05186402      24.58417384        2       0.00000000       0.00363700       0.01054885      -0.01688905
Pt       7.01803473       4.05186413      24.58417382        2       0.00000000       0.00615992       0.01154465      -0.04942270
Pt       2.80721282       6.48298339      24.58417358        2       0.00000000       0.21108191       0.12120202       0.25216675
Pt       5.61442787       6.48298335      24.58417389        2       0.00000000      -0.21032639       0.12259452       0.25199726
Pt       8.42164231       6.48298348      24.58417365        2       0.00000000       0.00697082      -0.01078922      -0.04917865
Pt       0.00000037       0.00017506      27.14299042        1       0.00000000      -0.00001739      -0.00017780       0.00658049
Pt       2.80784801      -0.00445500      26.89672513        1       0.00000000       0.00464871       0.00139050      -0.00166316
Pt       5.61703629      -0.00226813      26.89947622        1       0.00000000      -0.00612983      -0.00065991      -0.00365767
Pt       1.40031321       2.43002408      26.89940748        1       0.00000000       0.00245929       0.00567941      -0.00376102
Pt       4.21082086       2.43115233      26.90550366        1       0.00000000      -0.00001288       0.00002769       0.00012201
Pt       7.02159654       2.43392815      26.89665531        1       0.00000000      -0.00345853       0.00332432      -0.00186450
Pt       2.80303172       4.86400998      26.89664487        1       0.00000000      -0.00117878      -0.00459085      -0.00191494
Pt       5.61510348       4.86573331      26.89930265        1       0.00000000       0.00365659      -0.00488815      -0.00374901
Pt       8.42164517       4.86227145      26.91194395        1       0.00000000       0.00002514       0.00004420       0.00272054
C        0.00000106      -0.00007238      29.22681567        0       1.00000000       0.00000828       0.00020668      -0.01433404
H       -0.52250770       0.90507291      29.56893892        0       0.00000000      -0.00297743       0.00484129       0.00378502
H        1.04527378      -0.00018876      29.56850390        0       0.00000000       0.00572047      -0.00031051       0.00396114
H       -0.52276308      -0.90539029      29.56806738        0       0.00000000      -0.00274913      -0.00507786       0.00414963
