40
Lattice="8.421641763931781 0.0 0.0 4.2108208819658905 7.293355709136913 0.0 0.0 0.0 46.87624170604845" Properties=species:S:1:pos:R:3:tags:I:1:initial_magmoms:R:1:forces:R:3 charge=0 spin=0 energy=-206.89657332248413 free_energy=-206.89657332248413 stress="0.010358290746808052 -8.487679892255073e-09 1.6593322271774014e-08 -8.487679892255073e-09 0.010358092375099659 1.6633275379263068e-07 1.6593322271774014e-08 1.6633275379263068e-07 -0.0003380993439350277" pbc="T T T"
Pt      -0.00000001       0.00000004      19.95723550        4       0.00000000       0.00000113      -0.00000363       0.01320965
Pt       2.80721400      -0.00000009      19.95723557        4       0.00000000      -0.00195679      -0.00498555       0.01716454
Pt       5.61442776      -0.00000012      19.95723555        4       0.00000000       0.00202326      -0.00324601       0.01953578
Pt       1.40360718       2.43111835      19.95723542        4       0.00000000      -0.00383502      -0.00011907       0.01948519
Pt       4.21082079       2.43111843      19.95723552        4       0.00000000       0.00000143      -0.00000632       0.02540283
Pt       7.01803481       2.43111844      19.95723550        4       0.00000000       0.00531362       0.00077878       0.01716024
Pt       2.80721421       4.86223734      19.95723529        4       0.00000000      -0.00335942       0.00419945       0.01725264
Pt       5.61442795       4.86223729      19.95723542        4       0.00000000       0.00181274       0.00336065       0.01953249
Pt       8.42164148       4.86223724      19.95723551        4       0.00000000       0.00000390       0.00000764      -0.03694430
Pt       1.40360717       0.81037261      22.29206804        3       0.00000000      -0.00016969      -0.00402898      -0.00290232
Pt       4.21082121       0.81037256      22.29206808        3       0.00000000       0.00410179      -0.01150615      -0.06672825
Pt       7.01803485       0.81037259      22.29206811        3       0.00000000       0.00352736       0.00188347      -0.00293094
Pt       2.80721434       3.24149110      22.29206780        3       0.00000000      -0.01202398       0.00216852      -0.06649956
Pt       5.61442775       3.24149130      22.29206801        3       0.00000000       0.00792254       0.00932869      -0.06653173
Pt       8.42164144       3.24149143      22.29206808        3       0.00000000      -0.00163321       0.07570554      -0.15057948
Pt       4.21082099       5.67261006      22.29206776        3       0.00000000      -0.00335916       0.00208144      -0.00275174
Pt       7.01803485       5.67260985      22.29206778        3       0.00000000       0.06633639      -0.03645727      -0.15057002
Pt       9.82524820       5.67261061      22.29206807        3       0.00000000      -0.06470244      -0.03925358      -0.15056609
Pt      -0.00000053       1.62074559      24.58417356        2       0.00000000      -0.00074712      -0.24348147       0.25200731
Pt       2.80721447       1.62074548      24.58417379        2       0.00000000      -0.01100787      -0.00221045      -0.01677130
Pt       5.61442782       1.62074544      24.58417375        2       0.00000000       0.00730264      -0.00842098      -0.01675927
Pt       1.40360648       4.05186445      24.58417388        2       0.00000000      -0.01307057      -0.00070219      -0.04927102
Pt       4.21082098       4.05186402      24.58417384        2       0.00000000       0.00363675       0.01054910      -0.01688911
Pt       7.01803473       4.05186413      24.58417382        2       0.00000000       0.00616048       0.01154491      -0.04942181
Pt       2.80721282       6.48298339      24.58417358        2       0.00000000       0.21108311       0.12120149       0.25216475
Pt       5.61442787       6.48298335      24.58417389        2       0.00000000      -0.21032687       0.12259386       0.25199586
Pt       8.42164231       6.48298348      24.58417365        2       0.00000000       0.00696972      -0.01079128      -0.04917903
Pt       0.00000056       0.00017541      27.14299098        1       0.00000000      -0.00001608      -0.00017989       0.00656190
Pt       2.80784726      -0.00445566      26.89672477        1       0.00000000       0.00465105       0.00139350      -0.00166265
Pt       5.61703657      -0.00226809      26.89947571        1       0.00000000      -0.00613134      -0.00066095      -0.00365048
Pt       1.40031300       2.43002356      26.89940582        1       0.00000000       0.00245933       0.00568338      -0.00375468
Pt       4.21082085       2.43115224      26.90550397        1       0.00000000      -0.00001398       0.00002779       0.00012184
Pt       7.02159660       2.43392761      26.89665519        1       0.00000000      -0.00345998       0.00332882      -0.00186427
Pt       2.80303186       4.86401053      26.89664416        1       0.00000000      -0.00118044      -0.00459448      -0.00191566
Pt       5.61510265       4.86573320      26.89930422        1       0.00000000       0.00365792      -0.00489054      -0.00374855
Pt       8.42164468       4.86227129      26.91194467        1       0.00000000       0.00002867       0.00004258       0.00271375
C        0.00000168      -0.00007156      29.22681464        0       1.00000000       0.00002602       0.00020921      -0.01432840
H        1.04527288      -0.00018837      29.56850415        0       0.00000000       0.00573084      -0.00030739       0.00395896
H       -0.52276286      -0.90538920      29.56806616        0       0.00000000      -0.00276769      -0.00510777       0.00415945
H       -0.52250719       0.90507248      29.56893740        0       0.00000000      -0.00298915       0.00486503       0.00379329
