40
Lattice="8.421641763931781 0.0 0.0 4.2108208819658905 7.293355709136913 0.0 0.0 0.0 46.87624170604845" Properties=species:S:1:pos:R:3:tags:I:1:initial_magmoms:R:1:forces:R:3 charge=0 spin=0 energy=-206.89640166110718 free_energy=-206.89640166110718 stress="0.010357779450714588 9.022073044206991e-08 1.4800967562678125e-08 9.022073044206991e-08 0.010357978753745556 -2.0433088820936973e-07 1.4800967562678125e-08 -2.0433088820936973e-07 -0.000338711601216346" pbc="T T T"
Pt      -0.00000001       0.00000004      19.95723550        4       0.00000000       0.00000132       0.00000322       0.01323981
Pt       2.80721400      -0.00000009      19.95723557        4       0.00000000      -0.00199688      -0.00478673       0.01739908
Pt       5.61442776      -0.00000012      19.95723555        4       0.00000000       0.00195969      -0.00351592       0.01924814
Pt       1.40360718       2.43111835      19.95723542        4       0.00000000      -0.00403915       0.00008018       0.01918939
Pt       4.21082079       2.43111843      19.95723552        4       0.00000000       0.00000212       0.00000042       0.02534382
Pt       7.01803481       2.43111844      19.95723550        4       0.00000000       0.00515929       0.00065725       0.01738937
Pt       2.80721421       4.86223734      19.95723529        4       0.00000000      -0.00316819       0.00413834       0.01748475
Pt       5.61442795       4.86223729      19.95723542        4       0.00000000       0.00207804       0.00344309       0.01923583
Pt       8.42164148       4.86223724      19.95723551        4       0.00000000       0.00000300      -0.00000954      -0.03680024
Pt       1.40360717       0.81037261      22.29206804        3       0.00000000      -0.00051075      -0.00279736      -0.00272892
Pt       4.21082121       0.81037256      22.29206808        3       0.00000000       0.00453599      -0.01114729      -0.06708130
Pt       7.01803485       0.81037259      22.29206811        3       0.00000000       0.00265723       0.00101819      -0.00275044
Pt       2.80721434       3.24149110      22.29206780        3       0.00000000      -0.01194287       0.00164146      -0.06686607
Pt       5.61442775       3.24149130      22.29206801        3       0.00000000       0.00740946       0.00954523      -0.06688591
Pt       8.42164144       3.24149143      22.29206808        3       0.00000000      -0.00188012       0.07582781      -0.15043700
Pt       4.21082099       5.67261006      22.29206776        3       0.00000000      -0.00215151       0.00180151      -0.00251276
Pt       7.01803485       5.67260985      22.29206778        3       0.00000000       0.06660797      -0.03630629      -0.15046778
Pt       9.82524820       5.67261061      22.29206807        3       0.00000000      -0.06471895      -0.03953386      -0.15046234
Pt      -0.00000053       1.62074559      24.58417356        2       0.00000000      -0.00457584      -0.24401192       0.25212005
Pt       2.80721447       1.62074548      24.58417379        2       0.00000000      -0.00774477      -0.00833830      -0.01743376
Pt       5.61442782       1.62074544      24.58417375        2       0.00000000       0.01090638      -0.00260751      -0.01746726
Pt       1.40360648       4.05186445      24.58417388        2       0.00000000      -0.00894062       0.00662318      -0.04887172
Pt       4.21082098       4.05186402      24.58417384        2       0.00000000      -0.00322880       0.01074976      -0.01742392
Pt       7.01803473       4.05186413      24.58417382        2       0.00000000       0.01040708       0.00432583      -0.04897555
Pt       2.80721282       6.48298339      24.58417358        2       0.00000000       0.21334852       0.11794119       0.25228199
Pt       5.61442787       6.48298335      24.58417389        2       0.00000000      -0.20870559       0.12595938       0.25219357
Pt       8.42164231       6.48298348      24.58417365        2       0.00000000      -0.00147269      -0.01096425      -0.04878585
Pt       0.00000105      -0.00016862      27.14295620        1       0.00000000       0.00000203       0.00018824       0.00649938
Pt       2.80490396      -0.00437682      26.89929867        1       0.00000000       0.00534778       0.00134112      -0.00272103
Pt       5.61405510      -0.00221875      26.89680891        1       0.00000000      -0.00526416      -0.00070589      -0.00272510
Pt       1.40187879       2.43247933      26.89676269        1       0.00000000       0.00205752       0.00478537      -0.00292413
Pt       4.21081897       2.43109000      26.90577275        1       0.00000000      -0.00001454      -0.00004025       0.00101683
Pt       7.02296833       2.43123111      26.89919365        1       0.00000000      -0.00382790       0.00393877      -0.00256390
Pt       2.80458255       4.86638801      26.89923278        1       0.00000000      -0.00150554      -0.00538393      -0.00275633
Pt       5.61653867       4.86298826      26.89673929        1       0.00000000       0.00320173      -0.00417374      -0.00299982
Pt       8.42164296       4.86220455      26.91167995        1       0.00000000       0.00000762      -0.00001931       0.00235960
C        0.00000006       0.00006804      29.22683003        0       1.00000000       0.00006279      -0.00021754      -0.01423874
H        0.52314673       0.90516330      29.56809500        0       0.00000000       0.00272527       0.00498283       0.00414617
H        0.52212419      -0.90529828      29.56895029        0       0.00000000       0.00289391      -0.00476898       0.00375504
H       -1.04527006       0.00062262      29.56852019        0       0.00000000      -0.00568599       0.00033628       0.00397715
