40
Lattice="8.421641763931781 0.0 0.0 4.2108208819658905 7.293355709136913 0.0 0.0 0.0 46.87624170604845" Properties=species:S:1:pos:R:3:tags:I:1:initial_magmoms:R:1:forces:R:3 charge=0 spin=0 energy=-206.89785506076538 free_energy=-206.89785506076538 stress="0.010363457724452019 -6.148032838382278e-08 3.3214262451508603e-09 -6.148032838382278e-08 0.010363354347646236 -3.957247258767893e-07 3.3214262451508603e-09 -3.957247258767893e-07 -0.00032648464548401535" pbc="T T T"
Pt      -0.00000001       0.00000004      19.95723550        4       0.00000000       0.00000190      -0.00000186       0.01361464
Pt       2.80721400      -0.00000009      19.95723557        4       0.00000000      -0.00177809      -0.00512652       0.01715040
Pt       5.61442776      -0.00000012      19.95723555        4       0.00000000       0.00188019      -0.00359582       0.01926929
Pt       1.40360718       2.43111835      19.95723542        4       0.00000000      -0.00406489       0.00017679       0.01921644
Pt       4.21082079       2.43111843      19.95723552        4       0.00000000       0.00000184      -0.00000576       0.02552508
Pt       7.01803481       2.43111844      19.95723550        4       0.00000000       0.00533977       0.00100156       0.01714603
Pt       2.80721421       4.86223734      19.95723529        4       0.00000000      -0.00356402       0.00411245       0.01723604
Pt       5.61442795       4.86223729      19.95723542        4       0.00000000       0.00218352       0.00341063       0.01926019
Pt       8.42164148       4.86223724      19.95723551        4       0.00000000       0.00000349       0.00000667      -0.03654763
Pt       1.40360717       0.81037261      22.29206804        3       0.00000000      -0.00044063      -0.00347934      -0.00427071
Pt       4.21082121       0.81037256      22.29206808        3       0.00000000       0.00419846      -0.01086824      -0.06722713
Pt       7.01803485       0.81037259      22.29206811        3       0.00000000       0.00318981       0.00138114      -0.00428611
Pt       2.80721434       3.24149110      22.29206780        3       0.00000000      -0.01152027       0.00175977      -0.06699843
Pt       5.61442775       3.24149130      22.29206801        3       0.00000000       0.00731667       0.00908678      -0.06701905
Pt       8.42164144       3.24149143      22.29206808        3       0.00000000      -0.00177690       0.07530637      -0.14933881
Pt       4.21082099       5.67261006      22.29206776        3       0.00000000      -0.00275182       0.00204514      -0.00409958
Pt       7.01803485       5.67260985      22.29206778        3       0.00000000       0.06608339      -0.03613859      -0.14932650
Pt       9.82524820       5.67261061      22.29206807        3       0.00000000      -0.06429962      -0.03919243      -0.14932224
Pt      -0.00000053       1.62074559      24.58417356        2       0.00000000      -0.00346887      -0.24677710       0.25533006
Pt       2.80721447       1.62074548      24.58417379        2       0.00000000      -0.00757883      -0.00425487      -0.01550061
Pt       5.61442782       1.62074544      24.58417375        2       0.00000000       0.00739520      -0.00435078      -0.01549852
Pt       1.40360648       4.05186445      24.58417388        2       0.00000000      -0.01988141       0.00831215      -0.05034770
Pt       4.21082098       4.05186402      24.58417384        2       0.00000000       0.00013418       0.00861600      -0.01562209
Pt       7.01803473       4.05186413      24.58417382        2       0.00000000       0.01733111       0.01296059      -0.05045592
Pt       2.80721282       6.48298339      24.58417358        2       0.00000000       0.21523562       0.12046368       0.25516966
Pt       5.61442787       6.48298335      24.58417389        2       0.00000000      -0.21173050       0.12653886       0.25506487
Pt       8.42164231       6.48298348      24.58417365        2       0.00000000       0.00255882      -0.02118649      -0.05028288
Pt      -0.00000091       0.00000277      27.14563619        1       0.00000000       0.00000013       0.00007943      -0.00992290
Pt       2.80981432      -0.00410870      26.89608111        1       0.00000000      -0.01601631      -0.00097990       0.00619059
Pt       5.61245926      -0.00297008      26.89558441        1       0.00000000       0.01472642      -0.00032506       0.00696518
Pt       1.40197473       2.43438135      26.89556066        1       0.00000000      -0.00778739      -0.01279169       0.00670021
Pt       4.21082099       2.43116974      26.91103829        1       0.00000000      -0.00000826      -0.00004733      -0.01516612
Pt       7.02033518       2.43550412      26.89603693        1       0.00000000       0.00895911      -0.01354387       0.00597696
Pt       2.80232146       4.86215378      26.89600509        1       0.00000000       0.00703447       0.01427205       0.00622112
Pt       5.61802265       4.86213912      26.89548051        1       0.00000000      -0.00692213       0.01287417       0.00671902
Pt       8.42164190       4.86229609      26.92163871        1       0.00000000       0.00001747      -0.00006161      -0.02307805
C        0.00000174      -0.00035729      29.22892613        0       1.00000000       0.00000347       0.00017772      -0.02242676
H        0.90497883       0.52231900      29.57063258        0       0.00000000       0.01098502       0.00595595       0.00470959
H        0.00020734      -1.04548598      29.57046572        0       0.00000000      -0.00038466      -0.01240429       0.00456623
H       -0.90517661       0.52196782      29.57063725        0       0.00000000      -0.01060508       0.00659371       0.00470601
