40
Lattice="8.421641763931781 0.0 0.0 4.2108208819658905 7.293355709136913 0.0 0.0 0.0 46.87624170604845" Properties=species:S:1:pos:R:3:tags:I:1:initial_magmoms:R:1:forces:R:3 charge=0 spin=0 energy=-206.89795233554565 free_energy=-206.89795233554565 stress="0.010357307270169258 -5.14230755754852e-08 -1.1175061764845395e-08 -5.14230755754852e-08 0.010355471633374691 -2.878347231671796e-06 -1.1175061764845395e-08 -2.878347231671796e-06 -0.00035197887336835265" pbc="T T T"
Pt      -0.00000001       0.00000004      19.95723550        4       0.00000000       0.00000855       0.00003023       0.01322301
Pt       2.80721400      -0.00000009      19.95723557        4       0.00000000      -0.00193235      -0.00484244       0.01727470
Pt       5.61442776      -0.00000012      19.95723555        4       0.00000000       0.00198426      -0.00339379       0.01937488
Pt       1.40360718       2.43111835      19.95723542        4       0.00000000      -0.00387216      -0.00004946       0.01925035
Pt       4.21082079       2.43111843      19.95723552        4       0.00000000       0.00002730      -0.00001460       0.02528233
Pt       7.01803481       2.43111844      19.95723550        4       0.00000000       0.00510145       0.00069686       0.01720018
Pt       2.80721421       4.86223734      19.95723529        4       0.00000000      -0.00317409       0.00404757       0.01732152
Pt       5.61442795       4.86223729      19.95723542        4       0.00000000       0.00189998       0.00331656       0.01930292
Pt       8.42164148       4.86223724      19.95723551        4       0.00000000      -0.00000268      -0.00017584      -0.03670524
Pt       1.40360717       0.81037261      22.29206804        3       0.00000000      -0.00035024      -0.00342616      -0.00273510
Pt       4.21082121       0.81037256      22.29206808        3       0.00000000       0.00445744      -0.01138513      -0.06719103
Pt       7.01803485       0.81037259      22.29206811        3       0.00000000       0.00308739       0.00148271      -0.00275686
Pt       2.80721434       3.24149110      22.29206780        3       0.00000000      -0.01208177       0.00175023      -0.06724694
Pt       5.61442775       3.24149130      22.29206801        3       0.00000000       0.00758247       0.00947618      -0.06725772
Pt       8.42164144       3.24149143      22.29206808        3       0.00000000      -0.00184402       0.07541849      -0.15036371
Pt       4.21082099       5.67261006      22.29206776        3       0.00000000      -0.00275764       0.00180071      -0.00234822
Pt       7.01803485       5.67260985      22.29206778        3       0.00000000       0.06681891      -0.03663057      -0.15041326
Pt       9.82524820       5.67261061      22.29206807        3       0.00000000      -0.06495199      -0.03976370      -0.15032980
Pt      -0.00000053       1.62074559      24.58417356        2       0.00000000      -0.00280809      -0.24462651       0.25447151
Pt       2.80721447       1.62074548      24.58417379        2       0.00000000      -0.00858993      -0.00464412      -0.02165477
Pt       5.61442782       1.62074544      24.58417375        2       0.00000000       0.00835981      -0.00490031      -0.02164926
Pt       1.40360648       4.05186445      24.58417388        2       0.00000000      -0.01192445       0.00513134      -0.04681854
Pt       4.21082098       4.05186402      24.58417384        2       0.00000000       0.00013687       0.00953456      -0.02139021
Pt       7.01803473       4.05186413      24.58417382        2       0.00000000       0.01004951       0.00873487      -0.04698063
Pt       2.80721282       6.48298339      24.58417358        2       0.00000000       0.21195149       0.11999764       0.25290719
Pt       5.61442787       6.48298335      24.58417389        2       0.00000000      -0.20913382       0.12494723       0.25271150
Pt       8.42164231       6.48298348      24.58417365        2       0.00000000       0.00195819      -0.01235592      -0.04577553
Pt      -0.00002503      -0.00371740      27.14350260        1       0.00000000       0.00008448       0.01766957      -0.01279969
Pt       2.80654249      -0.00282925      26.89802768        1       0.00000000       0.00422782      -0.00422767      -0.00175725
Pt       5.61504970      -0.00110780      26.89773758        1       0.00000000      -0.00424220      -0.00496692      -0.00111098
Pt       1.40189668       2.43191976      26.89729672        1       0.00000000      -0.00378352       0.00206237      -0.00063346
Pt       4.21080065       2.43145223      26.90537441        1       0.00000000       0.00014444      -0.00093036       0.00430406
Pt       7.02129041       2.43277099      26.89753219        1       0.00000000       0.00288230       0.00153929      -0.00129160
Pt       2.80446804       4.86509517      26.89788552        1       0.00000000      -0.00710831      -0.00567676      -0.00113585
Pt       5.61572504       4.86422781      26.89752574        1       0.00000000       0.00771820      -0.00537309      -0.00051480
Pt       8.42164252       4.86257492      26.91409754        1       0.00000000       0.00010026      -0.00093834      -0.00598601
C        0.00001560      -0.00121920      29.22529088        0       1.00000000      -0.00050672       0.00633284       0.01186513
H        0.90480272      -0.52317059      29.56917234        0       0.00000000       0.00639322      -0.00691101       0.00039813
H       -0.90538724      -0.52210873      29.56918738        0       0.00000000      -0.00641616      -0.00673418       0.00021291
H        0.00055541       1.04430781      29.56636041        0       0.00000000       0.00050567       0.00799756       0.00174592
