40
Lattice="8.421641763931781 0.0 0.0 4.2108208819658905 7.293355709136913 0.0 0.0 0.0 46.87624170604845" Properties=species:S:1:pos:R:3:tags:I:1:initial_magmoms:R:1:forces:R:3 charge=0 spin=0 energy=-206.89809729404175 free_energy=-206.89809729404175 stress="0.010362066328525543 -1.4393197034223704e-07 6.886343939527251e-09 -1.4393197034223704e-07 0.010363499633967876 -4.723174242826644e-06 6.886343939527251e-09 -4.723174242826644e-06 -0.00033626891672611237" pbc="T T T"
Pt      -0.00000001       0.00000004      19.95723550        4       0.00000000       0.00000248       0.00002288       0.01325194
Pt       2.80721400      -0.00000009      19.95723557        4       0.00000000      -0.00201308      -0.00500833       0.01732709
Pt       5.61442776      -0.00000012      19.95723555        4       0.00000000       0.00202064      -0.00345344       0.01944119
Pt       1.40360718       2.43111835      19.95723542        4       0.00000000      -0.00400024       0.00001478       0.01935747
Pt       4.21082079       2.43111843      19.95723552        4       0.00000000       0.00001500      -0.00000865       0.02545402
Pt       7.01803481       2.43111844      19.95723550        4       0.00000000       0.00533946       0.00078561       0.01729537
Pt       2.80721421       4.86223734      19.95723529        4       0.00000000      -0.00333426       0.00421520       0.01741990
Pt       5.61442795       4.86223729      19.95723542        4       0.00000000       0.00197832       0.00340888       0.01940860
Pt       8.42164148       4.86223724      19.95723551        4       0.00000000       0.00000140      -0.00007593      -0.03686345
Pt       1.40360717       0.81037261      22.29206804        3       0.00000000      -0.00044499      -0.00335864      -0.00321584
Pt       4.21082121       0.81037256      22.29206808        3       0.00000000       0.00422659      -0.01116701      -0.06663344
Pt       7.01803485       0.81037259      22.29206811        3       0.00000000       0.00314590       0.00146762      -0.00319619
Pt       2.80721434       3.24149110      22.29206780        3       0.00000000      -0.01178608       0.00187906      -0.06647164
Pt       5.61442775       3.24149130      22.29206801        3       0.00000000       0.00754668       0.00923590      -0.06649335
Pt       8.42164144       3.24149143      22.29206808        3       0.00000000      -0.00174483       0.07545585      -0.15044138
Pt       4.21082099       5.67261006      22.29206776        3       0.00000000      -0.00270131       0.00194864      -0.00285459
Pt       7.01803485       5.67260985      22.29206778        3       0.00000000       0.06642571      -0.03638992      -0.15064029
Pt       9.82524820       5.67261061      22.29206807        3       0.00000000      -0.06466400      -0.03937063      -0.15057206
Pt      -0.00000053       1.62074559      24.58417356        2       0.00000000      -0.00282408      -0.24464519       0.25057214
Pt       2.80721447       1.62074548      24.58417379        2       0.00000000      -0.01015035      -0.00559071      -0.01562610
Pt       5.61442782       1.62074544      24.58417375        2       0.00000000       0.00994782      -0.00583733      -0.01565360
Pt       1.40360648       4.05186445      24.58417388        2       0.00000000      -0.01159477       0.00337272      -0.04873843
Pt       4.21082098       4.05186402      24.58417384        2       0.00000000       0.00010497       0.01213697      -0.01404839
Pt       7.01803473       4.05186413      24.58417382        2       0.00000000       0.00857595       0.00893782      -0.04883776
Pt       2.80721282       6.48298339      24.58417358        2       0.00000000       0.21173187       0.11894832       0.25116181
Pt       5.61442787       6.48298335      24.58417389        2       0.00000000      -0.20893857       0.12391083       0.25101444
Pt       8.42164231       6.48298348      24.58417365        2       0.00000000       0.00312630      -0.01156032      -0.04799018
Pt      -0.00000687      -0.00208831      27.14289865        1       0.00000000      -0.00002847       0.00400808       0.00568992
Pt       2.80627643      -0.00415041      26.89817250        1       0.00000000       0.00636929      -0.00033232      -0.00235110
Pt       5.61580473      -0.00199662      26.89830209        1       0.00000000      -0.00711629      -0.00239191      -0.00362130
Pt       1.40031645       2.43104700      26.89793837        1       0.00000000       0.00434910       0.00559512      -0.00284249
Pt       4.21082932       2.43130568      26.90565370        1       0.00000000      -0.00005963      -0.00014208      -0.00071134
Pt       7.02293802       2.43252835      26.89781960        1       0.00000000      -0.00568015       0.00384187      -0.00173905
Pt       2.80305192       4.86530149      26.89832996        1       0.00000000      -0.00021489      -0.00701218      -0.00305527
Pt       5.61652221       4.86464108      26.89838004        1       0.00000000       0.00237873      -0.00671108      -0.00418818
Pt       8.42165009       4.86235479      26.91251084        1       0.00000000      -0.00000705      -0.00004694       0.00135905
C       -0.00000357      -0.00079070      29.22670993        0       1.00000000       0.00005597       0.00226210      -0.02297952
H       -0.00043890      -1.04535183      29.57113815        0       0.00000000      -0.00049942       0.00096113      -0.00079747
H       -0.90543758       0.52365930      29.56523866        0       0.00000000      -0.00028817       0.00059154       0.01090845
H        0.90590021       0.52283759      29.56524439        0       0.00000000       0.00074843       0.00010121       0.01090101
