40
Lattice="8.421641763931781 0.0 0.0 4.2108208819658905 7.293355709136913 0.0 0.0 0.0 46.87624170604845" Properties=species:S:1:pos:R:3:tags:I:1:initial_magmoms:R:1:forces:R:3 charge=0 spin=0 energy=-206.89771773166382 free_energy=-206.89771773166382 stress="0.010364518500864506 9.290419100693725e-09 -2.7956641446280628e-09 9.290419100693725e-09 0.010364659130573273 2.2587170178667293e-07 -2.7956641446280628e-09 2.2587170178667293e-07 -0.00032579482649452984" pbc="T T T"
Pt      -0.00000001       0.00000004      19.95723550        4       0.00000000       0.00000095       0.00000043       0.01352965
Pt       2.80721400      -0.00000009      19.95723557        4       0.00000000      -0.00176781      -0.00484137       0.01707843
Pt       5.61442776      -0.00000012      19.95723555        4       0.00000000       0.00187102      -0.00343981       0.01921282
Pt       1.40360718       2.43111835      19.95723542        4       0.00000000      -0.00392950       0.00011901       0.01915690
Pt       4.21082079       2.43111843      19.95723552        4       0.00000000       0.00000092      -0.00000041       0.02539427
Pt       7.01803481       2.43111844      19.95723550        4       0.00000000       0.00509466       0.00088052       0.01707003
Pt       2.80721421       4.86223734      19.95723529        4       0.00000000      -0.00333091       0.00396898       0.01716289
Pt       5.61442795       4.86223729      19.95723542        4       0.00000000       0.00205682       0.00333063       0.01920236
Pt       8.42164148       4.86223724      19.95723551        4       0.00000000       0.00000258      -0.00000729      -0.03641218
Pt       1.40360717       0.81037261      22.29206804        3       0.00000000      -0.00047396      -0.00356926      -0.00394010
Pt       4.21082121       0.81037256      22.29206808        3       0.00000000       0.00439202      -0.01119638      -0.06744961
Pt       7.01803485       0.81037259      22.29206811        3       0.00000000       0.00330078       0.00142410      -0.00395530
Pt       2.80721434       3.24149110      22.29206780        3       0.00000000      -0.01191095       0.00178352      -0.06723008
Pt       5.61442775       3.24149130      22.29206801        3       0.00000000       0.00752044       0.00944589      -0.06725323
Pt       8.42164144       3.24149143      22.29206808        3       0.00000000      -0.00181639       0.07551307      -0.14930207
Pt       4.21082099       5.67261006      22.29206776        3       0.00000000      -0.00282868       0.00215884      -0.00372817
Pt       7.01803485       5.67260985      22.29206778        3       0.00000000       0.06628469      -0.03619633      -0.14932676
Pt       9.82524820       5.67261061      22.29206807        3       0.00000000      -0.06446280      -0.03931079      -0.14931937
Pt      -0.00000053       1.62074559      24.58417356        2       0.00000000      -0.00309252      -0.24661730       0.25709882
Pt       2.80721447       1.62074548      24.58417379        2       0.00000000      -0.00411914      -0.00201670      -0.01768610
Pt       5.61442782       1.62074544      24.58417375        2       0.00000000       0.00362978      -0.00261793      -0.01769938
Pt       1.40360648       4.05186445      24.58417388        2       0.00000000      -0.01753138       0.00771804      -0.04998774
Pt       4.21082098       4.05186402      24.58417384        2       0.00000000       0.00041983       0.00447751      -0.01763911
Pt       7.01803473       4.05186413      24.58417382        2       0.00000000       0.01566745       0.01121026      -0.05012624
Pt       2.80721282       6.48298339      24.58417358        2       0.00000000       0.21498714       0.12057368       0.25748414
Pt       5.61442787       6.48298335      24.58417389        2       0.00000000      -0.21185754       0.12601453       0.25736377
Pt       8.42164231       6.48298348      24.58417365        2       0.00000000       0.00189088      -0.01895875      -0.04997872
Pt       0.00000053       0.00003744      27.14560107        1       0.00000000      -0.00000434      -0.00010008      -0.00959746
Pt       2.80971805      -0.00333203      26.89599608        1       0.00000000      -0.01561987      -0.00264795       0.00641118
Pt       5.61218412      -0.00219276      26.89569769        1       0.00000000       0.01470541      -0.00188596       0.00688866
Pt       1.40284814       2.43408673      26.89565071        1       0.00000000      -0.00886729      -0.01174398       0.00671353
Pt       4.21082033       2.43108578      26.91321756        1       0.00000000      -0.00001544       0.00003172      -0.01895493
Pt       7.01964210       2.43488113      26.89592894        1       0.00000000       0.00996369      -0.01216306       0.00616196
Pt       2.80310242       4.86168167      26.89597127        1       0.00000000       0.00569046       0.01507056       0.00611589
Pt       5.61743721       4.86133932      26.89562936        1       0.00000000      -0.00587270       0.01390710       0.00655785
Pt       8.42164539       4.86220550      26.91986633        1       0.00000000       0.00001664       0.00004861      -0.01997770
C       -0.00000449       0.00035329      29.22906295        0       1.00000000       0.00000959      -0.00016911      -0.02308442
H        0.90519401      -0.52187941      29.57077421        0       0.00000000       0.01102059      -0.00665309       0.00478290
H       -0.90489338      -0.52241599      29.57077220        0       0.00000000      -0.01125459      -0.00628247       0.00478326
H       -0.00031648       1.04542378      29.57069924        0       0.00000000       0.00022959       0.01274106       0.00447912
