40
Lattice="8.421641763931781 0.0 0.0 4.2108208819658905 7.293355709136913 0.0 0.0 0.0 46.87624170604845" Properties=species:S:1:pos:R:3:tags:I:1:initial_magmoms:R:1:forces:R:3 charge=0 spin=0 energy=-206.89657332248413 free_energy=-206.89657332248413 stress="0.010358287952840328 -4.475824599836642e-09 1.34919124761268e-08 -4.475824599836642e-09 0.010358103550970554 1.6200766594920424e-07 1.34919124761268e-08 1.6200766594920424e-07 -0.0003381207352504134" pbc="T T T"
Pt      -0.00000001       0.00000004      19.95723550        4       0.00000000       0.00000118      -0.00000352       0.01320989
Pt       2.80721400      -0.00000009      19.95723557        4       0.00000000      -0.00195668      -0.00498553       0.01716458
Pt       5.61442776      -0.00000012      19.95723555        4       0.00000000       0.00202321      -0.00324605       0.01953574
Pt       1.40360718       2.43111835      19.95723542        4       0.00000000      -0.00383498      -0.00011912       0.01948508
Pt       4.21082079       2.43111843      19.95723552        4       0.00000000       0.00000120      -0.00000627       0.02540309
Pt       7.01803481       2.43111844      19.95723550        4       0.00000000       0.00531363       0.00077864       0.01716013
Pt       2.80721421       4.86223734      19.95723529        4       0.00000000      -0.00335952       0.00419935       0.01725267
Pt       5.61442795       4.86223729      19.95723542        4       0.00000000       0.00181273       0.00336053       0.01953249
Pt       8.42164148       4.86223724      19.95723551        4       0.00000000       0.00000403       0.00000769      -0.03694420
Pt       1.40360717       0.81037261      22.29206804        3       0.00000000      -0.00016979      -0.00402875      -0.00290159
Pt       4.21082121       0.81037256      22.29206808        3       0.00000000       0.00410190      -0.01150645      -0.06672795
Pt       7.01803485       0.81037259      22.29206811        3       0.00000000       0.00352767       0.00188336      -0.00293201
Pt       2.80721434       3.24149110      22.29206780        3       0.00000000      -0.01202327       0.00216863      -0.06649905
Pt       5.61442775       3.24149130      22.29206801        3       0.00000000       0.00792269       0.00932877      -0.06653185
Pt       8.42164144       3.24149143      22.29206808        3       0.00000000      -0.00163351       0.07570539      -0.15057950
Pt       4.21082099       5.67261006      22.29206776        3       0.00000000      -0.00335915       0.00208160      -0.00275219
Pt       7.01803485       5.67260985      22.29206778        3       0.00000000       0.06633622      -0.03645734      -0.15057002
Pt       9.82524820       5.67261061      22.29206807        3       0.00000000      -0.06470232      -0.03925347      -0.15056595
Pt      -0.00000053       1.62074559      24.58417356        2       0.00000000      -0.00074595      -0.24348482       0.25200918
Pt       2.80721447       1.62074548      24.58417379        2       0.00000000      -0.01100776      -0.00220988      -0.01677042
Pt       5.61442782       1.62074544      24.58417375        2       0.00000000       0.00730039      -0.00842153      -0.01675915
Pt       1.40360648       4.05186445      24.58417388        2       0.00000000      -0.01307100      -0.00070143      -0.04927186
Pt       4.21082098       4.05186402      24.58417384        2       0.00000000       0.00363589       0.01054781      -0.01688825
Pt       7.01803473       4.05186413      24.58417382        2       0.00000000       0.00616331       0.01154687      -0.04942494
Pt       2.80721282       6.48298339      24.58417358        2       0.00000000       0.21108478       0.12120230       0.25216785
Pt       5.61442787       6.48298335      24.58417389        2       0.00000000      -0.21032834       0.12259660       0.25199753
Pt       8.42164231       6.48298348      24.58417365        2       0.00000000       0.00696946      -0.01079263      -0.04917635
Pt       0.00000067       0.00017547      27.14299414        1       0.00000000      -0.00001559      -0.00018187       0.00651407
Pt       2.80784771      -0.00445506      26.89672486        1       0.00000000       0.00464829       0.00138933      -0.00166276
Pt       5.61703587      -0.00226829      26.89947544        1       0.00000000      -0.00612911      -0.00066180      -0.00365044
Pt       1.40031281       2.43002447      26.89940688        1       0.00000000       0.00245839       0.00567862      -0.00375389
Pt       4.21082027       2.43115221      26.90550662        1       0.00000000      -0.00001213       0.00002947       0.00011669
Pt       7.02159612       2.43392798      26.89665469        1       0.00000000      -0.00345719       0.00332529      -0.00185746
Pt       2.80303113       4.86400975      26.89664412        1       0.00000000      -0.00117874      -0.00458974      -0.00191499
Pt       5.61510365       4.86573291      26.89930163        1       0.00000000       0.00365399      -0.00488701      -0.00374253
Pt       8.42164495       4.86227098      26.91194735        1       0.00000000       0.00002539       0.00004623       0.00270790
C        0.00000190      -0.00007171      29.22681477        0       1.00000000       0.00000434       0.00018133      -0.01429377
H       -0.52276241      -0.90538947      29.56806665        0       0.00000000      -0.00275633      -0.00508527       0.00414954
H       -0.52250658       0.90507248      29.56893809        0       0.00000000      -0.00299470       0.00487187       0.00379899
H        1.04527276      -0.00018872      29.56850405        0       0.00000000       0.00574752      -0.00030738       0.00396572
