40
Lattice="8.421641763931781 0.0 0.0 4.2108208819658905 7.293355709136913 0.0 0.0 0.0 46.87624170604845" Properties=species:S:1:pos:R:3:tags:I:1:initial_magmoms:R:1:forces:R:3 charge=0 spin=0 energy=-206.89785506076538 free_energy=-206.89785506076538 stress="0.010363457724452019 -5.839077488190014e-08 4.293090771767538e-09 -5.839077488190014e-08 0.010363354347646236 -3.935337531402183e-07 4.293090771767538e-09 -3.935337531402183e-07 -0.00032648161868564785" pbc="T T T"
Pt      -0.00000001       0.00000004      19.95723550        4       0.00000000       0.00000190      -0.00000189       0.01361447
Pt       2.80721400      -0.00000009      19.95723557        4       0.00000000      -0.00177802      -0.00512626       0.01715034
Pt       5.61442776      -0.00000012      19.95723555        4       0.00000000       0.00188020      -0.00359563       0.01926920
Pt       1.40360718       2.43111835      19.95723542        4       0.00000000      -0.00406481       0.00017677       0.01921642
Pt       4.21082079       2.43111843      19.95723552        4       0.00000000       0.00000193      -0.00000583       0.02552504
Pt       7.01803481       2.43111844      19.95723550        4       0.00000000       0.00533963       0.00100165       0.01714609
Pt       2.80721421       4.86223734      19.95723529        4       0.00000000      -0.00356412       0.00411246       0.01723611
Pt       5.61442795       4.86223729      19.95723542        4       0.00000000       0.00218344       0.00341072       0.01926017
Pt       8.42164148       4.86223724      19.95723551        4       0.00000000       0.00000340       0.00000665      -0.03654733
Pt       1.40360717       0.81037261      22.29206804        3       0.00000000      -0.00044071      -0.00347950      -0.00427105
Pt       4.21082121       0.81037256      22.29206808        3       0.00000000       0.00419845      -0.01086821      -0.06722701
Pt       7.01803485       0.81037259      22.29206811        3       0.00000000       0.00318967       0.00138104      -0.00428650
Pt       2.80721434       3.24149110      22.29206780        3       0.00000000      -0.01152041       0.00175953      -0.06699806
Pt       5.61442775       3.24149130      22.29206801        3       0.00000000       0.00731655       0.00908659      -0.06701874
Pt       8.42164144       3.24149143      22.29206808        3       0.00000000      -0.00177696       0.07530624      -0.14933911
Pt       4.21082099       5.67261006      22.29206776        3       0.00000000      -0.00275169       0.00204477      -0.00409914
Pt       7.01803485       5.67260985      22.29206778        3       0.00000000       0.06608330      -0.03613867      -0.14932631
Pt       9.82524820       5.67261061      22.29206807        3       0.00000000      -0.06429977      -0.03919264      -0.14932232
Pt      -0.00000053       1.62074559      24.58417356        2       0.00000000      -0.00347001      -0.24677742       0.25532919
Pt       2.80721447       1.62074548      24.58417379        2       0.00000000      -0.00757617      -0.00425392      -0.01550422
Pt       5.61442782       1.62074544      24.58417375        2       0.00000000       0.00739441      -0.00435039      -0.01549610
Pt       1.40360648       4.05186445      24.58417388        2       0.00000000      -0.01988201       0.00831500      -0.05034743
Pt       4.21082098       4.05186402      24.58417384        2       0.00000000       0.00013486       0.00861452      -0.01562086
Pt       7.01803473       4.05186413      24.58417382        2       0.00000000       0.01733210       0.01296102      -0.05045364
Pt       2.80721282       6.48298339      24.58417358        2       0.00000000       0.21523532       0.12046369       0.25516999
Pt       5.61442787       6.48298335      24.58417389        2       0.00000000      -0.21173199       0.12653813       0.25506267
Pt       8.42164231       6.48298348      24.58417365        2       0.00000000       0.00256067      -0.02118813      -0.05028320
Pt      -0.00000080       0.00000294      27.14563497        1       0.00000000      -0.00000569       0.00008068      -0.00992140
Pt       2.80981447      -0.00410858      26.89608086        1       0.00000000      -0.01601468      -0.00098037       0.00619757
Pt       5.61245921      -0.00297008      26.89558422        1       0.00000000       0.01472804      -0.00032526       0.00696499
Pt       1.40197487       2.43438156      26.89555996        1       0.00000000      -0.00779157      -0.01279134       0.00670698
Pt       4.21082091       2.43116970      26.91103891        1       0.00000000      -0.00000408      -0.00004664      -0.01517229
Pt       7.02033502       2.43550423      26.89603637        1       0.00000000       0.00895924      -0.01354410       0.00597670
Pt       2.80232150       4.86215377      26.89600485        1       0.00000000       0.00703100       0.01427334       0.00622125
Pt       5.61802248       4.86213926      26.89548034        1       0.00000000      -0.00692086       0.01287232       0.00671907
Pt       8.42164203       4.86229617      26.92163951        1       0.00000000       0.00001871      -0.00006223      -0.02308414
C        0.00000150      -0.00035774      29.22892612        0       1.00000000       0.00001723       0.00020217      -0.02241904
H       -0.90517631       0.52196738      29.57063809        0       0.00000000      -0.01060657       0.00659181       0.00469916
H        0.90497891       0.52231922      29.57063339        0       0.00000000       0.01097343       0.00594467       0.00470372
H        0.00020757      -1.04548584      29.57046550        0       0.00000000      -0.00038315      -0.01241532       0.00456871
