40
Lattice="8.421641763931781 0.0 0.0 4.2108208819658905 7.293355709136913 0.0 0.0 0.0 46.87624170604845" Properties=species:S:1:pos:R:3:tags:I:1:initial_magmoms:R:1:forces:R:3 charge=0 spin=0 energy=-206.89809729404175 free_energy=-206.89809729404175 stress="0.010355980135500431 -5.858369078737269e-08 1.2004267802012691e-08 -5.858369078737269e-08 0.010354879312217236 2.7606058665696764e-06 1.2004267802012691e-08 2.7606058665696764e-06 -0.00035168215981684625" pbc="T T T"
Pt      -0.00000001       0.00000004      19.95723550        4       0.00000000      -0.00000626      -0.00002900       0.01328476
Pt       2.80721400      -0.00000009      19.95723557        4       0.00000000      -0.00192429      -0.00497103       0.01727519
Pt       5.61442776      -0.00000012      19.95723555        4       0.00000000       0.00194685      -0.00340373       0.01934329
Pt       1.40360718       2.43111835      19.95723542        4       0.00000000      -0.00401434       0.00006491       0.01935391
Pt       4.21082079       2.43111843      19.95723552        4       0.00000000      -0.00002487       0.00000748       0.02543055
Pt       7.01803481       2.43111844      19.95723550        4       0.00000000       0.00536792       0.00083517       0.01733623
Pt       2.80721421       4.86223734      19.95723529        4       0.00000000      -0.00342802       0.00423397       0.01740634
Pt       5.61442795       4.86223729      19.95723542        4       0.00000000       0.00203541       0.00347215       0.01940241
Pt       8.42164148       4.86223724      19.95723551        4       0.00000000       0.00000926       0.00017803      -0.03683429
Pt       1.40360717       0.81037261      22.29206804        3       0.00000000      -0.00026163      -0.00333269      -0.00310932
Pt       4.21082121       0.81037256      22.29206808        3       0.00000000       0.00425248      -0.01101622      -0.06698224
Pt       7.01803485       0.81037259      22.29206811        3       0.00000000       0.00300602       0.00143654      -0.00315197
Pt       2.80721434       3.24149110      22.29206780        3       0.00000000      -0.01170532       0.00189694      -0.06656046
Pt       5.61442775       3.24149130      22.29206801        3       0.00000000       0.00749460       0.00935085      -0.06662171
Pt       8.42164144       3.24149143      22.29206808        3       0.00000000      -0.00178730       0.07622537      -0.15047120
Pt       4.21082099       5.67261006      22.29206776        3       0.00000000      -0.00272044       0.00199030      -0.00317538
Pt       7.01803485       5.67260985      22.29206778        3       0.00000000       0.06625507      -0.03609768      -0.15047963
Pt       9.82524820       5.67261061      22.29206807        3       0.00000000      -0.06449494      -0.03917670      -0.15054974
Pt      -0.00000053       1.62074559      24.58417356        2       0.00000000      -0.00312522      -0.24350052       0.25029078
Pt       2.80721447       1.62074548      24.58417379        2       0.00000000      -0.01090518      -0.00694192      -0.01875609
Pt       5.61442782       1.62074544      24.58417375        2       0.00000000       0.01085292      -0.00669062      -0.01872917
Pt       1.40360648       4.05186445      24.58417388        2       0.00000000      -0.01409957       0.00416368      -0.04719317
Pt       4.21082098       4.05186402      24.58417384        2       0.00000000      -0.00007095       0.01282022      -0.01924239
Pt       7.01803473       4.05186413      24.58417382        2       0.00000000       0.01152084       0.00891800      -0.04737458
Pt       2.80721282       6.48298339      24.58417358        2       0.00000000       0.21316309       0.11898699       0.25235233
Pt       5.61442787       6.48298335      24.58417389        2       0.00000000      -0.20996465       0.12461912       0.25217426
Pt       8.42164231       6.48298348      24.58417365        2       0.00000000       0.00262487      -0.01428887      -0.04740636
Pt       0.00002853       0.00374377      27.14358397        1       0.00000000      -0.00012110      -0.01778216      -0.01332295
Pt       2.80667935      -0.00455780      26.89793858        1       0.00000000       0.00397483      -0.00298125      -0.00142756
Pt       5.61533542      -0.00287297      26.89751706        1       0.00000000      -0.00436109      -0.00376705      -0.00077875
Pt       1.40121154       2.43095475      26.89759505        1       0.00000000       0.00002557       0.00955787      -0.00070878
Pt       4.21081911       2.43077593      26.90435596        1       0.00000000      -0.00006784       0.00080725       0.00515624
Pt       7.02168277       2.43211243      26.89800827        1       0.00000000      -0.00039138       0.00883158      -0.00153299
Pt       2.80411393       4.86412922      26.89774169        1       0.00000000      -0.00287294       0.00255616      -0.00178695
Pt       5.61586708       4.86360373      26.89718951        1       0.00000000       0.00393529       0.00257081      -0.00075555
Pt       8.42167250       4.86188647      26.91484821        1       0.00000000      -0.00014144       0.00110447      -0.00658030
C       -0.00001435       0.00123144      29.22518398        0       1.00000000       0.00047506      -0.00648952       0.01243285
H       -0.00084770      -1.04429149      29.56627877        0       0.00000000      -0.00064565      -0.00849145       0.00164416
H       -0.90466142       0.52341817      29.56907841        0       0.00000000      -0.00680874       0.00738663       0.00041368
H        0.90553437       0.52185759      29.56909460        0       0.00000000       0.00700311       0.00694570       0.00023429
