40
Lattice="8.421641763931781 0.0 0.0 4.2108208819658905 7.293355709136913 0.0 0.0 0.0 46.87624170604845" Properties=species:S:1:pos:R:3:tags:I:1:initial_magmoms:R:1:forces:R:3 charge=0 spin=0 energy=-206.89809729404175 free_energy=-206.89809729404175 stress="0.010362056083977222 -1.4845485907244438e-07 5.163492300397365e-09 -1.4845485907244438e-07 0.010363494977355003 -4.728976364276605e-06 5.163492300397365e-09 -4.728976364276605e-06 -0.00033627264201641083" pbc="T T T"
Pt      -0.00000001       0.00000004      19.95723550        4       0.00000000       0.00000242       0.00002282       0.01325200
Pt       2.80721400      -0.00000009      19.95723557        4       0.00000000      -0.00201312      -0.00500847       0.01732709
Pt       5.61442776      -0.00000012      19.95723555        4       0.00000000       0.00202067      -0.00345339       0.01944142
Pt       1.40360718       2.43111835      19.95723542        4       0.00000000      -0.00400035       0.00001508       0.01935722
Pt       4.21082079       2.43111843      19.95723552        4       0.00000000       0.00001505      -0.00000853       0.02545392
Pt       7.01803481       2.43111844      19.95723550        4       0.00000000       0.00533947       0.00078559       0.01729539
Pt       2.80721421       4.86223734      19.95723529        4       0.00000000      -0.00333425       0.00421525       0.01741969
Pt       5.61442795       4.86223729      19.95723542        4       0.00000000       0.00197828       0.00340905       0.01940860
Pt       8.42164148       4.86223724      19.95723551        4       0.00000000       0.00000147      -0.00007591      -0.03686377
Pt       1.40360717       0.81037261      22.29206804        3       0.00000000      -0.00044486      -0.00335902      -0.00321675
Pt       4.21082121       0.81037256      22.29206808        3       0.00000000       0.00422716      -0.01116713      -0.06663422
Pt       7.01803485       0.81037259      22.29206811        3       0.00000000       0.00314587       0.00146769      -0.00319578
Pt       2.80721434       3.24149110      22.29206780        3       0.00000000      -0.01178611       0.00187912      -0.06647162
Pt       5.61442775       3.24149130      22.29206801        3       0.00000000       0.00754678       0.00923582      -0.06649356
Pt       8.42164144       3.24149143      22.29206808        3       0.00000000      -0.00174478       0.07545597      -0.15044144
Pt       4.21082099       5.67261006      22.29206776        3       0.00000000      -0.00270144       0.00194865      -0.00285431
Pt       7.01803485       5.67260985      22.29206778        3       0.00000000       0.06642593      -0.03638991      -0.15064007
Pt       9.82524820       5.67261061      22.29206807        3       0.00000000      -0.06466386      -0.03937041      -0.15057267
Pt      -0.00000053       1.62074559      24.58417356        2       0.00000000      -0.00282282      -0.24464464       0.25057328
Pt       2.80721447       1.62074548      24.58417379        2       0.00000000      -0.01015345      -0.00559036      -0.01562481
Pt       5.61442782       1.62074544      24.58417375        2       0.00000000       0.00994901      -0.00583823      -0.01565651
Pt       1.40360648       4.05186445      24.58417388        2       0.00000000      -0.01159330       0.00337057      -0.04873660
Pt       4.21082098       4.05186402      24.58417384        2       0.00000000       0.00010480       0.01213804      -0.01405070
Pt       7.01803473       4.05186413      24.58417382        2       0.00000000       0.00857524       0.00893720      -0.04884045
Pt       2.80721282       6.48298339      24.58417358        2       0.00000000       0.21173173       0.11894840       0.25116092
Pt       5.61442787       6.48298335      24.58417389        2       0.00000000      -0.20893866       0.12391117       0.25101340
Pt       8.42164231       6.48298348      24.58417365        2       0.00000000       0.00312600      -0.01155911      -0.04799178
Pt      -0.00000680      -0.00208853      27.14289863        1       0.00000000      -0.00002880       0.00400674       0.00570393
Pt       2.80627632      -0.00415066      26.89817331        1       0.00000000       0.00637056      -0.00033070      -0.00235103
Pt       5.61580534      -0.00199657      26.89830267        1       0.00000000      -0.00711632      -0.00239272      -0.00362119
Pt       1.40031587       2.43104683      26.89793960        1       0.00000000       0.00435362       0.00559723      -0.00284900
Pt       4.21082959       2.43130574      26.90565153        1       0.00000000      -0.00006359      -0.00014219      -0.00070460
Pt       7.02293793       2.43252837      26.89781971        1       0.00000000      -0.00567768       0.00384159      -0.00173757
Pt       2.80305221       4.86530189      26.89833078        1       0.00000000      -0.00021965      -0.00701501      -0.00305514
Pt       5.61652258       4.86464133      26.89838022        1       0.00000000       0.00237732      -0.00671009      -0.00418695
Pt       8.42164988       4.86235487      26.91250848        1       0.00000000      -0.00000487      -0.00004730       0.00136492
C       -0.00000332      -0.00079108      29.22671104        0       1.00000000       0.00003331       0.00223970      -0.02303467
H        0.90590035       0.52283708      29.56524315        0       0.00000000       0.00076935       0.00011776       0.01092274
H       -0.00043918      -1.04535215      29.57113773        0       0.00000000      -0.00049838       0.00096297      -0.00079137
H       -0.90543819       0.52365902      29.56523666        0       0.00000000      -0.00028766       0.00059684       0.01092198
