40
Lattice="8.421641763931781 0.0 0.0 4.2108208819658905 7.293355709136913 0.0 0.0 0.0 46.87624170604845" Properties=species:S:1:pos:R:3:tags:I:1:initial_magmoms:R:1:forces:R:3 charge=0 spin=0 energy=-206.89362074680054 free_energy=-206.89362074680054 stress="0.010168841108679771 -1.4453566166139353e-07 1.9934081052497277e-08 -1.4453566166139353e-07 0.01016897801309824 -3.562542474355723e-07 1.9934081052497277e-08 -3.562542474355723e-07 -0.0007342920289374888" pbc="T T T"
Pt      -0.00000001       0.00000004      19.95723550        4       0.00000000       0.00000333       0.00000134       0.01283506
Pt       2.80721400      -0.00000009      19.95723557        4       0.00000000      -0.00186210      -0.00479655       0.01709296
Pt       5.61442776      -0.00000012      19.95723555        4       0.00000000       0.00186618      -0.00371260       0.01884592
Pt       1.40360718       2.43111835      19.95723542        4       0.00000000      -0.00415850       0.00025092       0.01878580
Pt       4.21082079       2.43111843      19.95723552        4       0.00000000       0.00000100      -0.00000181       0.02499508
Pt       7.01803481       2.43111844      19.95723550        4       0.00000000       0.00509964       0.00077375       0.01708676
Pt       2.80721421       4.86223734      19.95723529        4       0.00000000      -0.00324230       0.00402680       0.01717813
Pt       5.61442795       4.86223729      19.95723542        4       0.00000000       0.00229115       0.00346349       0.01883220
Pt       8.42164148       4.86223724      19.95723551        4       0.00000000       0.00000412      -0.00000347      -0.03730452
Pt       1.40360717       0.81037261      22.29206804        3       0.00000000      -0.00107724      -0.00300005      -0.00333822
Pt       4.21082121       0.81037256      22.29206808        3       0.00000000       0.00436346      -0.01069842      -0.06680951
Pt       7.01803485       0.81037259      22.29206811        3       0.00000000       0.00311358       0.00062089      -0.00337415
Pt       2.80721434       3.24149110      22.29206780        3       0.00000000      -0.01146628       0.00156541      -0.06661889
Pt       5.61442775       3.24149130      22.29206801        3       0.00000000       0.00710198       0.00916625      -0.06663197
Pt       8.42164144       3.24149143      22.29206808        3       0.00000000      -0.00197456       0.07603253      -0.14740893
Pt       4.21082099       5.67261006      22.29206776        3       0.00000000      -0.00204866       0.00238299      -0.00316778
Pt       7.01803485       5.67260985      22.29206778        3       0.00000000       0.06682424      -0.03632741      -0.14741951
Pt       9.82524820       5.67261061      22.29206807        3       0.00000000      -0.06483454      -0.03972218      -0.14743111
Pt      -0.00000053       1.62074559      24.58417356        2       0.00000000      -0.00555431      -0.24305366       0.20536405
Pt       2.80721447       1.62074548      24.58417379        2       0.00000000      -0.00061801      -0.00571125      -0.05533382
Pt       5.61442782       1.62074544      24.58417375        2       0.00000000       0.00495776       0.00220128      -0.05550400
Pt       1.40360648       4.05186445      24.58417388        2       0.00000000      -0.02071758       0.01580978      -0.09084954
Pt       4.21082098       4.05186402      24.58417384        2       0.00000000      -0.00443039       0.00323536      -0.05541926
Pt       7.01803473       4.05186413      24.58417382        2       0.00000000       0.02421927       0.00999920      -0.09095412
Pt       2.80721282       6.48298339      24.58417358        2       0.00000000       0.21300769       0.11661247       0.20545714
Pt       5.61442787       6.48298335      24.58417389        2       0.00000000      -0.20726413       0.12641500       0.20548911
Pt       8.42164231       6.48298348      24.58417365        2       0.00000000      -0.00359947      -0.02567650      -0.09065606
Pt       0.00000487      -0.00010683      27.12248345        1       0.00000000       0.00000611      -0.00007806      -0.02418151
Pt       2.80620712      -0.00439323      26.88837554        1       0.00000000       0.00272132       0.00336502       0.04117171
Pt       5.61143312      -0.00282416      26.88455919        1       0.00000000       0.00180382       0.00297916       0.04696894
Pt       1.40266477       2.43508611      26.88451533        1       0.00000000       0.00164542      -0.00321517       0.04680071
Pt       4.21080906       2.43110915      26.90329504        1       0.00000000       0.00000797      -0.00004321       0.01479455
Pt       7.02233414       2.43239675      26.88816958        1       0.00000000      -0.00422632       0.00062525       0.04147799
Pt       2.80391643       4.86531637      26.88823190        1       0.00000000       0.00153755      -0.00409663       0.04134786
Pt       5.61837298       4.86107205      26.88450300        1       0.00000000      -0.00346781       0.00009931       0.04668484
Pt       8.42164733       4.86222732      26.91311095        1       0.00000000      -0.00002684      -0.00001201       0.00564702
C       -0.00000096      -0.00002959      29.20171544        0       1.00000000       0.00005773       0.00032793      -0.00850878
H       -1.04661376      -0.00005160      29.53801116        0       0.00000000      -0.00259868      -0.00001305       0.03801845
H        0.52323853       0.90654987      29.53759943        0       0.00000000       0.00145507       0.00231225       0.03822882
H        0.52337507      -0.90623619      29.53842368        0       0.00000000       0.00107961      -0.00210437       0.03780868
