40
Lattice="8.421641763931781 0.0 0.0 4.2108208819658905 7.293355709136913 0.0 0.0 0.0 46.87624170604845" Properties=species:S:1:pos:R:3:tags:I:1:initial_magmoms:R:1:forces:R:3 charge=0 spin=0 energy=-206.89379431552612 free_energy=-206.89379431552612 stress="0.010169279761612415 -1.5894515570380463e-07 -1.537448390820373e-08 -1.5894515570380463e-07 0.010169202461838722 1.360986630061234e-07 -1.537448390820373e-08 1.360986630061234e-07 -0.00073383713606745" pbc="T T T"
Pt      -0.00000001       0.00000004      19.95723550        4       0.00000000       0.00000076      -0.00000176       0.01279167
Pt       2.80721400      -0.00000009      19.95723557        4       0.00000000      -0.00181298      -0.00506479       0.01678823
Pt       5.61442776      -0.00000012      19.95723555        4       0.00000000       0.00194464      -0.00337309       0.01922711
Pt       1.40360718       2.43111835      19.95723542        4       0.00000000      -0.00390517       0.00001276       0.01917092
Pt       4.21082079       2.43111843      19.95723552        4       0.00000000       0.00000053      -0.00000537       0.02501768
Pt       7.01803481       2.43111844      19.95723550        4       0.00000000       0.00531147       0.00094471       0.01678341
Pt       2.80721421       4.86223734      19.95723529        4       0.00000000      -0.00350089       0.00411787       0.01687192
Pt       5.61442795       4.86223729      19.95723542        4       0.00000000       0.00195997       0.00336109       0.01921903
Pt       8.42164148       4.86223724      19.95723551        4       0.00000000       0.00000333       0.00000413      -0.03743944
Pt       1.40360717       0.81037261      22.29206804        3       0.00000000      -0.00064573      -0.00434281      -0.00343973
Pt       4.21082121       0.81037256      22.29206808        3       0.00000000       0.00391159      -0.01099867      -0.06657098
Pt       7.01803485       0.81037259      22.29206811        3       0.00000000       0.00404221       0.00164072      -0.00348376
Pt       2.80721434       3.24149110      22.29206780        3       0.00000000      -0.01149566       0.00209676      -0.06636015
Pt       5.61442775       3.24149130      22.29206801        3       0.00000000       0.00758629       0.00892440      -0.06640670
Pt       8.42164144       3.24149143      22.29206808        3       0.00000000      -0.00159609       0.07593381      -0.14750123
Pt       4.21082099       5.67261006      22.29206776        3       0.00000000      -0.00339849       0.00266114      -0.00330915
Pt       7.01803485       5.67260985      22.29206778        3       0.00000000       0.06651720      -0.03661249      -0.14750396
Pt       9.82524820       5.67261061      22.29206807        3       0.00000000      -0.06492537      -0.03933184      -0.14749569
Pt      -0.00000053       1.62074559      24.58417356        2       0.00000000      -0.00079148      -0.24258308       0.20518485
Pt       2.80721447       1.62074548      24.58417379        2       0.00000000      -0.00555022       0.00197607      -0.05535242
Pt       5.61442782       1.62074544      24.58417375        2       0.00000000       0.00084317      -0.00593661      -0.05535017
Pt       1.40360648       4.05186445      24.58417388        2       0.00000000      -0.02683316       0.00566132      -0.09065787
Pt       4.21082098       4.05186402      24.58417384        2       0.00000000       0.00454471       0.00369563      -0.05544098
Pt       7.01803473       4.05186413      24.58417382        2       0.00000000       0.01858327       0.02033911      -0.09090936
Pt       2.80721282       6.48298339      24.58417358        2       0.00000000       0.21029280       0.12063648       0.20558302
Pt       5.61442787       6.48298335      24.58417389        2       0.00000000      -0.20948534       0.12221778       0.20532444
Pt       8.42164231       6.48298348      24.58417365        2       0.00000000       0.00838559      -0.02588502      -0.09050642
Pt      -0.00000004       0.00012385      27.12253643        1       0.00000000      -0.00001962       0.00005894      -0.02432983
Pt       2.81030987      -0.00457118      26.88481176        1       0.00000000      -0.00175687       0.00319407       0.04713283
Pt       5.61556772      -0.00289232      26.88825954        1       0.00000000      -0.00260513       0.00230271       0.04048946
Pt       1.40053283       2.43155960      26.88814248        1       0.00000000       0.00327540       0.00118699       0.04065286
Pt       4.21081284       2.43112770      26.90235424        1       0.00000000       0.00001069       0.00001876       0.01622792
Pt       7.02043415       2.43607030      26.88467869        1       0.00000000      -0.00178115      -0.00308147       0.04739753
Pt       2.80172778       4.86189474      26.88474877        1       0.00000000       0.00357244       0.00005030       0.04713833
Pt       5.61635784       4.86473906      26.88804441        1       0.00000000      -0.00070599      -0.00334488       0.04071560
Pt       8.42165572       4.86224748      26.91384156        1       0.00000000       0.00001775       0.00004928       0.00461610
C        0.00000075       0.00002993      29.20169831        0       1.00000000      -0.00000168      -0.00027556      -0.00874005
H       -0.52325628      -0.90653923      29.53755590        0       0.00000000      -0.00158818      -0.00264408       0.03837619
H       -0.52335488       0.90624377      29.53839656        0       0.00000000      -0.00128138       0.00232970       0.03793548
H        1.04661247       0.00002669      29.53797602        0       0.00000000       0.00287682       0.00006710       0.03815340
