40
Lattice="8.421641763931781 0.0 0.0 4.2108208819658905 7.293355709136913 0.0 0.0 0.0 46.87624170604845" Properties=species:S:1:pos:R:3:tags:I:1:initial_magmoms:R:1:forces:R:3 charge=0 spin=0 energy=-206.89379431552612 free_energy=-206.89379431552612 stress="0.010169283486902714 -1.5951705734096322e-07 -1.650586867185666e-08 -1.5951705734096322e-07 0.010169207118451595 1.3380154939568456e-07 -1.650586867185666e-08 1.3380154939568456e-07 -0.0007338305003941059" pbc="T T T"
Pt      -0.00000001       0.00000004      19.95723550        4       0.00000000       0.00000075      -0.00000163       0.01279150
Pt       2.80721400      -0.00000009      19.95723557        4       0.00000000      -0.00181279      -0.00506482       0.01678833
Pt       5.61442776      -0.00000012      19.95723555        4       0.00000000       0.00194459      -0.00337316       0.01922722
Pt       1.40360718       2.43111835      19.95723542        4       0.00000000      -0.00390505       0.00001283       0.01917100
Pt       4.21082079       2.43111843      19.95723552        4       0.00000000       0.00000050      -0.00000542       0.02501768
Pt       7.01803481       2.43111844      19.95723550        4       0.00000000       0.00531142       0.00094470       0.01678354
Pt       2.80721421       4.86223734      19.95723529        4       0.00000000      -0.00350103       0.00411797       0.01687211
Pt       5.61442795       4.86223729      19.95723542        4       0.00000000       0.00196014       0.00336090       0.01921924
Pt       8.42164148       4.86223724      19.95723551        4       0.00000000       0.00000336       0.00000421      -0.03743947
Pt       1.40360717       0.81037261      22.29206804        3       0.00000000      -0.00064566      -0.00434317      -0.00343952
Pt       4.21082121       0.81037256      22.29206808        3       0.00000000       0.00391161      -0.01099847      -0.06657052
Pt       7.01803485       0.81037259      22.29206811        3       0.00000000       0.00404166       0.00164087      -0.00348339
Pt       2.80721434       3.24149110      22.29206780        3       0.00000000      -0.01149556       0.00209652      -0.06636019
Pt       5.61442775       3.24149130      22.29206801        3       0.00000000       0.00758608       0.00892426      -0.06640691
Pt       8.42164144       3.24149143      22.29206808        3       0.00000000      -0.00159608       0.07593393      -0.14750081
Pt       4.21082099       5.67261006      22.29206776        3       0.00000000      -0.00339836       0.00266072      -0.00330859
Pt       7.01803485       5.67260985      22.29206778        3       0.00000000       0.06651729      -0.03661230      -0.14750434
Pt       9.82524820       5.67261061      22.29206807        3       0.00000000      -0.06492563      -0.03933168      -0.14749594
Pt      -0.00000053       1.62074559      24.58417356        2       0.00000000      -0.00079162      -0.24258021       0.20519073
Pt       2.80721447       1.62074548      24.58417379        2       0.00000000      -0.00555337       0.00197579      -0.05535268
Pt       5.61442782       1.62074544      24.58417375        2       0.00000000       0.00084585      -0.00593637      -0.05534981
Pt       1.40360648       4.05186445      24.58417388        2       0.00000000      -0.02683390       0.00565956      -0.09065518
Pt       4.21082098       4.05186402      24.58417384        2       0.00000000       0.00454499       0.00369739      -0.05544395
Pt       7.01803473       4.05186413      24.58417382        2       0.00000000       0.01858360       0.02033637      -0.09090635
Pt       2.80721282       6.48298339      24.58417358        2       0.00000000       0.21029313       0.12063693       0.20558311
Pt       5.61442787       6.48298335      24.58417389        2       0.00000000      -0.20948541       0.12221836       0.20532417
Pt       8.42164231       6.48298348      24.58417365        2       0.00000000       0.00838540      -0.02588518      -0.09050703
Pt      -0.00000030       0.00012378      27.12253506        1       0.00000000      -0.00001981       0.00006124      -0.02432938
Pt       2.81030992      -0.00457128      26.88481100        1       0.00000000      -0.00175782       0.00319506       0.04713304
Pt       5.61556769      -0.00289252      26.88825979        1       0.00000000      -0.00260461       0.00230604       0.04048991
Pt       1.40053297       2.43155971      26.88814361        1       0.00000000       0.00327195       0.00118636       0.04064424
Pt       4.21081267       2.43112773      26.90235402        1       0.00000000       0.00001389       0.00001811       0.01623488
Pt       7.02043405       2.43607011      26.88467922        1       0.00000000      -0.00177828      -0.00307992       0.04738809
Pt       2.80172799       4.86189470      26.88474892        1       0.00000000       0.00357178       0.00005021       0.04713866
Pt       5.61635801       4.86473924      26.88804437        1       0.00000000      -0.00070536      -0.00334752       0.04071538
Pt       8.42165590       4.86224789      26.91384182        1       0.00000000       0.00001706       0.00004527       0.00461627
C        0.00000060       0.00003002      29.20169834        0       1.00000000       0.00000442      -0.00028955      -0.00874327
H       -0.52335508       0.90624338      29.53839638        0       0.00000000      -0.00128732       0.00234235       0.03794008
H        1.04661267       0.00002641      29.53797532        0       0.00000000       0.00287682       0.00006846       0.03815306
H       -0.52325630      -0.90653902      29.53755608        0       0.00000000      -0.00158839      -0.00264469       0.03837544
