40
Lattice="8.421641763931781 0.0 0.0 4.2108208819658905 7.293355709136913 0.0 0.0 0.0 46.87624170604845" Properties=species:S:1:pos:R:3:tags:I:1:initial_magmoms:R:1:forces:R:3 charge=0 spin=0 energy=-206.89809538669311 free_energy=-206.89809538669311 stress="0.01036206167191267 -1.3859929026693862e-07 1.2446601971305427e-08 -1.3859929026693862e-07 0.010363479144871235 -4.719064691016683e-06 1.2446601971305427e-08 -4.719064691016683e-06 -0.00033626265940256417" pbc="T T T"
Pt      -0.00000001       0.00000004      19.95723550        4       0.00000000       0.00000248       0.00002286       0.01325189
Pt       2.80721400      -0.00000009      19.95723557        4       0.00000000      -0.00201307      -0.00500836       0.01732720
Pt       5.61442776      -0.00000012      19.95723555        4       0.00000000       0.00202052      -0.00345358       0.01944140
Pt       1.40360718       2.43111835      19.95723542        4       0.00000000      -0.00400029       0.00001484       0.01935762
Pt       4.21082079       2.43111843      19.95723552        4       0.00000000       0.00001475      -0.00000875       0.02545421
Pt       7.01803481       2.43111844      19.95723550        4       0.00000000       0.00533942       0.00078565       0.01729544
Pt       2.80721421       4.86223734      19.95723529        4       0.00000000      -0.00333441       0.00421522       0.01741995
Pt       5.61442795       4.86223729      19.95723542        4       0.00000000       0.00197829       0.00340892       0.01940870
Pt       8.42164148       4.86223724      19.95723551        4       0.00000000       0.00000158      -0.00007579      -0.03686326
Pt       1.40360717       0.81037261      22.29206804        3       0.00000000      -0.00044511      -0.00335876      -0.00321598
Pt       4.21082121       0.81037256      22.29206808        3       0.00000000       0.00422678      -0.01116697      -0.06663351
Pt       7.01803485       0.81037259      22.29206811        3       0.00000000       0.00314587       0.00146761      -0.00319569
Pt       2.80721434       3.24149110      22.29206780        3       0.00000000      -0.01178591       0.00187924      -0.06647184
Pt       5.61442775       3.24149130      22.29206801        3       0.00000000       0.00754682       0.00923580      -0.06649379
Pt       8.42164144       3.24149143      22.29206808        3       0.00000000      -0.00174473       0.07545551      -0.15044062
Pt       4.21082099       5.67261006      22.29206776        3       0.00000000      -0.00270151       0.00194864      -0.00285463
Pt       7.01803485       5.67260985      22.29206778        3       0.00000000       0.06642595      -0.03638999      -0.15064083
Pt       9.82524820       5.67261061      22.29206807        3       0.00000000      -0.06466292      -0.03937034      -0.15057197
Pt      -0.00000053       1.62074559      24.58417356        2       0.00000000      -0.00282260      -0.24464525       0.25057420
Pt       2.80721447       1.62074548      24.58417379        2       0.00000000      -0.01015317      -0.00559211      -0.01562239
Pt       5.61442782       1.62074544      24.58417375        2       0.00000000       0.00994881      -0.00583919      -0.01565491
Pt       1.40360648       4.05186445      24.58417388        2       0.00000000      -0.01159336       0.00337054      -0.04873551
Pt       4.21082098       4.05186402      24.58417384        2       0.00000000       0.00010474       0.01213761      -0.01405038
Pt       7.01803473       4.05186413      24.58417382        2       0.00000000       0.00857505       0.00893740      -0.04883962
Pt       2.80721282       6.48298339      24.58417358        2       0.00000000       0.21173072       0.11894935       0.25116351
Pt       5.61442787       6.48298335      24.58417389        2       0.00000000      -0.20893756       0.12391236       0.25101683
Pt       8.42164231       6.48298348      24.58417365        2       0.00000000       0.00312652      -0.01155728      -0.04798612
Pt      -0.00000712      -0.00208819      27.14290005        1       0.00000000      -0.00002669       0.00400755       0.00569063
Pt       2.80627611      -0.00415057      26.89817355        1       0.00000000       0.00637094      -0.00033080      -0.00235795
Pt       5.61580549      -0.00199642      26.89830308        1       0.00000000      -0.00712113      -0.00239531      -0.00362717
Pt       1.40031570       2.43104651      26.89793976        1       0.00000000       0.00435404       0.00559676      -0.00284963
Pt       4.21082958       2.43130570      26.90565085        1       0.00000000      -0.00006340      -0.00014290      -0.00070498
Pt       7.02293819       2.43252805      26.89782016        1       0.00000000      -0.00567891       0.00384298      -0.00173806
Pt       2.80305253       4.86530222      26.89833067        1       0.00000000      -0.00022035      -0.00701417      -0.00305495
Pt       5.61652222       4.86464180      26.89838065        1       0.00000000       0.00237947      -0.00671069      -0.00418735
Pt       8.42164994       4.86235490      26.91250798        1       0.00000000      -0.00000495      -0.00004557       0.00136395
C       -0.00000397      -0.00079177      29.22671228        0       1.00000000       0.00008534       0.00230617      -0.02308138
H       -0.90543735       0.52365861      29.56523715        0       0.00000000      -0.00032377       0.00061084       0.01094094
H        0.90590068       0.52283716      29.56524323        0       0.00000000       0.00075700       0.00010701       0.01092317
H       -0.00043882      -1.04535160      29.57113740        0       0.00000000      -0.00050143       0.00089262      -0.00075719
