40
Lattice="8.421641763931781 0.0 0.0 4.2108208819658905 7.293355709136913 0.0 0.0 0.0 46.87624170604845" Properties=species:S:1:pos:R:3:tags:I:1:initial_magmoms:R:1:forces:R:3 charge=0 spin=0 energy=-206.89640166110718 free_energy=-206.89640166110718 stress="0.010357785038650036 9.180848081769e-08 1.0275432060780076e-08 9.180848081769e-08 0.010357970371842384 -2.0094260833047883e-07 1.0275432060780076e-08 -2.0094260833047883e-07 -0.0003387241449672729" pbc="T T T"
Pt      -0.00000001       0.00000004      19.95723550        4       0.00000000       0.00000114       0.00000340       0.01324002
Pt       2.80721400      -0.00000009      19.95723557        4       0.00000000      -0.00199697      -0.00478687       0.01739902
Pt       5.61442776      -0.00000012      19.95723555        4       0.00000000       0.00195965      -0.00351591       0.01924795
Pt       1.40360718       2.43111835      19.95723542        4       0.00000000      -0.00403918       0.00008025       0.01918937
Pt       4.21082079       2.43111843      19.95723552        4       0.00000000       0.00000222       0.00000031       0.02534378
Pt       7.01803481       2.43111844      19.95723550        4       0.00000000       0.00515926       0.00065717       0.01738933
Pt       2.80721421       4.86223734      19.95723529        4       0.00000000      -0.00316807       0.00413840       0.01748469
Pt       5.61442795       4.86223729      19.95723542        4       0.00000000       0.00207800       0.00344320       0.01923599
Pt       8.42164148       4.86223724      19.95723551        4       0.00000000       0.00000293      -0.00000950      -0.03680015
Pt       1.40360717       0.81037261      22.29206804        3       0.00000000      -0.00051056      -0.00279726      -0.00272890
Pt       4.21082121       0.81037256      22.29206808        3       0.00000000       0.00453674      -0.01114734      -0.06708182
Pt       7.01803485       0.81037259      22.29206811        3       0.00000000       0.00265725       0.00101805      -0.00274998
Pt       2.80721434       3.24149110      22.29206780        3       0.00000000      -0.01194246       0.00164177      -0.06686592
Pt       5.61442775       3.24149130      22.29206801        3       0.00000000       0.00741004       0.00954543      -0.06688544
Pt       8.42164144       3.24149143      22.29206808        3       0.00000000      -0.00188000       0.07582866      -0.15043733
Pt       4.21082099       5.67261006      22.29206776        3       0.00000000      -0.00215156       0.00180117      -0.00251257
Pt       7.01803485       5.67260985      22.29206778        3       0.00000000       0.06660789      -0.03630595      -0.15046813
Pt       9.82524820       5.67261061      22.29206807        3       0.00000000      -0.06471905      -0.03953389      -0.15046285
Pt      -0.00000053       1.62074559      24.58417356        2       0.00000000      -0.00457612      -0.24401323       0.25212008
Pt       2.80721447       1.62074548      24.58417379        2       0.00000000      -0.00774589      -0.00833852      -0.01743241
Pt       5.61442782       1.62074544      24.58417375        2       0.00000000       0.01090605      -0.00260798      -0.01746768
Pt       1.40360648       4.05186445      24.58417388        2       0.00000000      -0.00894036       0.00662272      -0.04886978
Pt       4.21082098       4.05186402      24.58417384        2       0.00000000      -0.00323106       0.01074909      -0.01742597
Pt       7.01803473       4.05186413      24.58417382        2       0.00000000       0.01040795       0.00432446      -0.04897868
Pt       2.80721282       6.48298339      24.58417358        2       0.00000000       0.21334982       0.11794210       0.25228381
Pt       5.61442787       6.48298335      24.58417389        2       0.00000000      -0.20870693       0.12596159       0.25219259
Pt       8.42164231       6.48298348      24.58417365        2       0.00000000      -0.00147236      -0.01096418      -0.04878670
Pt       0.00000207      -0.00016841      27.14295836        1       0.00000000       0.00000049       0.00018880       0.00647763
Pt       2.80490375      -0.00437711      26.89929861        1       0.00000000       0.00534739       0.00134314      -0.00272079
Pt       5.61405502      -0.00221900      26.89680858        1       0.00000000      -0.00526296      -0.00070768      -0.00272467
Pt       1.40187829       2.43247925      26.89676266        1       0.00000000       0.00206082       0.00478713      -0.00292433
Pt       4.21081862       2.43108964      26.90577346        1       0.00000000      -0.00001740      -0.00003909       0.00101622
Pt       7.02296791       2.43123064      26.89919331        1       0.00000000      -0.00382630       0.00393882      -0.00256337
Pt       2.80458221       4.86638808      26.89923236        1       0.00000000      -0.00150753      -0.00538587      -0.00275724
Pt       5.61653813       4.86298813      26.89673886        1       0.00000000       0.00320182      -0.00417258      -0.00299285
Pt       8.42164261       4.86220455      26.91168112        1       0.00000000       0.00001199      -0.00002022       0.00235905
C        0.00000125       0.00006899      29.22682905        0       1.00000000       0.00000191      -0.00022070      -0.01421858
H        0.52212483      -0.90529763      29.56895100        0       0.00000000       0.00290426      -0.00478308       0.00376167
H       -1.04526950       0.00062315      29.56851864        0       0.00000000      -0.00565005       0.00033578       0.00396653
H        0.52314692       0.90516359      29.56809630        0       0.00000000       0.00273718       0.00499842       0.00414823
