40
Lattice="8.421641763931781 0.0 0.0 4.2108208819658905 7.293355709136913 0.0 0.0 0.0 46.87624170604845" Properties=species:S:1:pos:R:3:tags:I:1:initial_magmoms:R:1:forces:R:3 charge=0 spin=0 energy=-206.8979485208484 free_energy=-206.8979485208484 stress="0.010363579727709293 -4.5301039364176177e-08 -6.880590319724433e-09 -4.5301039364176177e-08 0.010363387875258923 4.615763828041963e-06 -6.880590319724433e-09 4.615763828041963e-06 -0.0003367966855876148" pbc="T T T"
Pt      -0.00000001       0.00000004      19.95723550        4       0.00000000      -0.00000157      -0.00002437       0.01319220
Pt       2.80721400      -0.00000009      19.95723557        4       0.00000000      -0.00194894      -0.00474589       0.01724694
Pt       5.61442776      -0.00000012      19.95723555        4       0.00000000       0.00197945      -0.00329963       0.01934551
Pt       1.40360718       2.43111835      19.95723542        4       0.00000000      -0.00387310      -0.00007181       0.01932300
Pt       4.21082079       2.43111843      19.95723552        4       0.00000000      -0.00001087      -0.00000017       0.02529656
Pt       7.01803481       2.43111844      19.95723550        4       0.00000000       0.00511813       0.00063084       0.01726692
Pt       2.80721421       4.86223734      19.95723529        4       0.00000000      -0.00317871       0.00412132       0.01732676
Pt       5.61442795       4.86223729      19.95723542        4       0.00000000       0.00190380       0.00340266       0.01936097
Pt       8.42164148       4.86223724      19.95723551        4       0.00000000       0.00000586       0.00008037      -0.03673764
Pt       1.40360717       0.81037261      22.29206804        3       0.00000000      -0.00029546      -0.00348177      -0.00252519
Pt       4.21082121       0.81037256      22.29206808        3       0.00000000       0.00441068      -0.01135733      -0.06727257
Pt       7.01803485       0.81037259      22.29206811        3       0.00000000       0.00307868       0.00139573      -0.00258007
Pt       2.80721434       3.24149110      22.29206780        3       0.00000000      -0.01208714       0.00185998      -0.06698386
Pt       5.61442775       3.24149130      22.29206801        3       0.00000000       0.00767616       0.00958662      -0.06701203
Pt       8.42164144       3.24149143      22.29206808        3       0.00000000      -0.00178973       0.07603431      -0.15051250
Pt       4.21082099       5.67261006      22.29206776        3       0.00000000      -0.00278523       0.00197756      -0.00251977
Pt       7.01803485       5.67260985      22.29206778        3       0.00000000       0.06648637      -0.03632391      -0.15031192
Pt       9.82524820       5.67261061      22.29206807        3       0.00000000      -0.06470053      -0.03941363      -0.15036033
Pt      -0.00000053       1.62074559      24.58417356        2       0.00000000      -0.00252099      -0.24244767       0.25301933
Pt       2.80721447       1.62074548      24.58417379        2       0.00000000      -0.00799474      -0.00437318      -0.01731322
Pt       5.61442782       1.62074544      24.58417375        2       0.00000000       0.00756465      -0.00482235      -0.01726316
Pt       1.40360648       4.05186445      24.58417388        2       0.00000000      -0.01030605       0.00251684      -0.04734580
Pt       4.21082098       4.05186402      24.58417384        2       0.00000000       0.00039676       0.00843135      -0.01898136
Pt       7.01803473       4.05186413      24.58417382        2       0.00000000       0.00790995       0.00687555      -0.04754615
Pt       2.80721282       6.48298339      24.58417358        2       0.00000000       0.21241002       0.11994778       0.25273693
Pt       5.61442787       6.48298335      24.58417389        2       0.00000000      -0.20983227       0.12441978       0.25256079
Pt       8.42164231       6.48298348      24.58417365        2       0.00000000       0.00238554      -0.01021200      -0.04822858
Pt       0.00000399       0.00207696      27.14278638        1       0.00000000       0.00001321      -0.00396047       0.00600219
Pt       2.80634201      -0.00482918      26.89809477        1       0.00000000       0.00625123       0.00442922      -0.00215186
Pt       5.61547737      -0.00267525      26.89826328        1       0.00000000      -0.00693522       0.00243627      -0.00315847
Pt       1.40157395       2.43137010      26.89856105        1       0.00000000       0.00281379       0.00646343      -0.00428534
Pt       4.21081084       2.43097968      26.90645233        1       0.00000000       0.00004119       0.00001984      -0.00081488
Pt       7.02184823       2.43258692      26.89837171        1       0.00000000      -0.00425820       0.00490061      -0.00337893
Pt       2.80451194       4.86529798      26.89788144        1       0.00000000      -0.00254922      -0.00581232      -0.00206045
Pt       5.61519069       4.86436341      26.89798909        1       0.00000000       0.00459906      -0.00540070      -0.00295275
Pt       8.42164203       4.86210400      26.91182608        1       0.00000000       0.00003717       0.00013298       0.00178558
C        0.00000406       0.00076998      29.22676602        0       1.00000000      -0.00004454      -0.00221975      -0.02368325
H        0.00008017       1.04531657      29.57117181        0       0.00000000       0.00033214      -0.00089075      -0.00059457
H        0.90561152      -0.52333933      29.56529892        0       0.00000000       0.00035104      -0.00050679       0.01105410
H       -0.90570870      -0.52314495      29.56530526        0       0.00000000      -0.00065249      -0.00029849       0.01105673
