40
Lattice="8.421641763931781 0.0 0.0 4.2108208819658905 7.293355709136913 0.0 0.0 0.0 46.87624170604845" Properties=species:S:1:pos:R:3:tags:I:1:initial_magmoms:R:1:forces:R:3 charge=0 spin=0 energy=-206.89611365146362 free_energy=-206.89611365146362 stress="0.010364186018705368 1.2391507198117324e-07 1.2784913572261303e-08 1.2391507198117324e-07 0.010364347137510777 -4.1861167687784473e-07 1.2784913572261303e-08 -4.1861167687784473e-07 -0.0003273701586294919" pbc="T T T"
Pt      -0.00000001       0.00000004      19.95723550        4       0.00000000       0.00000153       0.00000217       0.01359229
Pt       2.80721400      -0.00000009      19.95723557        4       0.00000000      -0.00179118      -0.00489156       0.01722703
Pt       5.61442776      -0.00000012      19.95723555        4       0.00000000       0.00184429      -0.00364291       0.01908621
Pt       1.40360718       2.43111835      19.95723542        4       0.00000000      -0.00409107       0.00024168       0.01902859
Pt       4.21082079       2.43111843      19.95723552        4       0.00000000       0.00000190      -0.00000031       0.02544189
Pt       7.01803481       2.43111844      19.95723550        4       0.00000000       0.00514598       0.00088465       0.01721865
Pt       2.80721421       4.86223734      19.95723529        4       0.00000000      -0.00335955       0.00401196       0.01731159
Pt       5.61442795       4.86223729      19.95723542        4       0.00000000       0.00224383       0.00340690       0.01907361
Pt       8.42164148       4.86223724      19.95723551        4       0.00000000       0.00000341      -0.00000728      -0.03645279
Pt       1.40360717       0.81037261      22.29206804        3       0.00000000      -0.00058777      -0.00292903      -0.00398530
Pt       4.21082121       0.81037256      22.29206808        3       0.00000000       0.00450393      -0.01092752      -0.06746411
Pt       7.01803485       0.81037259      22.29206811        3       0.00000000       0.00280590       0.00101363      -0.00399427
Pt       2.80721434       3.24149110      22.29206780        3       0.00000000      -0.01173741       0.00155224      -0.06724530
Pt       5.61442775       3.24149130      22.29206801        3       0.00000000       0.00723088       0.00940562      -0.06726420
Pt       8.42164144       3.24149143      22.29206808        3       0.00000000      -0.00189959       0.07547470      -0.14932334
Pt       4.21082099       5.67261006      22.29206776        3       0.00000000      -0.00222234       0.00193399      -0.00376854
Pt       7.01803485       5.67260985      22.29206778        3       0.00000000       0.06630688      -0.03611323      -0.14934945
Pt       9.82524820       5.67261061      22.29206807        3       0.00000000      -0.06440099      -0.03937360      -0.14934041
Pt      -0.00000053       1.62074559      24.58417356        2       0.00000000      -0.00533782      -0.24700260       0.25662524
Pt       2.80721447       1.62074548      24.58417379        2       0.00000000      -0.00422464      -0.00634839      -0.01665290
Pt       5.61442782       1.62074544      24.58417375        2       0.00000000       0.00745688      -0.00052089      -0.01666500
Pt       1.40360648       4.05186445      24.58417388        2       0.00000000      -0.01652483       0.01168308      -0.05049007
Pt       4.21082098       4.05186402      24.58417384        2       0.00000000      -0.00328205       0.00674124      -0.01663010
Pt       7.01803473       4.05186413      24.58417382        2       0.00000000       0.01857091       0.00837190      -0.05059124
Pt       2.80721282       6.48298339      24.58417358        2       0.00000000       0.21633203       0.11879200       0.25673905
Pt       5.61442787       6.48298335      24.58417389        2       0.00000000      -0.21094400       0.12811077       0.25664118
Pt       8.42164231       6.48298348      24.58417365        2       0.00000000      -0.00203539      -0.02004592      -0.05043959
Pt       0.00000048      -0.00013500      27.14583762        1       0.00000000       0.00000144       0.00006379      -0.01020522
Pt       2.80842580      -0.00360229      26.89736546        1       0.00000000      -0.01634814      -0.00214792       0.00531417
Pt       5.61097852      -0.00253757      26.89420286        1       0.00000000       0.01543749      -0.00126889       0.00725822
Pt       1.40313016       2.43532948      26.89416270        1       0.00000000      -0.00873423      -0.01280972       0.00723118
Pt       4.21082093       2.43110332      26.91232560        1       0.00000000      -0.00001728      -0.00004348      -0.01693768
Pt       7.02054628       2.43392632      26.89729332        1       0.00000000       0.00995758      -0.01320854       0.00499924
Pt       2.80348420       4.86296118      26.89732501        1       0.00000000       0.00639696       0.01524977       0.00504886
Pt       5.61836457       4.86049828      26.89414525        1       0.00000000      -0.00671590       0.01399126       0.00732864
Pt       8.42164434       4.86222200      26.92030291        1       0.00000000       0.00001409      -0.00003269      -0.02096631
C       -0.00000131       0.00001788      29.22939344        0       1.00000000       0.00003511       0.00004796      -0.02154547
H        0.52234532       0.90535295      29.57072708        0       0.00000000       0.00567144       0.00993683       0.00484220
H        0.52274158      -0.90479383      29.57151519        0       0.00000000       0.00580313      -0.00993387       0.00458001
H       -1.04508993      -0.00024199      29.57111898        0       0.00000000      -0.01151161       0.00033220       0.00472335
