40
Lattice="8.421641763931781 0.0 0.0 4.2108208819658905 7.293355709136913 0.0 0.0 0.0 46.87624170604845" Properties=species:S:1:pos:R:3:tags:I:1:initial_magmoms:R:1:forces:R:3 charge=0 spin=0 energy=-206.89771773166382 free_energy=-206.89771773166382 stress="0.01036454364657402 1.7059477386283106e-08 -1.1032142310796189e-08 1.7059477386283106e-08 0.0103646544739604 2.2100741148278757e-07 -1.1032142310796189e-08 2.2100741148278757e-07 -0.00032580160768702626" pbc="T T T"
Pt      -0.00000001       0.00000004      19.95723550        4       0.00000000       0.00000100       0.00000036       0.01352961
Pt       2.80721400      -0.00000009      19.95723557        4       0.00000000      -0.00176783      -0.00484170       0.01707828
Pt       5.61442776      -0.00000012      19.95723555        4       0.00000000       0.00187096      -0.00343980       0.01921288
Pt       1.40360718       2.43111835      19.95723542        4       0.00000000      -0.00392943       0.00011917       0.01915705
Pt       4.21082079       2.43111843      19.95723552        4       0.00000000       0.00000090      -0.00000033       0.02539444
Pt       7.01803481       2.43111844      19.95723550        4       0.00000000       0.00509469       0.00088073       0.01707012
Pt       2.80721421       4.86223734      19.95723529        4       0.00000000      -0.00333096       0.00396875       0.01716282
Pt       5.61442795       4.86223729      19.95723542        4       0.00000000       0.00205699       0.00333049       0.01920251
Pt       8.42164148       4.86223724      19.95723551        4       0.00000000       0.00000240      -0.00000739      -0.03641188
Pt       1.40360717       0.81037261      22.29206804        3       0.00000000      -0.00047370      -0.00356894      -0.00393990
Pt       4.21082121       0.81037256      22.29206808        3       0.00000000       0.00439209      -0.01119652      -0.06744969
Pt       7.01803485       0.81037259      22.29206811        3       0.00000000       0.00330084       0.00142422      -0.00395538
Pt       2.80721434       3.24149110      22.29206780        3       0.00000000      -0.01191103       0.00178369      -0.06723043
Pt       5.61442775       3.24149130      22.29206801        3       0.00000000       0.00752036       0.00944590      -0.06725357
Pt       8.42164144       3.24149143      22.29206808        3       0.00000000      -0.00181672       0.07551236      -0.14930095
Pt       4.21082099       5.67261006      22.29206776        3       0.00000000      -0.00282867       0.00215895      -0.00372862
Pt       7.01803485       5.67260985      22.29206778        3       0.00000000       0.06628424      -0.03619614      -0.14932598
Pt       9.82524820       5.67261061      22.29206807        3       0.00000000      -0.06446406      -0.03931122      -0.14931996
Pt      -0.00000053       1.62074559      24.58417356        2       0.00000000      -0.00309293      -0.24661827       0.25709975
Pt       2.80721447       1.62074548      24.58417379        2       0.00000000      -0.00411990      -0.00201730      -0.01768834
Pt       5.61442782       1.62074544      24.58417375        2       0.00000000       0.00363173      -0.00261875      -0.01770157
Pt       1.40360648       4.05186445      24.58417388        2       0.00000000      -0.01753123       0.00771836      -0.04998789
Pt       4.21082098       4.05186402      24.58417384        2       0.00000000       0.00042006       0.00447940      -0.01764040
Pt       7.01803473       4.05186413      24.58417382        2       0.00000000       0.01566757       0.01121023      -0.05012646
Pt       2.80721282       6.48298339      24.58417358        2       0.00000000       0.21498819       0.12057438       0.25748554
Pt       5.61442787       6.48298335      24.58417389        2       0.00000000      -0.21185854       0.12601499       0.25736538
Pt       8.42164231       6.48298348      24.58417365        2       0.00000000       0.00189133      -0.01895886      -0.04997881
Pt       0.00000031       0.00003763      27.14560345        1       0.00000000      -0.00000149      -0.00009860      -0.00961694
Pt       2.80971827      -0.00333203      26.89599611        1       0.00000000      -0.01562255      -0.00264857       0.00641086
Pt       5.61218400      -0.00219269      26.89569811        1       0.00000000       0.01470744      -0.00188676       0.00688912
Pt       1.40284807       2.43408695      26.89565077        1       0.00000000      -0.00886725      -0.01174537       0.00671389
Pt       4.21082044       2.43108578      26.91321657        1       0.00000000      -0.00001807       0.00003149      -0.01894815
Pt       7.01964204       2.43488124      26.89592877        1       0.00000000       0.00996533      -0.01216325       0.00616220
Pt       2.80310239       4.86168148      26.89597153        1       0.00000000       0.00569060       0.01507205       0.00611612
Pt       5.61743724       4.86133914      26.89562960        1       0.00000000      -0.00587195       0.01390863       0.00655806
Pt       8.42164540       4.86220550      26.91986570        1       0.00000000       0.00001661       0.00004843      -0.01997758
C       -0.00000356       0.00035384      29.22906322        0       1.00000000      -0.00006485      -0.00021952      -0.02303876
H       -0.00031664       1.04542324      29.57070095        0       0.00000000       0.00023518       0.01275584       0.00447866
H        0.90519401      -0.52187964      29.57077552        0       0.00000000       0.01102441      -0.00665201       0.00477908
H       -0.90489385      -0.52241657      29.57077372        0       0.00000000      -0.01119179      -0.00624926       0.00475486
