40
Lattice="8.421641763931781 0.0 0.0 4.2108208819658905 7.293355709136913 0.0 0.0 0.0 46.87624170604845" Properties=species:S:1:pos:R:3:tags:I:1:initial_magmoms:R:1:forces:R:3 charge=0 spin=0 energy=-206.89616705722534 free_energy=-206.89616705722534 stress="0.010375085286796093 2.017266922393901e-07 1.2796880888288342e-08 2.017266922393901e-07 0.01037522591650486 -4.672201043831592e-07 1.2796880888288342e-08 -4.672201043831592e-07 -0.00028511855634860694" pbc="T T T"
Pt      -0.00000001       0.00000004      19.95723550        4       0.00000000       0.00000140       0.00000227       0.01344818
Pt       2.80721400      -0.00000009      19.95723557        4       0.00000000      -0.00174233      -0.00490757       0.01744698
Pt       5.61442776      -0.00000012      19.95723555        4       0.00000000       0.00181241      -0.00372699       0.01930207
Pt       1.40360718       2.43111835      19.95723542        4       0.00000000      -0.00414754       0.00031104       0.01924219
Pt       4.21082079       2.43111843      19.95723552        4       0.00000000       0.00000286      -0.00000032       0.02532283
Pt       7.01803481       2.43111844      19.95723550        4       0.00000000       0.00513470       0.00093563       0.01743729
Pt       2.80721421       4.86223734      19.95723529        4       0.00000000      -0.00339693       0.00397836       0.01753051
Pt       5.61442795       4.86223729      19.95723542        4       0.00000000       0.00233285       0.00342168       0.01928693
Pt       8.42164148       4.86223724      19.95723551        4       0.00000000       0.00000336      -0.00000953      -0.03656584
Pt       1.40360717       0.81037261      22.29206804        3       0.00000000      -0.00070551      -0.00287896      -0.00423136
Pt       4.21082121       0.81037256      22.29206808        3       0.00000000       0.00444533      -0.01066949      -0.06767010
Pt       7.01803485       0.81037259      22.29206811        3       0.00000000       0.00282441       0.00088976      -0.00423892
Pt       2.80721434       3.24149110      22.29206780        3       0.00000000      -0.01148813       0.00147638      -0.06745820
Pt       5.61442775       3.24149130      22.29206801        3       0.00000000       0.00703790       0.00922930      -0.06747393
Pt       8.42164144       3.24149143      22.29206808        3       0.00000000      -0.00187997       0.07525914      -0.14862213
Pt       4.21082099       5.67261006      22.29206776        3       0.00000000      -0.00212490       0.00201144      -0.00401398
Pt       7.01803485       5.67260985      22.29206778        3       0.00000000       0.06611424      -0.03602532      -0.14865449
Pt       9.82524820       5.67261061      22.29206807        3       0.00000000      -0.06422828      -0.03925030      -0.14864802
Pt      -0.00000053       1.62074559      24.58417356        2       0.00000000      -0.00460747      -0.24079281       0.25753012
Pt       2.80721447       1.62074548      24.58417379        2       0.00000000      -0.00708928      -0.00739106      -0.01159532
Pt       5.61442782       1.62074544      24.58417375        2       0.00000000       0.00977070      -0.00252536      -0.01161903
Pt       1.40360648       4.05186445      24.58417388        2       0.00000000      -0.01434477       0.00985153      -0.04712391
Pt       4.21082098       4.05186402      24.58417384        2       0.00000000      -0.00271714       0.00973406      -0.01159244
Pt       7.01803473       4.05186413      24.58417382        2       0.00000000       0.01588451       0.00740808      -0.04722897
Pt       2.80721282       6.48298339      24.58417358        2       0.00000000       0.21056002       0.11631747       0.25768861
Pt       5.61442787       6.48298335      24.58417389        2       0.00000000      -0.20590125       0.12436639       0.25759530
Pt       8.42164231       6.48298348      24.58417365        2       0.00000000      -0.00152953      -0.01722790      -0.04700614
Pt       0.00000309      -0.00017497      27.13938076        1       0.00000000      -0.00001516       0.00022044       0.03363464
Pt       2.80832393      -0.00429276      26.89958990        1       0.00000000      -0.01477545       0.00190071      -0.00382592
Pt       5.61041737      -0.00295677      26.89735508        1       0.00000000       0.01552549       0.00199163      -0.00512697
Pt       1.40304492       2.43601816      26.89729021        1       0.00000000      -0.00593478      -0.01456351      -0.00506721
Pt       4.21082449       2.43110703      26.90997738        1       0.00000000      -0.00003524      -0.00009967      -0.01055057
Pt       7.02119204       2.43417979      26.89948723        1       0.00000000       0.00573367      -0.01393781      -0.00401456
Pt       2.80293843       4.86338318      26.89952285        1       0.00000000       0.00905782       0.01189905      -0.00402628
Pt       5.61901497       4.86021555      26.89728184        1       0.00000000      -0.00962434       0.01245025      -0.00498168
Pt       8.42163823       4.86221218      26.91836342        1       0.00000000       0.00004477       0.00000622      -0.01414063
C       -0.00000027       0.00004798      29.22573402        0       1.00000000      -0.00003258      -0.00011120      -0.02851737
H       -1.04518047      -0.00055612      29.56792198        0       0.00000000      -0.00454384       0.00063423      -0.00050256
H        0.52214593       0.90561884      29.56748904        0       0.00000000       0.00200482       0.00386549      -0.00031086
H        0.52303109      -0.90468322      29.56835643        0       0.00000000       0.00257274      -0.00404279      -0.00065816
