40
Lattice="8.421641763931781 0.0 0.0 4.2108208819658905 7.293355709136913 0.0 0.0 0.0 46.87624170604845" Properties=species:S:1:pos:R:3:tags:I:1:initial_magmoms:R:1:forces:R:3 charge=0 spin=0 energy=-206.89771582431518 free_energy=-206.89771582431518 stress="0.010364544577896595 7.3508874542937974e-09 -8.43244529757925e-10 7.3508874542937974e-09 0.010364660993218422 2.198990358692754e-07 -8.43244529757925e-10 2.198990358692754e-07 -0.0003258032666053623" pbc="T T T"
Pt      -0.00000001       0.00000004      19.95723550        4       0.00000000       0.00000100       0.00000045       0.01352961
Pt       2.80721400      -0.00000009      19.95723557        4       0.00000000      -0.00176779      -0.00484145       0.01707833
Pt       5.61442776      -0.00000012      19.95723555        4       0.00000000       0.00187093      -0.00343972       0.01921290
Pt       1.40360718       2.43111835      19.95723542        4       0.00000000      -0.00392948       0.00011914       0.01915711
Pt       4.21082079       2.43111843      19.95723552        4       0.00000000       0.00000092      -0.00000045       0.02539435
Pt       7.01803481       2.43111844      19.95723550        4       0.00000000       0.00509464       0.00088075       0.01707012
Pt       2.80721421       4.86223734      19.95723529        4       0.00000000      -0.00333090       0.00396889       0.01716304
Pt       5.61442795       4.86223729      19.95723542        4       0.00000000       0.00205695       0.00333030       0.01920241
Pt       8.42164148       4.86223724      19.95723551        4       0.00000000       0.00000238      -0.00000731      -0.03641205
Pt       1.40360717       0.81037261      22.29206804        3       0.00000000      -0.00047377      -0.00356929      -0.00393988
Pt       4.21082121       0.81037256      22.29206808        3       0.00000000       0.00439212      -0.01119671      -0.06744948
Pt       7.01803485       0.81037259      22.29206811        3       0.00000000       0.00330105       0.00142403      -0.00395556
Pt       2.80721434       3.24149110      22.29206780        3       0.00000000      -0.01191099       0.00178381      -0.06723017
Pt       5.61442775       3.24149130      22.29206801        3       0.00000000       0.00752037       0.00944595      -0.06725306
Pt       8.42164144       3.24149143      22.29206808        3       0.00000000      -0.00181627       0.07551201      -0.14930135
Pt       4.21082099       5.67261006      22.29206776        3       0.00000000      -0.00282870       0.00215864      -0.00372829
Pt       7.01803485       5.67260985      22.29206778        3       0.00000000       0.06628422      -0.03619609      -0.14932600
Pt       9.82524820       5.67261061      22.29206807        3       0.00000000      -0.06446368      -0.03931106      -0.14932010
Pt      -0.00000053       1.62074559      24.58417356        2       0.00000000      -0.00309285      -0.24661790       0.25709975
Pt       2.80721447       1.62074548      24.58417379        2       0.00000000      -0.00411899      -0.00201672      -0.01768612
Pt       5.61442782       1.62074544      24.58417375        2       0.00000000       0.00363012      -0.00261799      -0.01769916
Pt       1.40360648       4.05186445      24.58417388        2       0.00000000      -0.01753000       0.00771759      -0.04998990
Pt       4.21082098       4.05186402      24.58417384        2       0.00000000       0.00041977       0.00447773      -0.01763935
Pt       7.01803473       4.05186413      24.58417382        2       0.00000000       0.01566629       0.01120959      -0.05012771
Pt       2.80721282       6.48298339      24.58417358        2       0.00000000       0.21498817       0.12057445       0.25748533
Pt       5.61442787       6.48298335      24.58417389        2       0.00000000      -0.21185856       0.12601513       0.25736538
Pt       8.42164231       6.48298348      24.58417365        2       0.00000000       0.00189114      -0.01895707      -0.04998116
Pt       0.00000030       0.00003792      27.14560345        1       0.00000000      -0.00000174      -0.00009949      -0.00961872
Pt       2.80971825      -0.00333199      26.89599649        1       0.00000000      -0.01562277      -0.00264742       0.00641105
Pt       5.61218376      -0.00219263      26.89569802        1       0.00000000       0.01470747      -0.00188508       0.00688904
Pt       1.40284831       2.43408710      26.89565114        1       0.00000000      -0.00886652      -0.01174590       0.00671396
Pt       4.21082050       2.43108592      26.91321662        1       0.00000000      -0.00001790       0.00003141      -0.01895480
Pt       7.01964200       2.43488155      26.89592898        1       0.00000000       0.00996417      -0.01216472       0.00616198
Pt       2.80310222       4.86168135      26.89597182        1       0.00000000       0.00569139       0.01507193       0.00611601
Pt       5.61743712       4.86133918      26.89562928        1       0.00000000      -0.00587153       0.01390893       0.00655834
Pt       8.42164524       4.86220553      26.91986547        1       0.00000000       0.00001604       0.00004877      -0.01997159
C       -0.00000407       0.00035366      29.22906302        0       1.00000000       0.00001489      -0.00021628      -0.02304326
H       -0.90489367      -0.52241649      29.57077302        0       0.00000000      -0.01122568      -0.00626506       0.00477369
H       -0.00031644       1.04542326      29.57070122        0       0.00000000       0.00022782       0.01275054       0.00447868
H        0.90519432      -0.52187993      29.57077516        0       0.00000000       0.01098612      -0.00663425       0.00476663
