40
Lattice="8.421641763931781 0.0 0.0 4.2108208819658905 7.293355709136913 0.0 0.0 0.0 46.87624170604845" Properties=species:S:1:pos:R:3:tags:I:1:initial_magmoms:R:1:forces:R:3 charge=0 spin=0 energy=-206.89634253329956 free_energy=-206.89634253329956 stress="0.01037505455315113 1.5697696653660387e-07 -1.0415359241733313e-08 1.5697696653660387e-07 0.010374920442700386 1.277202414939893e-07 -1.0415359241733313e-08 1.277202414939893e-07 -0.00028540738276205957" pbc="T T T"
Pt      -0.00000001       0.00000004      19.95723550        4       0.00000000       0.00000134      -0.00000350       0.01343245
Pt       2.80721400      -0.00000009      19.95723557        4       0.00000000      -0.00170561      -0.00512613       0.01724965
Pt       5.61442776      -0.00000012      19.95723555        4       0.00000000       0.00187927      -0.00345277       0.01955325
Pt       1.40360718       2.43111835      19.95723542        4       0.00000000      -0.00394185       0.00010817       0.01950222
Pt       4.21082079       2.43111843      19.95723552        4       0.00000000       0.00000028      -0.00000419       0.02537391
Pt       7.01803481       2.43111844      19.95723550        4       0.00000000       0.00530744       0.00106588       0.01724484
Pt       2.80721421       4.86223734      19.95723529        4       0.00000000      -0.00360374       0.00405330       0.01733409
Pt       5.61442795       4.86223729      19.95723542        4       0.00000000       0.00206164       0.00334220       0.01954651
Pt       8.42164148       4.86223724      19.95723551        4       0.00000000       0.00000341       0.00000799      -0.03671148
Pt       1.40360717       0.81037261      22.29206804        3       0.00000000      -0.00031701      -0.00410309      -0.00433353
Pt       4.21082121       0.81037256      22.29206808        3       0.00000000       0.00402477      -0.01100191      -0.06739615
Pt       7.01803485       0.81037259      22.29206811        3       0.00000000       0.00366827       0.00179870      -0.00436396
Pt       2.80721434       3.24149110      22.29206780        3       0.00000000      -0.01155258       0.00198764      -0.06716324
Pt       5.61442775       3.24149130      22.29206801        3       0.00000000       0.00752888       0.00901194      -0.06719321
Pt       8.42164144       3.24149143      22.29206808        3       0.00000000      -0.00161604       0.07512983      -0.14874086
Pt       4.21082099       5.67261006      22.29206776        3       0.00000000      -0.00335287       0.00225723      -0.00417779
Pt       7.01803485       5.67260985      22.29206778        3       0.00000000       0.06583080      -0.03618194      -0.14872639
Pt       9.82524820       5.67261061      22.29206807        3       0.00000000      -0.06421228      -0.03894905      -0.14872639
Pt      -0.00000053       1.62074559      24.58417356        2       0.00000000      -0.00166254      -0.24032447       0.25727376
Pt       2.80721447       1.62074548      24.58417379        2       0.00000000      -0.01023374      -0.00211825      -0.01094369
Pt       5.61442782       1.62074544      24.58417375        2       0.00000000       0.00681073      -0.00780234      -0.01097631
Pt       1.40360648       4.05186445      24.58417388        2       0.00000000      -0.01816858       0.00310895      -0.04768854
Pt       4.21082098       4.05186402      24.58417384        2       0.00000000       0.00333733       0.00982627      -0.01109617
Pt       7.01803473       4.05186413      24.58417382        2       0.00000000       0.01199711       0.01407592      -0.04786205
Pt       2.80721282       6.48298339      24.58417358        2       0.00000000       0.20884505       0.11880942       0.25741863
Pt       5.61442787       6.48298335      24.58417389        2       0.00000000      -0.20715711       0.12179836       0.25727290
Pt       8.42164231       6.48298348      24.58417365        2       0.00000000       0.00621623      -0.01711677      -0.04761290
Pt       0.00000001       0.00019139      27.13942004        1       0.00000000      -0.00000822      -0.00021050       0.03358677
Pt       2.81150484      -0.00450954      26.89765441        1       0.00000000      -0.01623631       0.00285509      -0.00525228
Pt       5.61362265      -0.00327887      26.89933803        1       0.00000000       0.01408456       0.00314367      -0.00353337
Pt       1.40116761       2.43349075      26.89929133        1       0.00000000      -0.00439541      -0.01381065      -0.00371133
Pt       4.21082374       2.43114594      26.90936916        1       0.00000000      -0.00004491      -0.00002027      -0.01074039
Pt       7.01977516       2.43712814      26.89757954        1       0.00000000       0.00582691      -0.01553517      -0.00528287
Pt       2.80119251       4.86083713      26.89758523        1       0.00000000       0.01042631       0.01282360      -0.00526669
Pt       5.61766010       4.86325038      26.89919516        1       0.00000000      -0.00970500       0.01082656      -0.00370387
Pt       8.42164016       4.86225586      26.91873714        1       0.00000000       0.00006085       0.00008920      -0.01367939
C        0.00000104      -0.00005580      29.22571121        0       1.00000000      -0.00003647       0.00014427      -0.02853020
H        1.04518754       0.00019025      29.56788492        0       0.00000000       0.00459322      -0.00060419      -0.00044803
H       -0.52246139      -0.90546301      29.56743137        0       0.00000000      -0.00192238      -0.00389828      -0.00024754
H       -0.52272343       0.90485141      29.56834329        0       0.00000000      -0.00263179       0.00399924      -0.00068028
