40
Lattice="8.421641763931781 0.0 0.0 4.2108208819658905 7.293355709136913 0.0 0.0 0.0 46.87624170604845" Properties=species:S:1:pos:R:3:tags:I:1:initial_magmoms:R:1:forces:R:3 charge=0 spin=0 energy=-206.8961708719226 free_energy=-206.8961708719226 stress="0.010375071316957474 2.028166647960461e-07 1.7025991283503572e-08 2.028166647960461e-07 0.01037522777915001 -4.674409979088523e-07 1.7025991283503572e-08 -4.674409979088523e-07 -0.00028512749122455716" pbc="T T T"
Pt      -0.00000001       0.00000004      19.95723550        4       0.00000000       0.00000152       0.00000223       0.01344831
Pt       2.80721400      -0.00000009      19.95723557        4       0.00000000      -0.00174244      -0.00490735       0.01744681
Pt       5.61442776      -0.00000012      19.95723555        4       0.00000000       0.00181269      -0.00372688       0.01930200
Pt       1.40360718       2.43111835      19.95723542        4       0.00000000      -0.00414757       0.00031112       0.01924206
Pt       4.21082079       2.43111843      19.95723552        4       0.00000000       0.00000273      -0.00000018       0.02532292
Pt       7.01803481       2.43111844      19.95723550        4       0.00000000       0.00513441       0.00093564       0.01743710
Pt       2.80721421       4.86223734      19.95723529        4       0.00000000      -0.00339657       0.00397835       0.01753044
Pt       5.61442795       4.86223729      19.95723542        4       0.00000000       0.00233278       0.00342156       0.01928682
Pt       8.42164148       4.86223724      19.95723551        4       0.00000000       0.00000340      -0.00000959      -0.03656597
Pt       1.40360717       0.81037261      22.29206804        3       0.00000000      -0.00070559      -0.00287869      -0.00423117
Pt       4.21082121       0.81037256      22.29206808        3       0.00000000       0.00444530      -0.01066956      -0.06767005
Pt       7.01803485       0.81037259      22.29206811        3       0.00000000       0.00282447       0.00088946      -0.00423887
Pt       2.80721434       3.24149110      22.29206780        3       0.00000000      -0.01148819       0.00147627      -0.06745803
Pt       5.61442775       3.24149130      22.29206801        3       0.00000000       0.00703785       0.00922940      -0.06747363
Pt       8.42164144       3.24149143      22.29206808        3       0.00000000      -0.00187989       0.07525890      -0.14862187
Pt       4.21082099       5.67261006      22.29206776        3       0.00000000      -0.00212494       0.00201133      -0.00401384
Pt       7.01803485       5.67260985      22.29206778        3       0.00000000       0.06611495      -0.03602598      -0.14865553
Pt       9.82524820       5.67261061      22.29206807        3       0.00000000      -0.06422871      -0.03925046      -0.14864884
Pt      -0.00000053       1.62074559      24.58417356        2       0.00000000      -0.00460738      -0.24079293       0.25753051
Pt       2.80721447       1.62074548      24.58417379        2       0.00000000      -0.00708940      -0.00739081      -0.01159555
Pt       5.61442782       1.62074544      24.58417375        2       0.00000000       0.00977052      -0.00252383      -0.01162210
Pt       1.40360648       4.05186445      24.58417388        2       0.00000000      -0.01434484       0.00985141      -0.04712461
Pt       4.21082098       4.05186402      24.58417384        2       0.00000000      -0.00271685       0.00973436      -0.01159266
Pt       7.01803473       4.05186413      24.58417382        2       0.00000000       0.01588476       0.00740847      -0.04723008
Pt       2.80721282       6.48298339      24.58417358        2       0.00000000       0.21056092       0.11631666       0.25768748
Pt       5.61442787       6.48298335      24.58417389        2       0.00000000      -0.20590183       0.12436628       0.25759599
Pt       8.42164231       6.48298348      24.58417365        2       0.00000000      -0.00153113      -0.01722895      -0.04700929
Pt       0.00000236      -0.00017486      27.13938092        1       0.00000000      -0.00001448       0.00022040       0.03363769
Pt       2.80832399      -0.00429280      26.89958917        1       0.00000000      -0.01477879       0.00190049      -0.00382556
Pt       5.61041682      -0.00295686      26.89735448        1       0.00000000       0.01552981       0.00199013      -0.00511967
Pt       1.40304491       2.43601826      26.89728987        1       0.00000000      -0.00593567      -0.01456446      -0.00506729
Pt       4.21082452       2.43110697      26.90997700        1       0.00000000      -0.00003646      -0.00009896      -0.01055025
Pt       7.02119143       2.43418013      26.89948706        1       0.00000000       0.00573616      -0.01393901      -0.00401420
Pt       2.80293821       4.86338292      26.89952245        1       0.00000000       0.00905814       0.01190108      -0.00402641
Pt       5.61901515       4.86021527      26.89728159        1       0.00000000      -0.00962789       0.01245327      -0.00498161
Pt       8.42163821       4.86221217      26.91836323        1       0.00000000       0.00004467       0.00000524      -0.01414002
C       -0.00000097       0.00004806      29.22573431        0       1.00000000       0.00003066      -0.00010552      -0.02851199
H        0.52303196      -0.90468276      29.56835637        0       0.00000000       0.00256142      -0.00403588      -0.00066440
H       -1.04517969      -0.00055613      29.56792378        0       0.00000000      -0.00457827       0.00063457      -0.00049516
H        0.52214682       0.90561856      29.56748936        0       0.00000000       0.00198952       0.00385234      -0.00031921
