40
Lattice="8.421641763931781 0.0 0.0 4.2108208819658905 7.293355709136913 0.0 0.0 0.0 46.87624170604845" Properties=species:S:1:pos:R:3:tags:I:1:initial_magmoms:R:1:forces:R:3 charge=0 spin=0 energy=-206.89628531284058 free_energy=-206.89628531284058 stress="0.010364438407123089 5.038018002778699e-08 -1.1851452264011186e-08 5.038018002778699e-08 0.010364382527768612 1.0894056856614043e-07 -1.1851452264011186e-08 1.0894056856614043e-07 -0.00032731055398471653" pbc="T T T"
Pt      -0.00000001       0.00000004      19.95723550        4       0.00000000       0.00000096      -0.00000155       0.01356676
Pt       2.80721400      -0.00000009      19.95723557        4       0.00000000      -0.00175373      -0.00508956       0.01698558
Pt       5.61442776      -0.00000012      19.95723555        4       0.00000000       0.00190827      -0.00339125       0.01938932
Pt       1.40360718       2.43111835      19.95723542        4       0.00000000      -0.00390389       0.00005450       0.01933767
Pt       4.21082079       2.43111843      19.95723552        4       0.00000000       0.00000076      -0.00000307       0.02549278
Pt       7.01803481       2.43111844      19.95723550        4       0.00000000       0.00529950       0.00100772       0.01697953
Pt       2.80721421       4.86223734      19.95723529        4       0.00000000      -0.00354824       0.00407624       0.01707003
Pt       5.61442795       4.86223729      19.95723542        4       0.00000000       0.00199361       0.00333610       0.01938201
Pt       8.42164148       4.86223724      19.95723551        4       0.00000000       0.00000312       0.00000456      -0.03659835
Pt       1.40360717       0.81037261      22.29206804        3       0.00000000      -0.00025004      -0.00409205      -0.00410423
Pt       4.21082121       0.81037256      22.29206808        3       0.00000000       0.00407469      -0.01125369      -0.06719268
Pt       7.01803485       0.81037259      22.29206811        3       0.00000000       0.00362881       0.00185921      -0.00412764
Pt       2.80721434       3.24149110      22.29206780        3       0.00000000      -0.01179618       0.00207134      -0.06696126
Pt       5.61442775       3.24149130      22.29206801        3       0.00000000       0.00772038       0.00918319      -0.06698529
Pt       8.42164144       3.24149143      22.29206808        3       0.00000000      -0.00167176       0.07534999      -0.14944129
Pt       4.21082099       5.67261006      22.29206776        3       0.00000000      -0.00337953       0.00220180      -0.00392927
Pt       7.01803485       5.67260985      22.29206778        3       0.00000000       0.06605879      -0.03624235      -0.14943220
Pt       9.82524820       5.67261061      22.29206807        3       0.00000000      -0.06438243      -0.03911103      -0.14942963
Pt      -0.00000053       1.62074559      24.58417356        2       0.00000000      -0.00123116      -0.24652883       0.25648192
Pt       2.80721447       1.62074548      24.58417379        2       0.00000000      -0.00791939      -0.00026877      -0.01631348
Pt       5.61442782       1.62074544      24.58417375        2       0.00000000       0.00407128      -0.00669369      -0.01632358
Pt       1.40360648       4.05186445      24.58417388        2       0.00000000      -0.02089934       0.00435310      -0.05072337
Pt       4.21082098       4.05186402      24.58417384        2       0.00000000       0.00378788       0.00690551      -0.01639382
Pt       7.01803473       4.05186413      24.58417382        2       0.00000000       0.01442826       0.01580677      -0.05084363
Pt       2.80721282       6.48298339      24.58417358        2       0.00000000       0.21398529       0.12225730       0.25656894
Pt       5.61442787       6.48298335      24.58417389        2       0.00000000      -0.21272585       0.12446026       0.25645879
Pt       8.42164231       6.48298348      24.58417365        2       0.00000000       0.00648342      -0.02012733      -0.05068514
Pt      -0.00000040       0.00011422      27.14586989        1       0.00000000      -0.00000356      -0.00015797      -0.01030376
Pt       2.81108677      -0.00380769      26.89463152        1       0.00000000      -0.01649549      -0.00185284       0.00677898
Pt       5.61365570      -0.00266771      26.89699401        1       0.00000000       0.01535317      -0.00103806       0.00589716
Pt       1.40168004       2.43314086      26.89696751        1       0.00000000      -0.00864081      -0.01281843       0.00563694
Pt       4.21082041       2.43113143      26.91158831        1       0.00000000      -0.00000990       0.00001795      -0.01660379
Pt       7.01939157       2.43640059      26.89458765        1       0.00000000       0.00987024      -0.01339140       0.00657319
Pt       2.80199133       4.86083355      26.89457856        1       0.00000000       0.00662902       0.01531711       0.00678501
Pt       5.61711833       4.86295642      26.89689852        1       0.00000000      -0.00670737       0.01393669       0.00559051
Pt       8.42164299       4.86225428      26.92089234        1       0.00000000       0.00002082       0.00002823      -0.02130556
C        0.00000026      -0.00002811      29.22936134        0       1.00000000      -0.00002368      -0.00009346      -0.02140789
H       -0.52093519       0.90590029      29.57130040        0       0.00000000      -0.00605663       0.00977843       0.00433264
H        1.04509357      -0.00192938      29.57108269        0       0.00000000       0.01144884       0.00015902       0.00471542
H       -0.52415939      -0.90425498      29.57086733        0       0.00000000      -0.00536845      -0.01000964       0.00508264
