40
Lattice="8.421641763931781 0.0 0.0 4.2108208819658905 7.293355709136913 0.0 0.0 0.0 46.87624170604845" Properties=species:S:1:pos:R:3:tags:I:1:initial_magmoms:R:1:forces:R:3 charge=0 spin=0 energy=-206.89734579868042 free_energy=-206.89734579868042 stress="0.010351870208978653 3.162056714245409e-07 -3.4516136793172336e-07 3.162056714245409e-07 0.010366165079176426 7.862227903387975e-06 -3.4516136793172336e-07 7.862227903387975e-06 -0.00037493451964110136" pbc="T T T"
Pt      -0.00000001       0.00000004      19.95723550        4       0.00000000      -0.00001972       0.00015140       0.01350982
Pt       2.80721400      -0.00000009      19.95723557        4       0.00000000      -0.00180637      -0.00460491       0.01711113
Pt       5.61442776      -0.00000012      19.95723555        4       0.00000000       0.00187295      -0.00328712       0.01924647
Pt       1.40360718       2.43111835      19.95723542        4       0.00000000      -0.00404803       0.00053960       0.01905669
Pt       4.21082079       2.43111843      19.95723552        4       0.00000000      -0.00002418       0.00014310       0.02530754
Pt       7.01803481       2.43111844      19.95723550        4       0.00000000       0.00514958       0.00132016       0.01696516
Pt       2.80721421       4.86223734      19.95723529        4       0.00000000      -0.00338281       0.00411430       0.01712890
Pt       5.61442795       4.86223729      19.95723542        4       0.00000000       0.00208312       0.00351042       0.01914306
Pt       8.42164148       4.86223724      19.95723551        4       0.00000000      -0.00005264      -0.00036996      -0.03646205
Pt       1.40360717       0.81037261      22.29206804        3       0.00000000      -0.00051633      -0.00265754      -0.00477949
Pt       4.21082121       0.81037256      22.29206808        3       0.00000000       0.00434853      -0.01032808      -0.06746637
Pt       7.01803485       0.81037259      22.29206811        3       0.00000000       0.00331943       0.00224116      -0.00478576
Pt       2.80721434       3.24149110      22.29206780        3       0.00000000      -0.01163262       0.00243900      -0.06756154
Pt       5.61442775       3.24149130      22.29206801        3       0.00000000       0.00738861       0.01007013      -0.06762750
Pt       8.42164144       3.24149143      22.29206808        3       0.00000000      -0.00189603       0.07567654      -0.14750253
Pt       4.21082099       5.67261006      22.29206776        3       0.00000000      -0.00279242       0.00323677      -0.00309311
Pt       7.01803485       5.67260985      22.29206778        3       0.00000000       0.06650657      -0.03560009      -0.14910473
Pt       9.82524820       5.67261061      22.29206807        3       0.00000000      -0.06461899      -0.03864185      -0.14902960
Pt      -0.00000053       1.62074559      24.58417356        2       0.00000000      -0.00294947      -0.24784571       0.24227355
Pt       2.80721447       1.62074548      24.58417379        2       0.00000000      -0.00257739      -0.00429788      -0.02426496
Pt       5.61442782       1.62074544      24.58417375        2       0.00000000       0.00204956      -0.00480325      -0.02441346
Pt       1.40360648       4.05186445      24.58417388        2       0.00000000      -0.02051393       0.00771046      -0.05505363
Pt       4.21082098       4.05186402      24.58417384        2       0.00000000       0.00021782       0.00415072      -0.01837980
Pt       7.01803473       4.05186413      24.58417382        2       0.00000000       0.01895973       0.01101271      -0.05521156
Pt       2.80721282       6.48298339      24.58417358        2       0.00000000       0.21575660       0.11511493       0.25760630
Pt       5.61442787       6.48298335      24.58417389        2       0.00000000      -0.21266511       0.12078799       0.25741857
Pt       8.42164231       6.48298348      24.58417365        2       0.00000000       0.00179243      -0.02448242      -0.05553818
Pt       0.00004137      -0.00299529      27.14196650        1       0.00000000       0.00008685       0.00190389      -0.01755125
Pt       2.81031343      -0.00592270      26.89434305        1       0.00000000      -0.02002999      -0.00618655       0.01143012
Pt       5.61132590      -0.00466156      26.89410429        1       0.00000000       0.02001520      -0.00572081       0.01180389
Pt       1.40221092       2.43057623      26.89320815        1       0.00000000      -0.00542613      -0.00850531       0.01594670
Pt       4.21082492       2.42861259      26.91273315        1       0.00000000      -0.00010109      -0.00014408      -0.01622451
Pt       7.02047908       2.43106176      26.89351858        1       0.00000000       0.00602295      -0.00805976       0.01533868
Pt       2.80095486       4.85610128      26.89569777        1       0.00000000       0.01740995       0.02812931       0.00818579
Pt       5.61968501       4.85539437      26.89526954        1       0.00000000      -0.01773785       0.02798321       0.00894455
Pt       8.42169980       4.85980011      26.92171774        1       0.00000000      -0.00017586      -0.00032578      -0.02344684
C        0.00005491       0.01024091      29.22413258        0       1.00000000      -0.00025664      -0.00500212       0.01483815
H        0.90564268      -0.51270756      29.56693622        0       0.00000000      -0.01601130       0.00895481       0.00297983
H       -0.90640208      -0.51122474      29.56686774        0       0.00000000       0.01553417       0.00857044       0.00306611
H        0.00076681       1.05730557      29.56381108        0       0.00000000       0.00072067      -0.02689785      -0.00980423
