40
Lattice="8.421641763931781 0.0 0.0 4.2108208819658905 7.293355709136913 0.0 0.0 0.0 46.87624170604845" Properties=species:S:1:pos:R:3:tags:I:1:initial_magmoms:R:1:forces:R:3 charge=0 spin=0 energy=-206.8962872201892 free_energy=-206.8962872201892 stress="0.010364431887865067 2.4731829739721434e-07 -1.3959564171273087e-08 2.4731829739721434e-07 0.010364378802478313 3.2675541206117487e-07 -1.3959564171273087e-08 3.2675541206117487e-07 -0.0003273204492870718" pbc="T T T"
Pt      -0.00000001       0.00000004      19.95723550        4       0.00000000       0.00000102      -0.00000148       0.01356688
Pt       2.80721400      -0.00000009      19.95723557        4       0.00000000      -0.00175391      -0.00508935       0.01698539
Pt       5.61442776      -0.00000012      19.95723555        4       0.00000000       0.00190837      -0.00339117       0.01938920
Pt       1.40360718       2.43111835      19.95723542        4       0.00000000      -0.00390388       0.00005424       0.01933739
Pt       4.21082079       2.43111843      19.95723552        4       0.00000000       0.00000093      -0.00000331       0.02549266
Pt       7.01803481       2.43111844      19.95723550        4       0.00000000       0.00529938       0.00100777       0.01697930
Pt       2.80721421       4.86223734      19.95723529        4       0.00000000      -0.00354799       0.00407641       0.01706989
Pt       5.61442795       4.86223729      19.95723542        4       0.00000000       0.00199344       0.00333612       0.01938199
Pt       8.42164148       4.86223724      19.95723551        4       0.00000000       0.00000302       0.00000458      -0.03659869
Pt       1.40360717       0.81037261      22.29206804        3       0.00000000      -0.00024997      -0.00409209      -0.00410395
Pt       4.21082121       0.81037256      22.29206808        3       0.00000000       0.00407478      -0.01125416      -0.06719188
Pt       7.01803485       0.81037259      22.29206811        3       0.00000000       0.00362904       0.00185901      -0.00412791
Pt       2.80721434       3.24149110      22.29206780        3       0.00000000      -0.01179626       0.00207142      -0.06696092
Pt       5.61442775       3.24149130      22.29206801        3       0.00000000       0.00772067       0.00918315      -0.06698511
Pt       8.42164144       3.24149143      22.29206808        3       0.00000000      -0.00167163       0.07535031      -0.14944188
Pt       4.21082099       5.67261006      22.29206776        3       0.00000000      -0.00337945       0.00220169      -0.00392918
Pt       7.01803485       5.67260985      22.29206778        3       0.00000000       0.06605929      -0.03624287      -0.14943293
Pt       9.82524820       5.67261061      22.29206807        3       0.00000000      -0.06438284      -0.03911136      -0.14943072
Pt      -0.00000053       1.62074559      24.58417356        2       0.00000000      -0.00123123      -0.24652779       0.25648007
Pt       2.80721447       1.62074548      24.58417379        2       0.00000000      -0.00791994      -0.00026864      -0.01631389
Pt       5.61442782       1.62074544      24.58417375        2       0.00000000       0.00407195      -0.00669357      -0.01632422
Pt       1.40360648       4.05186445      24.58417388        2       0.00000000      -0.02089924       0.00435178      -0.05072584
Pt       4.21082098       4.05186402      24.58417384        2       0.00000000       0.00378789       0.00690558      -0.01639463
Pt       7.01803473       4.05186413      24.58417382        2       0.00000000       0.01442716       0.01580507      -0.05084496
Pt       2.80721282       6.48298339      24.58417358        2       0.00000000       0.21398728       0.12225818       0.25657174
Pt       5.61442787       6.48298335      24.58417389        2       0.00000000      -0.21272823       0.12446138       0.25646222
Pt       8.42164231       6.48298348      24.58417365        2       0.00000000       0.00648377      -0.02012617      -0.05068738
Pt      -0.00000057       0.00011494      27.14587161        1       0.00000000      -0.00000376      -0.00013530      -0.01030997
Pt       2.81108705      -0.00380760      26.89463185        1       0.00000000      -0.01649572      -0.00185250       0.00677693
Pt       5.61365541      -0.00266760      26.89699429        1       0.00000000       0.01535474      -0.00103800       0.00589755
Pt       1.40168005       2.43314110      26.89696770        1       0.00000000      -0.00864131      -0.01282033       0.00563881
Pt       4.21082044       2.43113148      26.91158772        1       0.00000000      -0.00001152       0.00001780      -0.01660254
Pt       7.01939151       2.43640085      26.89458779        1       0.00000000       0.00987177      -0.01339419       0.00657607
Pt       2.80199128       4.86083339      26.89457882        1       0.00000000       0.00662962       0.01531960       0.00678625
Pt       5.61711833       4.86295618      26.89689912        1       0.00000000      -0.00670881       0.01394071       0.00558983
Pt       8.42164312       4.86225429      26.92089133        1       0.00000000       0.00002119       0.00002946      -0.02130049
C        0.00000005      -0.00002815      29.22936205        0       1.00000000      -0.00002934      -0.00003743      -0.02142712
H        1.04509359      -0.00193100      29.57108364        0       0.00000000       0.01146373       0.00007501       0.00472643
H       -0.52417414      -0.90425465      29.57084854        0       0.00000000      -0.00479849      -0.01001225       0.00574945
H       -0.52092050       0.90590074      29.57132187        0       0.00000000      -0.00663536       0.00978256       0.00367597
