40
Lattice="8.421641763931781 0.0 0.0 4.2108208819658905 7.293355709136913 0.0 0.0 0.0 46.87624170604845" Properties=species:S:1:pos:R:3:tags:I:1:initial_magmoms:R:1:forces:R:3 charge=0 spin=0 energy=-206.8979485208484 free_energy=-206.8979485208484 stress="0.010363602079451084 -4.1924259619463555e-08 -9.069942130679465e-09 -4.1924259619463555e-08 0.010363385081291199 4.6073919293121435e-06 -9.069942130679465e-09 4.6073919293121435e-06 -0.0003367811441421509" pbc="T T T"
Pt      -0.00000001       0.00000004      19.95723550        4       0.00000000      -0.00000144      -0.00002464       0.01319208
Pt       2.80721400      -0.00000009      19.95723557        4       0.00000000      -0.00194871      -0.00474619       0.01724700
Pt       5.61442776      -0.00000012      19.95723555        4       0.00000000       0.00197923      -0.00329985       0.01934558
Pt       1.40360718       2.43111835      19.95723542        4       0.00000000      -0.00387298      -0.00007165       0.01932293
Pt       4.21082079       2.43111843      19.95723552        4       0.00000000      -0.00001076      -0.00000016       0.02529681
Pt       7.01803481       2.43111844      19.95723550        4       0.00000000       0.00511773       0.00063107       0.01726687
Pt       2.80721421       4.86223734      19.95723529        4       0.00000000      -0.00317885       0.00412142       0.01732686
Pt       5.61442795       4.86223729      19.95723542        4       0.00000000       0.00190392       0.00340281       0.01936097
Pt       8.42164148       4.86223724      19.95723551        4       0.00000000       0.00000593       0.00008045      -0.03673756
Pt       1.40360717       0.81037261      22.29206804        3       0.00000000      -0.00029549      -0.00348181      -0.00252613
Pt       4.21082121       0.81037256      22.29206808        3       0.00000000       0.00441043      -0.01135682      -0.06727247
Pt       7.01803485       0.81037259      22.29206811        3       0.00000000       0.00307866       0.00139569      -0.00258147
Pt       2.80721434       3.24149110      22.29206780        3       0.00000000      -0.01208718       0.00185977      -0.06698398
Pt       5.61442775       3.24149130      22.29206801        3       0.00000000       0.00767620       0.00958613      -0.06701182
Pt       8.42164144       3.24149143      22.29206808        3       0.00000000      -0.00178942       0.07603431      -0.15051208
Pt       4.21082099       5.67261006      22.29206776        3       0.00000000      -0.00278510       0.00197784      -0.00252026
Pt       7.01803485       5.67260985      22.29206778        3       0.00000000       0.06648608      -0.03632377      -0.15031013
Pt       9.82524820       5.67261061      22.29206807        3       0.00000000      -0.06470049      -0.03941393      -0.15035883
Pt      -0.00000053       1.62074559      24.58417356        2       0.00000000      -0.00252063      -0.24244812       0.25301594
Pt       2.80721447       1.62074548      24.58417379        2       0.00000000      -0.00799247      -0.00437331      -0.01731501
Pt       5.61442782       1.62074544      24.58417375        2       0.00000000       0.00756204      -0.00482032      -0.01726502
Pt       1.40360648       4.05186445      24.58417388        2       0.00000000      -0.01030828       0.00252106      -0.04734226
Pt       4.21082098       4.05186402      24.58417384        2       0.00000000       0.00039745       0.00843041      -0.01898097
Pt       7.01803473       4.05186413      24.58417382        2       0.00000000       0.00791206       0.00687831      -0.04754599
Pt       2.80721282       6.48298339      24.58417358        2       0.00000000       0.21241026       0.11994611       0.25273451
Pt       5.61442787       6.48298335      24.58417389        2       0.00000000      -0.20983110       0.12441930       0.25255960
Pt       8.42164231       6.48298348      24.58417365        2       0.00000000       0.00238385      -0.01021588      -0.04822760
Pt       0.00000388       0.00207637      27.14278470        1       0.00000000       0.00002000      -0.00395762       0.00601510
Pt       2.80634259      -0.00482881      26.89809488        1       0.00000000       0.00624843       0.00442810      -0.00215161
Pt       5.61547707      -0.00267513      26.89826280        1       0.00000000      -0.00693257       0.00243445      -0.00315135
Pt       1.40157422       2.43137067      26.89856016        1       0.00000000       0.00280939       0.00646200      -0.00428003
Pt       4.21081089       2.43097994      26.90645430        1       0.00000000       0.00004171       0.00001891      -0.00081883
Pt       7.02184810       2.43258740      26.89837110        1       0.00000000      -0.00425630       0.00490021      -0.00337262
Pt       2.80451212       4.86529750      26.89788103        1       0.00000000      -0.00255540      -0.00581118      -0.00206066
Pt       5.61519103       4.86436315      26.89798860        1       0.00000000       0.00459842      -0.00540010      -0.00295146
Pt       8.42164175       4.86210421      26.91182834        1       0.00000000       0.00004220       0.00013087       0.00177336
C        0.00000454       0.00077008      29.22676535        0       1.00000000      -0.00006677      -0.00226906      -0.02363164
H        0.90561078      -0.52333907      29.56530163        0       0.00000000       0.00032731      -0.00049331       0.01102698
H       -0.90570933      -0.52314507      29.56530820        0       0.00000000      -0.00061049      -0.00027595       0.01102715
H        0.00007999       1.04531574      29.57117320        0       0.00000000       0.00033327      -0.00087540      -0.00060220
