40
Lattice="8.421641763931781 0.0 0.0 4.2108208819658905 7.293355709136913 0.0 0.0 0.0 46.87624170604845" Properties=species:S:1:pos:R:3:tags:I:1:initial_magmoms:R:1:forces:R:3 charge=0 spin=0 energy=-206.89749266452515 free_energy=-206.89749266452515 stress="0.010361682623624802 -8.087472451734357e-07 4.2035603087242635e-07 -8.087472451734357e-07 0.010353495366871357 -7.141220976336626e-06 4.2035603087242635e-07 -7.141220976336626e-06 -0.00037485803477466106" pbc="T T T"
Pt      -0.00000001       0.00000004      19.95723550        4       0.00000000       0.00002144      -0.00014825       0.01359805
Pt       2.80721400      -0.00000009      19.95723557        4       0.00000000      -0.00158805      -0.00548427       0.01704346
Pt       5.61442776      -0.00000012      19.95723555        4       0.00000000       0.00176623      -0.00394265       0.01914734
Pt       1.40360718       2.43111835      19.95723542        4       0.00000000      -0.00405651      -0.00008672       0.01923566
Pt       4.21082079       2.43111843      19.95723552        4       0.00000000       0.00002681      -0.00016791       0.02544266
Pt       7.01803481       2.43111844      19.95723550        4       0.00000000       0.00531036       0.00070089       0.01718430
Pt       2.80721421       4.86223734      19.95723529        4       0.00000000      -0.00366034       0.00389448       0.01720430
Pt       5.61442795       4.86223729      19.95723542        4       0.00000000       0.00235204       0.00323123       0.01923752
Pt       8.42164148       4.86223724      19.95723551        4       0.00000000       0.00006071       0.00038331      -0.03661294
Pt       1.40360717       0.81037261      22.29206804        3       0.00000000      -0.00060573      -0.00446141      -0.00409849
Pt       4.21082121       0.81037256      22.29206808        3       0.00000000       0.00413899      -0.01141012      -0.06762113
Pt       7.01803485       0.81037259      22.29206811        3       0.00000000       0.00328767       0.00038100      -0.00414401
Pt       2.80721434       3.24149110      22.29206780        3       0.00000000      -0.01144912       0.00096886      -0.06713631
Pt       5.61442775       3.24149130      22.29206801        3       0.00000000       0.00717365       0.00815276      -0.06712380
Pt       8.42164144       3.24149143      22.29206808        3       0.00000000      -0.00171941       0.07505479      -0.14964499
Pt       4.21082099       5.67261006      22.29206776        3       0.00000000      -0.00272879       0.00114955      -0.00544450
Pt       7.01803485       5.67260985      22.29206778        3       0.00000000       0.06576476      -0.03672218      -0.14800693
Pt       9.82524820       5.67261061      22.29206807        3       0.00000000      -0.06403630      -0.03988028      -0.14805664
Pt      -0.00000053       1.62074559      24.58417356        2       0.00000000      -0.00366118      -0.24352808       0.26056483
Pt       2.80721447       1.62074548      24.58417379        2       0.00000000      -0.00838840      -0.00163697      -0.01745005
Pt       5.61442782       1.62074544      24.58417375        2       0.00000000       0.00844713      -0.00149932      -0.01735935
Pt       1.40360648       4.05186445      24.58417388        2       0.00000000      -0.02261413       0.01207568      -0.05659413
Pt       4.21082098       4.05186402      24.58417384        2       0.00000000       0.00021947       0.00820219      -0.02297536
Pt       7.01803473       4.05186413      24.58417382        2       0.00000000       0.01995065       0.01649796      -0.05660873
Pt       2.80721282       6.48298339      24.58417358        2       0.00000000       0.21318707       0.12513044       0.24505712
Pt       5.61442787       6.48298335      24.58417389        2       0.00000000      -0.20948587       0.13115525       0.24508132
Pt       8.42164231       6.48298348      24.58417365        2       0.00000000       0.00246081      -0.02210346      -0.05601452
Pt       0.00001341       0.00330616      27.14204289        1       0.00000000      -0.00013375      -0.00171902      -0.01720558
Pt       2.81103506      -0.00189853      26.89487589        1       0.00000000      -0.02196195       0.00524849       0.01165822
Pt       5.61112608      -0.00073462      26.89422369        1       0.00000000       0.02100368       0.00569319       0.01282520
Pt       1.40359126       2.44050222      26.89509577        1       0.00000000      -0.01605876      -0.02852489       0.00852699
Pt       4.21083521       2.43346690      26.91094759        1       0.00000000       0.00010127       0.00111067      -0.01407102
Pt       7.01890806       2.44155334      26.89563105        1       0.00000000       0.01662843      -0.02900649       0.00748779
Pt       2.80309320       4.86643293      26.89345790        1       0.00000000       0.00324367       0.00943679       0.01499898
Pt       5.61729403       4.86630579      26.89297538        1       0.00000000      -0.00321261       0.00847509       0.01541033
Pt       8.42160021       4.86508007      26.92288876        1       0.00000000       0.00022364      -0.00032899      -0.02437985
C       -0.00002923      -0.00998209      29.22411899        0       1.00000000       0.00023968       0.00484468       0.01369356
H       -0.90562140       0.51287017      29.56707275        0       0.00000000       0.01557941      -0.00903359       0.00270095
H        0.90640454       0.51139265      29.56706751        0       0.00000000      -0.01493655      -0.00886945       0.00269147
H       -0.00074517      -1.05724877      29.56315326        0       0.00000000      -0.00089033       0.02676674      -0.00824173
