40
Lattice="8.421641763931781 0.0 0.0 4.2108208819658905 7.293355709136913 0.0 0.0 0.0 46.87624170604845" Properties=species:S:1:pos:R:3:tags:I:1:initial_magmoms:R:1:forces:R:3 charge=0 spin=0 energy=-206.89634253329956 free_energy=-206.89634253329956 stress="0.010375051759183407 1.6498641741691245e-07 -1.0538715677910204e-08 1.6498641741691245e-07 0.010374918580055237 1.1947675204737607e-07 -1.0538715677910204e-08 1.1947675204737607e-07 -0.0002854088379535824" pbc="T T T"
Pt      -0.00000001       0.00000004      19.95723550        4       0.00000000       0.00000123      -0.00000348       0.01343249
Pt       2.80721400      -0.00000009      19.95723557        4       0.00000000      -0.00170569      -0.00512617       0.01724968
Pt       5.61442776      -0.00000012      19.95723555        4       0.00000000       0.00187939      -0.00345269       0.01955342
Pt       1.40360718       2.43111835      19.95723542        4       0.00000000      -0.00394193       0.00010823       0.01950205
Pt       4.21082079       2.43111843      19.95723552        4       0.00000000       0.00000044      -0.00000421       0.02537385
Pt       7.01803481       2.43111844      19.95723550        4       0.00000000       0.00530741       0.00106576       0.01724486
Pt       2.80721421       4.86223734      19.95723529        4       0.00000000      -0.00360381       0.00405315       0.01733390
Pt       5.61442795       4.86223729      19.95723542        4       0.00000000       0.00206167       0.00334213       0.01954653
Pt       8.42164148       4.86223724      19.95723551        4       0.00000000       0.00000337       0.00000794      -0.03671137
Pt       1.40360717       0.81037261      22.29206804        3       0.00000000      -0.00031692      -0.00410305      -0.00433375
Pt       4.21082121       0.81037256      22.29206808        3       0.00000000       0.00402481      -0.01100157      -0.06739546
Pt       7.01803485       0.81037259      22.29206811        3       0.00000000       0.00366846       0.00179880      -0.00436348
Pt       2.80721434       3.24149110      22.29206780        3       0.00000000      -0.01155262       0.00198782      -0.06716348
Pt       5.61442775       3.24149130      22.29206801        3       0.00000000       0.00752881       0.00901201      -0.06719334
Pt       8.42164144       3.24149143      22.29206808        3       0.00000000      -0.00161591       0.07512981      -0.14874083
Pt       4.21082099       5.67261006      22.29206776        3       0.00000000      -0.00335246       0.00225739      -0.00417778
Pt       7.01803485       5.67260985      22.29206778        3       0.00000000       0.06583077      -0.03618170      -0.14872605
Pt       9.82524820       5.67261061      22.29206807        3       0.00000000      -0.06421219      -0.03894887      -0.14872627
Pt      -0.00000053       1.62074559      24.58417356        2       0.00000000      -0.00166399      -0.24032542       0.25727260
Pt       2.80721447       1.62074548      24.58417379        2       0.00000000      -0.01023258      -0.00211843      -0.01094639
Pt       5.61442782       1.62074544      24.58417375        2       0.00000000       0.00681122      -0.00780264      -0.01097632
Pt       1.40360648       4.05186445      24.58417388        2       0.00000000      -0.01816843       0.00311042      -0.04768994
Pt       4.21082098       4.05186402      24.58417384        2       0.00000000       0.00333730       0.00982670      -0.01109616
Pt       7.01803473       4.05186413      24.58417382        2       0.00000000       0.01199708       0.01407587      -0.04786223
Pt       2.80721282       6.48298339      24.58417358        2       0.00000000       0.20884478       0.11880957       0.25741938
Pt       5.61442787       6.48298335      24.58417389        2       0.00000000      -0.20715702       0.12179797       0.25727275
Pt       8.42164231       6.48298348      24.58417365        2       0.00000000       0.00621578      -0.01711725      -0.04761398
Pt       0.00000013       0.00019106      27.13941967        1       0.00000000      -0.00001441      -0.00021222       0.03358535
Pt       2.81150519      -0.00450931      26.89765406        1       0.00000000      -0.01623793       0.00285233      -0.00525189
Pt       5.61362223      -0.00327875      26.89933708        1       0.00000000       0.01409080       0.00314387      -0.00353281
Pt       1.40116760       2.43349067      26.89929079        1       0.00000000      -0.00439632      -0.01381090      -0.00370576
Pt       4.21082359       2.43114584      26.90936925        1       0.00000000      -0.00004395      -0.00001931      -0.01073990
Pt       7.01977522       2.43712832      26.89757894        1       0.00000000       0.00582702      -0.01553811      -0.00528402
Pt       2.80119274       4.86083691      26.89758486        1       0.00000000       0.01042683       0.01282615      -0.00526686
Pt       5.61765984       4.86325035      26.89919450        1       0.00000000      -0.00970496       0.01082753      -0.00370364
Pt       8.42164019       4.86225599      26.91873745        1       0.00000000       0.00006072       0.00008957      -0.01367922
C        0.00000134      -0.00005557      29.22571089        0       1.00000000      -0.00003116       0.00009004      -0.02853234
H       -0.52246148      -0.90546314      29.56743147        0       0.00000000      -0.00191191      -0.00387431      -0.00026050
H       -0.52272322       0.90485162      29.56834299        0       0.00000000      -0.00264748       0.00402813      -0.00066558
H        1.04518763       0.00019025      29.56788471        0       0.00000000       0.00459403      -0.00060073      -0.00044760
