40
Lattice="8.421641763931781 0.0 0.0 4.2108208819658905 7.293355709136913 0.0 0.0 0.0 46.87624170604845" Properties=species:S:1:pos:R:3:tags:I:1:initial_magmoms:R:1:forces:R:3 charge=0 spin=0 energy=-206.897856968114 free_energy=-206.897856968114 stress="0.010363461449742317 -5.8930115898192525e-08 5.372462474895201e-09 -5.8930115898192525e-08 0.010363360866904259 -3.97002480667652e-07 5.372462474895201e-09 -3.97002480667652e-07 -0.00032648828346282244" pbc="T T T"
Pt      -0.00000001       0.00000004      19.95723550        4       0.00000000       0.00000188      -0.00000186       0.01361464
Pt       2.80721400      -0.00000009      19.95723557        4       0.00000000      -0.00177815      -0.00512641       0.01715050
Pt       5.61442776      -0.00000012      19.95723555        4       0.00000000       0.00188021      -0.00359591       0.01926924
Pt       1.40360718       2.43111835      19.95723542        4       0.00000000      -0.00406482       0.00017683       0.01921638
Pt       4.21082079       2.43111843      19.95723552        4       0.00000000       0.00000187      -0.00000592       0.02552516
Pt       7.01803481       2.43111844      19.95723550        4       0.00000000       0.00533980       0.00100165       0.01714594
Pt       2.80721421       4.86223734      19.95723529        4       0.00000000      -0.00356428       0.00411246       0.01723613
Pt       5.61442795       4.86223729      19.95723542        4       0.00000000       0.00218349       0.00341071       0.01926025
Pt       8.42164148       4.86223724      19.95723551        4       0.00000000       0.00000361       0.00000664      -0.03654761
Pt       1.40360717       0.81037261      22.29206804        3       0.00000000      -0.00044072      -0.00347942      -0.00427058
Pt       4.21082121       0.81037256      22.29206808        3       0.00000000       0.00419848      -0.01086833      -0.06722691
Pt       7.01803485       0.81037259      22.29206811        3       0.00000000       0.00318977       0.00138129      -0.00428627
Pt       2.80721434       3.24149110      22.29206780        3       0.00000000      -0.01152041       0.00175983      -0.06699852
Pt       5.61442775       3.24149130      22.29206801        3       0.00000000       0.00731655       0.00908675      -0.06701908
Pt       8.42164144       3.24149143      22.29206808        3       0.00000000      -0.00177743       0.07530617      -0.14933914
Pt       4.21082099       5.67261006      22.29206776        3       0.00000000      -0.00275188       0.00204512      -0.00409960
Pt       7.01803485       5.67260985      22.29206778        3       0.00000000       0.06608336      -0.03613845      -0.14932643
Pt       9.82524820       5.67261061      22.29206807        3       0.00000000      -0.06429987      -0.03919258      -0.14932260
Pt      -0.00000053       1.62074559      24.58417356        2       0.00000000      -0.00346870      -0.24677736       0.25533167
Pt       2.80721447       1.62074548      24.58417379        2       0.00000000      -0.00757872      -0.00425535      -0.01550149
Pt       5.61442782       1.62074544      24.58417375        2       0.00000000       0.00739575      -0.00435098      -0.01549813
Pt       1.40360648       4.05186445      24.58417388        2       0.00000000      -0.01988134       0.00831211      -0.05034729
Pt       4.21082098       4.05186402      24.58417384        2       0.00000000       0.00013454       0.00861605      -0.01562241
Pt       7.01803473       4.05186413      24.58417382        2       0.00000000       0.01733117       0.01296033      -0.05045560
Pt       2.80721282       6.48298339      24.58417358        2       0.00000000       0.21523647       0.12046415       0.25517166
Pt       5.61442787       6.48298335      24.58417389        2       0.00000000      -0.21173123       0.12653928       0.25506592
Pt       8.42164231       6.48298348      24.58417365        2       0.00000000       0.00255903      -0.02118637      -0.05028264
Pt      -0.00000086       0.00000258      27.14563836        1       0.00000000      -0.00000394       0.00008169      -0.00994205
Pt       2.80981436      -0.00410870      26.89608126        1       0.00000000      -0.01601517      -0.00098080       0.00619364
Pt       5.61245927      -0.00297015      26.89558422        1       0.00000000       0.01472837      -0.00032597       0.00696506
Pt       1.40197499       2.43438128      26.89556090        1       0.00000000      -0.00779203      -0.01279195       0.00670070
Pt       4.21082092       2.43116964      26.91103804        1       0.00000000      -0.00000689      -0.00004807      -0.01516586
Pt       7.02033508       2.43550403      26.89603685        1       0.00000000       0.00896107      -0.01354396       0.00597657
Pt       2.80232133       4.86215368      26.89600528        1       0.00000000       0.00703436       0.01427518       0.00621936
Pt       5.61802245       4.86213901      26.89548058        1       0.00000000      -0.00692154       0.01287396       0.00671921
Pt       8.42164198       4.86229606      26.92163851        1       0.00000000       0.00001811      -0.00006230      -0.02307848
C        0.00000162      -0.00035677      29.22892563        0       1.00000000       0.00002242       0.00014491      -0.02238963
H        0.00020748      -1.04548575      29.57046766        0       0.00000000      -0.00038432      -0.01237738       0.00455268
H       -0.90517609       0.52196765      29.57063871        0       0.00000000      -0.01061859       0.00660172       0.00470372
H        0.90497850       0.52231940      29.57063419        0       0.00000000       0.01097994       0.00595266       0.00470177
