40
Lattice="8.421641763931781 0.0 0.0 4.2108208819658905 7.293355709136913 0.0 0.0 0.0 46.87624170604845" Properties=species:S:1:pos:R:3:tags:I:1:initial_magmoms:R:1:forces:R:3 charge=0 spin=0 energy=-206.89809538669311 free_energy=-206.89809538669311 stress="0.010356002487242222 -6.546066089185842e-08 9.9311376899891e-09 -6.546066089185842e-08 0.010354900732636452 2.7565110940486193e-06 9.9311376899891e-09 2.7565110940486193e-06 -0.0003516633005347103" pbc="T T T"
Pt       0.00000003       0.00000007      19.95723551        4       0.00000000      -0.00000621      -0.00002919       0.01328499
Pt       2.80721399      -0.00000008      19.95723555        4       0.00000000      -0.00192427      -0.00497116       0.01727497
Pt       5.61442774      -0.00000012      19.95723554        4       0.00000000       0.00194698      -0.00340389       0.01934286
Pt       1.40360717       2.43111834      19.95723540        4       0.00000000      -0.00401410       0.00006517       0.01935362
Pt       4.21082076       2.43111843      19.95723549        4       0.00000000      -0.00002465       0.00000747       0.02542989
Pt       7.01803486       2.43111843      19.95723547        4       0.00000000       0.00536824       0.00083540       0.01733693
Pt       2.80721421       4.86223732      19.95723529        4       0.00000000      -0.00342796       0.00423389       0.01740650
Pt       5.61442794       4.86223731      19.95723540        4       0.00000000       0.00203543       0.00347217       0.01940251
Pt       8.42164146       4.86223722      19.95723551        4       0.00000000       0.00000916       0.00017833      -0.03683399
Pt       1.40360717       0.81037261      22.29206807        3       0.00000000      -0.00026171      -0.00333322      -0.00310846
Pt       4.21082122       0.81037254      22.29206808        3       0.00000000       0.00425270      -0.01101640      -0.06698285
Pt       7.01803484       0.81037259      22.29206812        3       0.00000000       0.00300607       0.00143628      -0.00315256
Pt       2.80721436       3.24149112      22.29206782        3       0.00000000      -0.01170591       0.00189711      -0.06655944
Pt       5.61442774       3.24149129      22.29206807        3       0.00000000       0.00749436       0.00935074      -0.06662199
Pt       8.42164142       3.24149141      22.29206809        3       0.00000000      -0.00178737       0.07622481      -0.15047081
Pt       4.21082097       5.67261006      22.29206778        3       0.00000000      -0.00272066       0.00199021      -0.00317599
Pt       7.01803483       5.67260987      22.29206781        3       0.00000000       0.06625451      -0.03609733      -0.15047902
Pt       9.82524821       5.67261060      22.29206810        3       0.00000000      -0.06449494      -0.03917694      -0.15054989
Pt      -0.00000049       1.62074561      24.58417352        2       0.00000000      -0.00312451      -0.24350141       0.25029391
Pt       2.80721437       1.62074550      24.58417378        2       0.00000000      -0.01090531      -0.00694347      -0.01875127
Pt       5.61442785       1.62074544      24.58417371        2       0.00000000       0.01085195      -0.00669018      -0.01873032
Pt       1.40360647       4.05186444      24.58417385        2       0.00000000      -0.01409367       0.00416259      -0.04719074
Pt       4.21082100       4.05186404      24.58417381        2       0.00000000      -0.00007343       0.01281927      -0.01924279
Pt       7.01803473       4.05186412      24.58417379        2       0.00000000       0.01151995       0.00891708      -0.04737369
Pt       2.80721284       6.48298340      24.58417356        2       0.00000000       0.21316276       0.11898632       0.25235328
Pt       5.61442787       6.48298334      24.58417388        2       0.00000000      -0.20996350       0.12462389       0.25217643
Pt       8.42164233       6.48298347      24.58417367        2       0.00000000       0.00262302      -0.01428708      -0.04740349
Pt       0.00002746       0.00374363      27.14358334        1       0.00000000      -0.00011305      -0.01778186      -0.01332071
Pt       2.80667948      -0.00455776      26.89793906        1       0.00000000       0.00397337      -0.00297980      -0.00143462
Pt       5.61533569      -0.00287290      26.89751676        1       0.00000000      -0.00436333      -0.00376943      -0.00077854
Pt       1.40121121       2.43095486      26.89759573        1       0.00000000       0.00002522       0.00955602      -0.00071514
Pt       4.21081931       2.43077582      26.90435591        1       0.00000000      -0.00006999       0.00080655       0.00515618
Pt       7.02168224       2.43211228      26.89800787        1       0.00000000      -0.00038861       0.00883362      -0.00153288
Pt       2.80411375       4.86412919      26.89774174        1       0.00000000      -0.00287415       0.00255529      -0.00178765
Pt       5.61586696       4.86360353      26.89718966        1       0.00000000       0.00393549       0.00257209      -0.00075526
Pt       8.42167238       4.86188671      26.91484816        1       0.00000000      -0.00014202       0.00110461      -0.00658003
C       -0.00001396       0.00123100      29.22518374        0       1.00000000       0.00042970      -0.00649909       0.01246114
H        0.90553440       0.52185732      29.56909547        0       0.00000000       0.00700876       0.00694715       0.00022926
H       -0.00084751      -1.04429199      29.56628042        0       0.00000000      -0.00064388      -0.00846272       0.00162919
H       -0.90466211       0.52341845      29.56907915        0       0.00000000      -0.00677443       0.00736709       0.00040040
