40
Lattice="8.421641763931781 0.0 0.0 4.2108208819658905 7.293355709136913 0.0 0.0 0.0 46.87624170604845" Properties=species:S:1:pos:R:3:tags:I:1:initial_magmoms:R:1:forces:R:3 charge=0 spin=0 energy=-206.15310026950561 free_energy=-206.15310026950561 stress="0.010531613603234291 1.0101288353325799e-05 -2.106270358126494e-08 1.0101288353325799e-05 0.009699747897684574 0.00012293535110075027 -2.106270358126494e-08 0.00012293535110075027 -0.0002528658660594374" pbc="T T T"
Pt       0.00000003       0.00000007      19.95723551        4       0.00000000       0.00093749      -0.00064231       0.01642990
Pt       2.80721399      -0.00000008      19.95723555        4       0.00000000      -0.00003015      -0.00214360       0.01559661
Pt       5.61442774      -0.00000012      19.95723554        4       0.00000000       0.00046114      -0.00835237       0.02645372
Pt       1.40360717       2.43111834      19.95723540        4       0.00000000      -0.00073996       0.00151340       0.02273991
Pt       4.21082076       2.43111843      19.95723549        4       0.00000000      -0.00005871       0.00093343       0.02325157
Pt       7.01803486       2.43111843      19.95723547        4       0.00000000       0.00086078       0.00229691       0.02003037
Pt       2.80721421       4.86223732      19.95723529        4       0.00000000       0.01495186       0.00178377      -0.00115417
Pt       5.61442794       4.86223731      19.95723540        4       0.00000000      -0.00088459       0.00410475       0.01336597
Pt       8.42164146       4.86223722      19.95723551        4       0.00000000      -0.01495329       0.00359237      -0.00277122
Pt       1.40360717       0.81037261      22.29206807        3       0.00000000       0.00297039       0.01782432      -0.02974870
Pt       4.21082122       0.81037254      22.29206808        3       0.00000000       0.00006048      -0.00705499      -0.03631557
Pt       7.01803484       0.81037259      22.29206812        3       0.00000000       0.00446963       0.00034580      -0.03377476
Pt       2.80721436       3.24149112      22.29206782        3       0.00000000      -0.00436808       0.04323080      -0.09398375
Pt       5.61442774       3.24149129      22.29206807        3       0.00000000      -0.00041293       0.00595236      -0.07056456
Pt       8.42164142       3.24149141      22.29206809        3       0.00000000       0.00318895       0.04561655      -0.09487955
Pt       4.21082097       5.67261006      22.29206778        3       0.00000000      -0.02135951      -0.01080541      -0.06553338
Pt       7.01803483       5.67260987      22.29206781        3       0.00000000       0.02084215      -0.00657061      -0.06686485
Pt       9.82524821       5.67261060      22.29206810        3       0.00000000       0.00127609      -0.04046453      -0.10852857
Pt      -0.00000049       1.62074561      24.58417352        2       0.00000000      -0.03937573      -0.14645126       0.07408196
Pt       2.80721437       1.62074550      24.58417378        2       0.00000000       0.03947338      -0.14256479       0.06552513
Pt       5.61442785       1.62074544      24.58417371        2       0.00000000      -0.00597109      -0.02038547      -0.01313202
Pt       1.40360647       4.05186444      24.58417385        2       0.00000000      -0.00269275       0.07249455      -0.19160219
Pt       4.21082100       4.05186404      24.58417381        2       0.00000000      -0.05339235      -0.02848085      -0.10509094
Pt       7.01803473       4.05186412      24.58417379        2       0.00000000       0.05675553      -0.01976162      -0.10649187
Pt       2.80721284       6.48298340      24.58417356        2       0.00000000       0.18489003       0.12331643       0.33431867
Pt       5.61442787       6.48298334      24.58417388        2       0.00000000       0.00569472       0.06896003       0.09025315
Pt       8.42164233       6.48298347      24.58417367        2       0.00000000      -0.19178645       0.13710307       0.33677638
Pt       0.02275926      -0.03218119      27.00845461        1       0.00000000      -0.04173030      -0.00853341      -0.00722962
Pt       2.78128869      -0.03281510      27.01142894        1       0.00000000       0.03764501      -0.00547667      -0.00934076
Pt       5.61400103      -0.01192506      26.91333402        1       0.00000000      -0.00060411      -0.00051023      -0.03818779
Pt       1.40283507       2.47131533      26.87009466        1       0.00000000      -0.00123980       0.00737939      -0.01361555
Pt       4.21003989       2.41175661      26.90948662        1       0.00000000      -0.00196338      -0.02835850       0.00470766
Pt       7.01716331       2.41313062      26.90902874        1       0.00000000       0.00123275      -0.03273701       0.00536801
Pt       2.80454676       4.85354038      26.91438142        1       0.00000000      -0.00334966       0.00842004       0.01323463
Pt       5.61418328       4.79899823      26.87992190        1       0.00000000      -0.00048379      -0.03533260       0.00792229
Pt       8.42474358       4.85497586      26.91398288        1       0.00000000       0.00063430       0.00829542       0.01333775
C        1.40430588      -0.04901731      28.90206211        0       1.00000000       0.00372349      -0.03282714      -0.01454328
H        2.28361856       0.52871610      29.24790685        0       0.00000000       0.02898045       0.01768790       0.02429836
H        1.40304180      -1.06126336      29.32067007        0       0.00000000       0.00079667      -0.01217420      -0.01942550
H        0.52518731       0.53038448      29.24611004        0       0.00000000      -0.02444843       0.01877588       0.01508624
