40
Lattice="8.421641763931781 0.0 0.0 4.2108208819658905 7.293355709136913 0.0 0.0 0.0 46.87624170604845" Properties=species:S:1:pos:R:3:tags:I:1:initial_magmoms:R:1:forces:R:3 charge=0 spin=0 energy=-206.8943169290515 free_energy=-206.8943169290515 stress="0.010363896377384663 -9.259368198399898e-06 -7.691052815061994e-06 -9.259368198399898e-06 0.010265365242958069 1.4167355402605608e-05 -7.691052815061994e-06 1.4167355402605608e-05 -0.00041091558523476124" pbc="T T T"
Pt       0.00000003       0.00000007      19.95723551        4       0.00000000       0.00009790      -0.00161896       0.01313688
Pt       2.80721399      -0.00000008      19.95723555        4       0.00000000      -0.00133522      -0.00667531       0.01696278
Pt       5.61442774      -0.00000012      19.95723554        4       0.00000000       0.00217882      -0.00477969       0.01926102
Pt       1.40360717       2.43111834      19.95723540        4       0.00000000      -0.00380579      -0.00139649       0.01933724
Pt       4.21082076       2.43111843      19.95723549        4       0.00000000       0.00023310      -0.00147290       0.02518373
Pt       7.01803486       2.43111843      19.95723547        4       0.00000000       0.00554921      -0.00071243       0.01723333
Pt       2.80721421       4.86223732      19.95723529        4       0.00000000      -0.00332952       0.00255234       0.01755778
Pt       5.61442794       4.86223731      19.95723540        4       0.00000000       0.00225184       0.00160741       0.01940605
Pt       8.42164146       4.86223722      19.95723551        4       0.00000000      -0.00009167       0.00025011      -0.03693908
Pt       1.40360717       0.81037261      22.29206807        3       0.00000000      -0.00067142      -0.01029771      -0.00491165
Pt       4.21082122       0.81037254      22.29206808        3       0.00000000       0.00380204      -0.01633828      -0.06728619
Pt       7.01803484       0.81037259      22.29206812        3       0.00000000       0.00473411      -0.00349505      -0.00192365
Pt       2.80721436       3.24149112      22.29206782        3       0.00000000      -0.01207375      -0.00421158      -0.06545435
Pt       5.61442774       3.24149129      22.29206807        3       0.00000000       0.00830474       0.00321290      -0.06690592
Pt       8.42164142       3.24149141      22.29206809        3       0.00000000      -0.00160168       0.07221036      -0.15141474
Pt       4.21082097       5.67261006      22.29206778        3       0.00000000      -0.00249120      -0.00441428      -0.00640049
Pt       7.01803483       5.67260987      22.29206781        3       0.00000000       0.06453746      -0.04070276      -0.14833549
Pt       9.82524821       5.67261060      22.29206810        3       0.00000000      -0.06454643      -0.04416962      -0.14667904
Pt      -0.00000049       1.62074561      24.58417352        2       0.00000000      -0.00767032      -0.22906752       0.26163155
Pt       2.80721437       1.62074550      24.58417378        2       0.00000000      -0.00707733       0.02204406      -0.02658885
Pt       5.61442785       1.62074544      24.58417371        2       0.00000000       0.00742111       0.01292551      -0.01539903
Pt       1.40360647       4.05186444      24.58417385        2       0.00000000      -0.01587376       0.02482306      -0.06182431
Pt       4.21082100       4.05186404      24.58417381        2       0.00000000      -0.00227363       0.03093941      -0.02653240
Pt       7.01803473       4.05186412      24.58417379        2       0.00000000       0.01263999       0.02736789      -0.05839898
Pt       2.80721284       6.48298340      24.58417356        2       0.00000000       0.20056421       0.13593051       0.24161778
Pt       5.61442787       6.48298334      24.58417388        2       0.00000000      -0.20579974       0.14228322       0.23478578
Pt       8.42164233       6.48298347      24.58417367        2       0.00000000       0.01142241      -0.00053332      -0.05727917
Pt      -0.00537501       0.01761142      27.13490241        1       0.00000000       0.00837490      -0.00072174       0.00683945
Pt       2.81235163       0.02174448      26.89164626        1       0.00000000      -0.01661048      -0.01616900       0.01668006
Pt       5.61282636       0.02346173      26.89851126        1       0.00000000       0.00212711      -0.01691764       0.00466606
Pt       1.39916825       2.45437335      26.89445419        1       0.00000000      -0.00233385      -0.02396874       0.01220185
Pt       4.21132668       2.46257799      26.90767337        1       0.00000000      -0.00617220      -0.04048886      -0.00135447
Pt       7.01875267       2.45905977      26.89987634        1       0.00000000       0.00646914      -0.02303316      -0.01140610
Pt       2.79817226       4.88505930      26.89813494        1       0.00000000       0.00980586      -0.00140935      -0.00507509
Pt       5.61724887       4.88731744      26.89415930        1       0.00000000      -0.00413940       0.00036959       0.01539480
Pt       8.42154506       4.88388441      26.91468127        1       0.00000000      -0.00445081      -0.00094237      -0.00103293
C        0.00038935       0.01197139      29.21787064        0       1.00000000       0.04229353       0.01180427      -0.01225272
H        1.04987674      -0.00078961      29.54673409        0       0.00000000      -0.00543050       0.00720251       0.02715126
H       -0.52981596      -0.88243471      29.57316107        0       0.00000000      -0.01754671      -0.03969843      -0.01702122
H       -0.50742872       0.92437342      29.55953299        0       0.00000000      -0.00748205       0.03771219       0.02136886
