40
Lattice="8.421641763931781 0.0 0.0 4.2108208819658905 7.293355709136913 0.0 0.0 0.0 46.87624170604845" Properties=species:S:1:pos:R:3:tags:I:1:initial_magmoms:R:1:forces:R:3 charge=0 spin=0 energy=-206.8972046548816 free_energy=-206.8972046548816 stress="0.010329040698707104 3.288588459327002e-06 5.890855163670494e-07 3.288588459327002e-06 0.010298734530806541 -8.140576028381474e-06 5.890855163670494e-07 -8.140576028381474e-06 -0.0004114180337637663" pbc="T T T"
Pt       0.00000003       0.00000007      19.95723551        4       0.00000000      -0.00367975       0.00441739       0.01728702
Pt       2.80721399      -0.00000008      19.95723555        4       0.00000000       0.00206664       0.00368936       0.01933258
Pt       5.61442774      -0.00000012      19.95723554        4       0.00000000      -0.00001135      -0.00025212      -0.03716890
Pt       1.40360717       2.43111834      19.95723540        4       0.00000000      -0.00023848      -0.00011540       0.01299984
Pt       4.21082076       2.43111843      19.95723549        4       0.00000000      -0.00218099      -0.00458190       0.01729018
Pt       7.01803486       2.43111843      19.95723547        4       0.00000000       0.00179209      -0.00316799       0.01948788
Pt       2.80721421       4.86223732      19.95723529        4       0.00000000      -0.00423034      -0.00000547       0.01911820
Pt       5.61442794       4.86223731      19.95723540        4       0.00000000      -0.00007567       0.00011826       0.02534262
Pt       8.42164146       4.86223722      19.95723551        4       0.00000000       0.00512393       0.00082709       0.01726081
Pt       1.40360717       0.81037261      22.29206807        3       0.00000000      -0.00305117       0.00200824      -0.00365698
Pt       4.21082122       0.81037254      22.29206808        3       0.00000000       0.06651931      -0.03598473      -0.15097319
Pt       7.01803484       0.81037259      22.29206812        3       0.00000000      -0.06567355      -0.03889941      -0.15001139
Pt       2.80721436       3.24149112      22.29206782        3       0.00000000      -0.00120180      -0.00335981      -0.00255521
Pt       5.61442774       3.24149129      22.29206807        3       0.00000000       0.00344694      -0.00974962      -0.06528118
Pt       8.42164142       3.24149141      22.29206809        3       0.00000000       0.00265287       0.00145160      -0.00270185
Pt       4.21082097       5.67261006      22.29206778        3       0.00000000      -0.01238713       0.00279151      -0.06730726
Pt       7.01803483       5.67260987      22.29206781        3       0.00000000       0.00699716       0.01039117      -0.06664582
Pt       9.82524821       5.67261060      22.29206810        3       0.00000000      -0.00243723       0.07537195      -0.14881410
Pt      -0.00000049       1.62074561      24.58417352        2       0.00000000       0.20803624       0.12328406       0.23696335
Pt       2.80721437       1.62074550      24.58417378        2       0.00000000      -0.20485389       0.12943229       0.23636577
Pt       5.61442785       1.62074544      24.58417371        2       0.00000000       0.00589863      -0.01586254      -0.05286341
Pt       1.40360647       4.05186444      24.58417385        2       0.00000000      -0.00091956      -0.24492532       0.23799069
Pt       4.21082100       4.05186404      24.58417381        2       0.00000000      -0.00314690      -0.01127114      -0.01939867
Pt       7.01803473       4.05186412      24.58417379        2       0.00000000       0.00865873      -0.01272316      -0.01797797
Pt       2.80721284       6.48298340      24.58417356        2       0.00000000      -0.01299966      -0.00019490      -0.05796272
Pt       5.61442787       6.48298334      24.58417388        2       0.00000000       0.00225832       0.00743940      -0.03350504
Pt       8.42164233       6.48298347      24.58417367        2       0.00000000       0.01465395       0.00204633      -0.06009196
Pt      -0.00121991       0.00460636      26.89240232        1       0.00000000      -0.01315784      -0.02784409       0.02116864
Pt       2.81356387       0.00402932      26.89211033        1       0.00000000       0.00166773      -0.02795273       0.02198375
Pt       5.61587491      -0.00800229      26.91197697        1       0.00000000       0.00511936       0.01059713       0.00426986
Pt       1.40487338       2.42189666      27.13610914        1       0.00000000       0.00133212       0.03553596       0.02403760
Pt       4.21493896       2.42227611      26.89856771        1       0.00000000       0.00380645       0.01564010      -0.00262805
Pt       7.01699586       2.42407297      26.90000166        1       0.00000000      -0.00052550       0.01127850      -0.00856416
Pt       2.80934791       4.85635473      26.89468719        1       0.00000000      -0.00576922       0.01570880       0.00591830
Pt       5.61807919       4.86694907      26.90442835        1       0.00000000      -0.00472814      -0.02947241       0.00349700
Pt       8.42718464       4.85639012      26.89570735        1       0.00000000      -0.00093824       0.01727162       0.00356799
C        1.40431971       2.43272290      29.21940740        0       1.00000000       0.00255481       0.01750350       0.01793144
H        2.31153119       2.95562764      29.55831344        0       0.00000000      -0.03265443       0.01177289      -0.00127173
H        1.40664133       1.39126444      29.57043730        0       0.00000000      -0.00260675      -0.04099060      -0.00739686
H        0.49608724       2.95305981      29.55984803        0       0.00000000       0.03488255       0.00877628      -0.00503709
