40
Lattice="8.421641763931781 0.0 0.0 4.2108208819658905 7.293355709136913 0.0 0.0 0.0 46.87624170604845" Properties=species:S:1:pos:R:3:tags:I:1:initial_magmoms:R:1:forces:R:3 charge=0 spin=0 energy=-206.89762808627808 free_energy=-206.89762808627808 stress="0.010385343804955482 -3.6423855362954782e-06 1.9594574496295536e-06 -3.6423855362954782e-06 0.0103588392958045 1.203152714879252e-05 1.9594574496295536e-06 1.203152714879252e-05 -0.0003243882965762168" pbc="T T T"
Pt       0.00000003       0.00000007      19.95723551        4       0.00000000       0.00198963      -0.00379578       0.01916025
Pt       2.80721399      -0.00000008      19.95723555        4       0.00000000      -0.00005051      -0.00027726       0.01332337
Pt       5.61442774      -0.00000012      19.95723554        4       0.00000000      -0.00171144      -0.00529305       0.01720564
Pt       1.40360717       2.43111834      19.95723540        4       0.00000000       0.00521092       0.00023601       0.01718153
Pt       4.21082076       2.43111843      19.95723549        4       0.00000000      -0.00382713      -0.00054724       0.01916206
Pt       7.01803486       2.43111843      19.95723547        4       0.00000000      -0.00002127      -0.00026691       0.02533182
Pt       2.80721421       4.86223732      19.95723529        4       0.00000000       0.00029620      -0.00022053      -0.03662757
Pt       5.61442794       4.86223731      19.95723540        4       0.00000000      -0.00315358       0.00373377       0.01723271
Pt       8.42164146       4.86223722      19.95723551        4       0.00000000       0.00175691       0.00303845       0.01927609
Pt       1.40360717       0.81037261      22.29206807        3       0.00000000       0.00293761       0.00067034      -0.00248083
Pt       4.21082122       0.81037254      22.29206808        3       0.00000000      -0.00044295      -0.00469892      -0.00228121
Pt       7.01803484       0.81037259      22.29206812        3       0.00000000       0.00443200      -0.01259318      -0.06682589
Pt       2.80721436       3.24149112      22.29206782        3       0.00000000      -0.00195023       0.07481422      -0.15147248
Pt       5.61442774       3.24149129      22.29206807        3       0.00000000      -0.01246189       0.00026863      -0.06740461
Pt       8.42164142       3.24149141      22.29206809        3       0.00000000       0.00747658       0.00830152      -0.06740218
Pt       4.21082097       5.67261006      22.29206778        3       0.00000000      -0.06439652      -0.04073257      -0.14944422
Pt       7.01803483       5.67260987      22.29206781        3       0.00000000      -0.00298729       0.00054570      -0.00256974
Pt       9.82524821       5.67261060      22.29206810        3       0.00000000       0.06675427      -0.03811492      -0.15027314
Pt      -0.00000049       1.62074561      24.58417352        2       0.00000000       0.00701096      -0.00030511      -0.02726176
Pt       2.80721437       1.62074550      24.58417378        2       0.00000000      -0.00367484      -0.24313317       0.25355968
Pt       5.61442785       1.62074544      24.58417371        2       0.00000000      -0.00662250       0.00031261      -0.02343509
Pt       1.40360647       4.05186444      24.58417385        2       0.00000000       0.00849043       0.01558672      -0.04808716
Pt       4.21082100       4.05186404      24.58417381        2       0.00000000      -0.00939569       0.01248874      -0.04838938
Pt       7.01803473       4.05186412      24.58417379        2       0.00000000       0.00064981       0.01378564      -0.01174619
Pt       2.80721284       6.48298340      24.58417356        2       0.00000000       0.00170258      -0.00798541      -0.05194989
Pt       5.61442787       6.48298334      24.58417388        2       0.00000000       0.21832256       0.12151819       0.25446466
Pt       8.42164233       6.48298347      24.58417367        2       0.00000000      -0.21375480       0.12985954       0.25651416
Pt       0.00336921       0.00216733      26.89538501        1       0.00000000      -0.00761292      -0.00180742       0.00761913
Pt       2.80977908       0.00884605      27.14690241        1       0.00000000      -0.01026014      -0.00877477       0.00319387
Pt       5.61453731       0.00195939      26.89657109        1       0.00000000       0.00160995      -0.00318459       0.00775772
Pt       1.40433790       2.43977779      26.89600018        1       0.00000000       0.01160683      -0.00196619       0.00466778
Pt       4.20824773       2.43867441      26.89492092        1       0.00000000       0.00342808      -0.00006887       0.00743859
Pt       7.01922720       2.43314486      26.90685410        1       0.00000000      -0.00419349       0.01506703      -0.00150943
Pt       2.80814104       4.86961612      26.91366051        1       0.00000000      -0.00110410      -0.00830125      -0.00345466
Pt       5.61240307       4.86908943      26.89998799        1       0.00000000       0.00352634      -0.00007558      -0.00762969
Pt       8.42398349       4.87132552      26.89874879        1       0.00000000      -0.00403791      -0.00878977      -0.00367779
C        2.79901831       0.02094703      29.23072471        0       1.00000000       0.02315841      -0.04005442       0.00761421
H        1.87018956      -0.46141333      29.57032989        0       0.00000000       0.00744596       0.00867536      -0.00353464
H        2.84234660       1.06665266      29.56876826        0       0.00000000      -0.00110881       0.00191494      -0.00226821
H        3.67920413      -0.53962315      29.58244367        0       0.00000000      -0.02503776       0.02016962      -0.02097755
