40
Lattice="8.421641763931781 0.0 0.0 4.2108208819658905 7.293355709136913 0.0 0.0 0.0 46.87624170604845" Properties=species:S:1:pos:R:3:tags:I:1:initial_magmoms:R:1:forces:R:3 charge=0 spin=0 energy=-206.89362265414917 free_energy=-206.89362265414917 stress="0.010168839246034622 -1.517140617579571e-07 1.664211346508182e-08 -1.517140617579571e-07 0.010168957524001598 -3.600120237479132e-07 1.664211346508182e-08 -3.600120237479132e-07 -0.0007342964527197182" pbc="T T T"
Pt       0.00000003       0.00000007      19.95723551        4       0.00000000       0.00000335       0.00000152       0.01283527
Pt       2.80721399      -0.00000008      19.95723555        4       0.00000000      -0.00186207      -0.00479683       0.01709272
Pt       5.61442774      -0.00000012      19.95723554        4       0.00000000       0.00186630      -0.00371272       0.01884554
Pt       1.40360717       2.43111834      19.95723540        4       0.00000000      -0.00415863       0.00025129       0.01878519
Pt       4.21082076       2.43111843      19.95723549        4       0.00000000       0.00000144      -0.00000197       0.02499446
Pt       7.01803486       2.43111843      19.95723547        4       0.00000000       0.00509999       0.00077386       0.01708717
Pt       2.80721421       4.86223732      19.95723529        4       0.00000000      -0.00324245       0.00402680       0.01717809
Pt       5.61442794       4.86223731      19.95723540        4       0.00000000       0.00229121       0.00346346       0.01883214
Pt       8.42164146       4.86223722      19.95723551        4       0.00000000       0.00000414      -0.00000350      -0.03730450
Pt       1.40360717       0.81037261      22.29206807        3       0.00000000      -0.00107728      -0.00300057      -0.00333780
Pt       4.21082122       0.81037254      22.29206808        3       0.00000000       0.00436342      -0.01069820      -0.06680973
Pt       7.01803484       0.81037259      22.29206812        3       0.00000000       0.00311387       0.00062106      -0.00337402
Pt       2.80721436       3.24149112      22.29206782        3       0.00000000      -0.01146732       0.00156498      -0.06661835
Pt       5.61442774       3.24149129      22.29206807        3       0.00000000       0.00710189       0.00916620      -0.06663200
Pt       8.42164142       3.24149141      22.29206809        3       0.00000000      -0.00197460       0.07603298      -0.14740998
Pt       4.21082097       5.67261006      22.29206778        3       0.00000000      -0.00204889       0.00238309      -0.00316823
Pt       7.01803483       5.67260987      22.29206781        3       0.00000000       0.06682387      -0.03632727      -0.14742000
Pt       9.82524821       5.67261060      22.29206810        3       0.00000000      -0.06483446      -0.03972179      -0.14743038
Pt      -0.00000049       1.62074561      24.58417352        2       0.00000000      -0.00555566      -0.24305703       0.20536621
Pt       2.80721437       1.62074550      24.58417378        2       0.00000000      -0.00061750      -0.00571030      -0.05533715
Pt       5.61442785       1.62074544      24.58417371        2       0.00000000       0.00495785       0.00220161      -0.05550354
Pt       1.40360647       4.05186444      24.58417385        2       0.00000000      -0.02071103       0.01581050      -0.09084967
Pt       4.21082100       4.05186404      24.58417381        2       0.00000000      -0.00443099       0.00323589      -0.05541656
Pt       7.01803473       4.05186412      24.58417379        2       0.00000000       0.02421567       0.00999932      -0.09095097
Pt       2.80721284       6.48298340      24.58417356        2       0.00000000       0.21300854       0.11661243       0.20545949
Pt       5.61442787       6.48298334      24.58417388        2       0.00000000      -0.20726669       0.12641715       0.20549142
Pt       8.42164233       6.48298347      24.58417367        2       0.00000000      -0.00359804      -0.02567736      -0.09066051
Pt       0.00000493      -0.00010700      27.12248549        1       0.00000000       0.00000634      -0.00007784      -0.02419314
Pt       2.80620770      -0.00439314      26.88837503        1       0.00000000       0.00271263       0.00336397       0.04118028
Pt       5.61143264      -0.00282407      26.88455915        1       0.00000000       0.00181227       0.00298023       0.04697008
Pt       1.40266478       2.43508619      26.88451541        1       0.00000000       0.00164285      -0.00321704       0.04680144
Pt       4.21080894       2.43110910      26.90329466        1       0.00000000       0.00001086      -0.00004050       0.01479536
Pt       7.02233390       2.43239681      26.88817027        1       0.00000000      -0.00422650       0.00062243       0.04147807
Pt       2.80391624       4.86531622      26.88823114        1       0.00000000       0.00153877      -0.00409488       0.04134755
Pt       5.61837299       4.86107212      26.88450395        1       0.00000000      -0.00346805       0.00009968       0.04667712
Pt       8.42164745       4.86222734      26.91311151        1       0.00000000      -0.00002777      -0.00001305       0.00564814
C       -0.00000012      -0.00002931      29.20171680        0       1.00000000      -0.00000874       0.00028668      -0.00854709
H       -1.04661416      -0.00005166      29.53801194        0       0.00000000      -0.00258714      -0.00001204       0.03801955
H        0.52323806       0.90654953      29.53759955        0       0.00000000       0.00149265       0.00236732       0.03825613
H        0.52337478      -0.90623621      29.53842410        0       0.00000000       0.00109573      -0.00211946       0.03782208
