40
Lattice="8.421641763931781 0.0 0.0 4.2108208819658905 7.293355709136913 0.0 0.0 0.0 46.87624170604845" Properties=species:S:1:pos:R:3:tags:I:1:initial_magmoms:R:1:forces:R:3 charge=0 spin=0 energy=-206.89771582431518 free_energy=-206.89771582431518 stress="0.01036452129483223 1.908968449981785e-08 -9.143128032462755e-09 1.908968449981785e-08 0.010364649817347527 2.2275649769198935e-07 -9.143128032462755e-09 2.2275649769198935e-07 -0.00032579191611148417" pbc="T T T"
Pt       0.00000003       0.00000007      19.95723551        4       0.00000000       0.00000112       0.00000060       0.01352961
Pt       2.80721399      -0.00000008      19.95723555        4       0.00000000      -0.00176783      -0.00484162       0.01707835
Pt       5.61442774      -0.00000012      19.95723554        4       0.00000000       0.00187120      -0.00343972       0.01921254
Pt       1.40360717       2.43111834      19.95723540        4       0.00000000      -0.00392960       0.00011932       0.01915656
Pt       4.21082076       2.43111843      19.95723549        4       0.00000000       0.00000137      -0.00000047       0.02539378
Pt       7.01803486       2.43111843      19.95723547        4       0.00000000       0.00509498       0.00088071       0.01707061
Pt       2.80721421       4.86223732      19.95723529        4       0.00000000      -0.00333087       0.00396892       0.01716308
Pt       5.61442794       4.86223731      19.95723540        4       0.00000000       0.00205689       0.00333041       0.01920245
Pt       8.42164146       4.86223722      19.95723551        4       0.00000000       0.00000230      -0.00000735      -0.03641192
Pt       1.40360717       0.81037261      22.29206807        3       0.00000000      -0.00047393      -0.00356967      -0.00393934
Pt       4.21082122       0.81037254      22.29206808        3       0.00000000       0.00439199      -0.01119651      -0.06744964
Pt       7.01803484       0.81037259      22.29206812        3       0.00000000       0.00330079       0.00142422      -0.00395533
Pt       2.80721436       3.24149112      22.29206782        3       0.00000000      -0.01191140       0.00178387      -0.06722946
Pt       5.61442774       3.24149129      22.29206807        3       0.00000000       0.00752005       0.00944581      -0.06725337
Pt       8.42164142       3.24149141      22.29206809        3       0.00000000      -0.00181639       0.07551180      -0.14930192
Pt       4.21082097       5.67261006      22.29206778        3       0.00000000      -0.00282897       0.00215861      -0.00372867
Pt       7.01803483       5.67260987      22.29206781        3       0.00000000       0.06628409      -0.03619588      -0.14932607
Pt       9.82524821       5.67261060      22.29206810        3       0.00000000      -0.06446381      -0.03931088      -0.14931974
Pt      -0.00000049       1.62074561      24.58417352        2       0.00000000      -0.00309356      -0.24662071       0.25710011
Pt       2.80721437       1.62074550      24.58417378        2       0.00000000      -0.00411798      -0.00201772      -0.01768699
Pt       5.61442785       1.62074544      24.58417371        2       0.00000000       0.00362971      -0.00261811      -0.01769910
Pt       1.40360647       4.05186444      24.58417385        2       0.00000000      -0.01752510       0.00771907      -0.04998843
Pt       4.21082100       4.05186404      24.58417381        2       0.00000000       0.00041749       0.00447712      -0.01763866
Pt       7.01803473       4.05186412      24.58417379        2       0.00000000       0.01566597       0.01120946      -0.05012594
Pt       2.80721284       6.48298340      24.58417356        2       0.00000000       0.21498768       0.12057371       0.25748551
Pt       5.61442787       6.48298334      24.58417388        2       0.00000000      -0.21185881       0.12601919       0.25736582
Pt       8.42164233       6.48298347      24.58417367        2       0.00000000       0.00189091      -0.01895748      -0.04997866
Pt       0.00000009       0.00003783      27.14560300        1       0.00000000      -0.00000172      -0.00009974      -0.00960287
Pt       2.80971819      -0.00333199      26.89599619        1       0.00000000      -0.01562266      -0.00264824       0.00641124
Pt       5.61218386      -0.00219263      26.89569766        1       0.00000000       0.01470712      -0.00188595       0.00688917
Pt       1.40284814       2.43408702      26.89565105        1       0.00000000      -0.00886761      -0.01174536       0.00671489
Pt       4.21082037       2.43108572      26.91321679        1       0.00000000      -0.00001527       0.00003168      -0.01895487
Pt       7.01964196       2.43488131      26.89592896        1       0.00000000       0.00996368      -0.01216336       0.00616235
Pt       2.80310225       4.86168147      26.89597104        1       0.00000000       0.00569020       0.01507174       0.00611589
Pt       5.61743707       4.86133922      26.89562955        1       0.00000000      -0.00587086       0.01390808       0.00655878
Pt       8.42164493       4.86220559      26.91986611        1       0.00000000       0.00001563       0.00004885      -0.01997717
C       -0.00000358       0.00035351      29.22906424        0       1.00000000      -0.00005181      -0.00019327      -0.02309415
H       -0.90489342      -0.52241648      29.57077381        0       0.00000000      -0.01122856      -0.00626787       0.00477272
H       -0.00031653       1.04542299      29.57070245        0       0.00000000       0.00023150       0.01276551       0.00448676
H        0.90519382      -0.52187966      29.57077564        0       0.00000000       0.01105202      -0.00666882       0.00479233
