40
Lattice="8.421641763931781 0.0 0.0 4.2108208819658905 7.293355709136913 0.0 0.0 0.0 46.87624170604845" Properties=species:S:1:pos:R:3:tags:I:1:initial_magmoms:R:1:forces:R:3 charge=0 spin=0 energy=-206.89476134128296 free_energy=-206.89476134128296 stress="0.010365216061472893 -2.7678729566105176e-06 -1.5484805544474511e-06 -2.7678729566105176e-06 0.010314461775124073 -7.887724677857477e-07 -1.5484805544474511e-06 -7.887724677857477e-07 -0.00033781203092075884" pbc="T T T"
Pt       0.00000003       0.00000007      19.95723551        4       0.00000000       0.00170307      -0.00460728       0.01938447
Pt       2.80721399      -0.00000008      19.95723555        4       0.00000000       0.00039064      -0.00068395       0.01322172
Pt       5.61442774      -0.00000012      19.95723554        4       0.00000000      -0.00169010      -0.00600667       0.01715744
Pt       1.40360717       2.43111834      19.95723540        4       0.00000000       0.00529345       0.00001988       0.01735375
Pt       4.21082076       2.43111843      19.95723549        4       0.00000000      -0.00413741      -0.00093559       0.01906751
Pt       7.01803486       2.43111843      19.95723547        4       0.00000000       0.00042830      -0.00109040       0.02515937
Pt       2.80721421       4.86223732      19.95723529        4       0.00000000       0.00024836      -0.00036151      -0.03667596
Pt       5.61442794       4.86223731      19.95723540        4       0.00000000      -0.00331835       0.00293974       0.01753517
Pt       8.42164146       4.86223722      19.95723551        4       0.00000000       0.00194610       0.00243149       0.01934136
Pt       1.40360717       0.81037261      22.29206807        3       0.00000000       0.00314047      -0.00176601      -0.00479215
Pt       4.21082122       0.81037254      22.29206808        3       0.00000000      -0.00139622      -0.00683749      -0.00227925
Pt       7.01803484       0.81037259      22.29206812        3       0.00000000       0.00456349      -0.01396992      -0.06586236
Pt       2.80721436       3.24149112      22.29206782        3       0.00000000      -0.00193790       0.07256012      -0.14983007
Pt       5.61442774       3.24149129      22.29206807        3       0.00000000      -0.01186691      -0.00200072      -0.06794105
Pt       8.42164142       3.24149141      22.29206809        3       0.00000000       0.00719443       0.00582059      -0.06750482
Pt       4.21082097       5.67261006      22.29206778        3       0.00000000      -0.06464174      -0.04295743      -0.14755371
Pt       7.01803483       5.67260987      22.29206781        3       0.00000000      -0.00241888      -0.00210868      -0.00549284
Pt       9.82524821       5.67261060      22.29206810        3       0.00000000       0.06574060      -0.03984438      -0.14943832
Pt      -0.00000049       1.62074561      24.58417352        2       0.00000000       0.00793254       0.00756538      -0.00737041
Pt       2.80721437       1.62074550      24.58417378        2       0.00000000      -0.00419280      -0.23615092       0.26449996
Pt       5.61442785       1.62074544      24.58417371        2       0.00000000      -0.00744842       0.00645186      -0.02927779
Pt       1.40360647       4.05186444      24.58417385        2       0.00000000       0.01261795       0.01721132      -0.05643066
Pt       4.21082100       4.05186404      24.58417381        2       0.00000000      -0.01556561       0.02244538      -0.05087118
Pt       7.01803473       4.05186412      24.58417379        2       0.00000000       0.00043899       0.02121674      -0.00786749
Pt       2.80721284       6.48298340      24.58417356        2       0.00000000       0.00666122      -0.00208286      -0.05006104
Pt       5.61442787       6.48298334      24.58417388        2       0.00000000       0.20543505       0.12509400       0.25119567
Pt       8.42164233       6.48298347      24.58417367        2       0.00000000      -0.20459059       0.13881169       0.24498431
Pt       0.00159586       0.01196600      26.90065490        1       0.00000000      -0.00543248      -0.00355676      -0.01639630
Pt       2.80589328       0.00173329      27.13805401        1       0.00000000       0.00249645       0.03557248       0.01929450
Pt       5.61888506       0.01559227      26.89670803        1       0.00000000      -0.02058093      -0.02066619       0.01474956
Pt       1.40712848       2.44882778      26.89730685        1       0.00000000       0.00427021      -0.02621556      -0.00164291
Pt       4.21156236       2.44789563      26.89604073        1       0.00000000      -0.02525911      -0.01693720      -0.00045316
Pt       7.01325414       2.44591806      26.90943493        1       0.00000000       0.03111493      -0.00243238      -0.00865566
Pt       2.80297101       4.88006520      26.91485139        1       0.00000000       0.02144562      -0.02169194      -0.00313971
Pt       5.60788053       4.87455808      26.90013083        1       0.00000000       0.01106297       0.00944600      -0.00481209
Pt       8.43029809       4.88067211      26.89656065        1       0.00000000      -0.02467362      -0.02749253      -0.00184317
C        2.80108262       0.00785853      29.22270294        0       1.00000000       0.02615480       0.02011806      -0.03149722
H        3.32427740      -0.89103901      29.57780595        0       0.00000000       0.00703255      -0.03583822      -0.01358412
H        1.75653279       0.01256694      29.56324935        0       0.00000000      -0.03428996      -0.00246511       0.01237846
H        3.32443663       0.91566919      29.55380659        0       0.00000000       0.00612845       0.03099514       0.02595035
