40
Lattice="8.421641763931781 0.0 0.0 4.2108208819658905 7.293355709136913 0.0 0.0 0.0 46.87624170604845" Properties=species:S:1:pos:R:3:tags:I:1:initial_magmoms:R:1:forces:R:3 charge=0 spin=0 energy=-206.8953049356433 free_energy=-206.8953049356433 stress="0.010379519313573837 -1.1412954336265102e-05 -3.08601011056453e-06 -1.1412954336265102e-05 0.010334177874028683 2.7867354219779372e-05 -3.08601011056453e-06 2.7867354219779372e-05 -0.0003531219845172018" pbc="T T T"
Pt       0.00000003       0.00000007      19.95723551        4       0.00000000       0.00275430      -0.00397409       0.01926231
Pt       2.80721399      -0.00000008      19.95723555        4       0.00000000       0.00050798      -0.00070435       0.01327980
Pt       5.61442774      -0.00000012      19.95723554        4       0.00000000      -0.00125106      -0.00551733       0.01720903
Pt       1.40360717       2.43111834      19.95723540        4       0.00000000       0.00561816       0.00030402       0.01713276
Pt       4.21082076       2.43111843      19.95723549        4       0.00000000      -0.00338215      -0.00047879       0.01926744
Pt       7.01803486       2.43111843      19.95723547        4       0.00000000       0.00031076      -0.00045208       0.02519889
Pt       2.80721421       4.86223732      19.95723529        4       0.00000000       0.00004429      -0.00002243      -0.03673921
Pt       5.61442794       4.86223731      19.95723540        4       0.00000000      -0.00291307       0.00365924       0.01733778
Pt       8.42164146       4.86223722      19.95723551        4       0.00000000       0.00274699       0.00274036       0.01933379
Pt       1.40360717       0.81037261      22.29206807        3       0.00000000       0.00512072      -0.00113047      -0.00234471
Pt       4.21082122       0.81037254      22.29206808        3       0.00000000       0.00142898      -0.00538785      -0.00453732
Pt       7.01803484       0.81037259      22.29206812        3       0.00000000       0.00625048      -0.01335915      -0.06790507
Pt       2.80721436       3.24149112      22.29206782        3       0.00000000      -0.00045289       0.07473304      -0.15162174
Pt       5.61442774       3.24149129      22.29206807        3       0.00000000      -0.01091650      -0.00086247      -0.06563106
Pt       8.42164142       3.24149141      22.29206809        3       0.00000000       0.00914145       0.00706616      -0.06572336
Pt       4.21082097       5.67261006      22.29206778        3       0.00000000      -0.06363861      -0.04133157      -0.14978087
Pt       7.01803483       5.67260987      22.29206781        3       0.00000000      -0.00087462      -0.00038636      -0.00387338
Pt       9.82524821       5.67261060      22.29206810        3       0.00000000       0.06749963      -0.03802944      -0.14902887
Pt      -0.00000049       1.62074561      24.58417352        2       0.00000000       0.00414120       0.00342504      -0.01772056
Pt       2.80721437       1.62074550      24.58417378        2       0.00000000      -0.01193519      -0.23909403       0.25807109
Pt       5.61442785       1.62074544      24.58417371        2       0.00000000      -0.01683038       0.00462112      -0.01723179
Pt       1.40360647       4.05186444      24.58417385        2       0.00000000       0.00307289       0.01452570      -0.05626301
Pt       4.21082100       4.05186404      24.58417381        2       0.00000000      -0.01310178       0.00973937      -0.05945220
Pt       7.01803473       4.05186412      24.58417379        2       0.00000000      -0.00394058       0.01849875      -0.02930141
Pt       2.80721284       6.48298340      24.58417356        2       0.00000000      -0.00150834      -0.00647866      -0.06246892
Pt       5.61442787       6.48298334      24.58417388        2       0.00000000       0.21061747       0.12821178       0.26141453
Pt       8.42164233       6.48298347      24.58417367        2       0.00000000      -0.21680763       0.13216883       0.25081909
Pt      -0.00885040       0.00726867      26.89708615        1       0.00000000       0.01492019      -0.00598035      -0.00500830
Pt       2.80143438       0.01231882      27.14494709        1       0.00000000       0.00353240      -0.00057509      -0.00299736
Pt       5.61144547       0.00459537      26.89349710        1       0.00000000      -0.01986914      -0.00066202       0.02021154
Pt       1.39631206       2.44493007      26.89831535        1       0.00000000       0.01492074      -0.02315807       0.00374759
Pt       4.19708273       2.44253338      26.89900896        1       0.00000000       0.01817291      -0.01433827      -0.00958507
Pt       7.00893156       2.44471873      26.90674218        1       0.00000000       0.00784864      -0.02493139       0.00194111
Pt       2.80373032       4.86943342      26.90858409        1       0.00000000      -0.00799085       0.00744146       0.01593683
Pt       5.60761976       4.86908696      26.89648787        1       0.00000000      -0.00546344       0.02940570       0.00898749
Pt       8.41669780       4.87179896      26.89791427        1       0.00000000       0.00794385       0.00866890      -0.00319257
C        2.79668169       0.01806957      29.22817407        0       1.00000000      -0.02810009      -0.01588654       0.02037925
H        3.31119698      -0.89196762      29.57038115        0       0.00000000      -0.00259702      -0.00417456       0.00337987
H        1.74785000       0.02252066      29.56278316        0       0.00000000       0.02944693      -0.00017670       0.00211429
H        3.32232435       0.91705685      29.58343700        0       0.00000000      -0.00446776       0.00188258      -0.03461767
