40
Lattice="8.421641763931781 0.0 0.0 4.2108208819658905 7.293355709136913 0.0 0.0 0.0 46.87624170604845" Properties=species:S:1:pos:R:3:tags:I:1:initial_magmoms:R:1:forces:R:3 charge=0 spin=0 energy=-206.89427878207886 free_energy=-206.89427878207886 stress="0.010372653603553772 2.1285010006977245e-05 1.7184329408337362e-05 2.1285010006977245e-05 0.01029608678072691 3.759435276151635e-05 1.7184329408337362e-05 3.759435276151635e-05 -0.0003933286352548748" pbc="T T T"
Pt       0.00000003       0.00000007      19.95723551        4       0.00000000      -0.00065636      -0.00099011       0.01320694
Pt       2.80721399      -0.00000008      19.95723555        4       0.00000000      -0.00327892      -0.00548633       0.01709050
Pt       5.61442774      -0.00000012      19.95723554        4       0.00000000       0.00113454      -0.00433143       0.01924872
Pt       1.40360717       2.43111834      19.95723540        4       0.00000000      -0.00458085      -0.00063494       0.01900686
Pt       4.21082076       2.43111843      19.95723549        4       0.00000000      -0.00080310      -0.00047033       0.02529185
Pt       7.01803486       2.43111843      19.95723547        4       0.00000000       0.00441945      -0.00006215       0.01744071
Pt       2.80721421       4.86223732      19.95723529        4       0.00000000      -0.00417412       0.00315757       0.01726075
Pt       5.61442794       4.86223731      19.95723540        4       0.00000000       0.00144415       0.00247256       0.01917215
Pt       8.42164146       4.86223722      19.95723551        4       0.00000000      -0.00000878      -0.00005443      -0.03717377
Pt       1.40360717       0.81037261      22.29206807        3       0.00000000      -0.00425772      -0.00671636      -0.00177129
Pt       4.21082122       0.81037254      22.29206808        3       0.00000000       0.00067743      -0.01433730      -0.06841140
Pt       7.01803484       0.81037259      22.29206812        3       0.00000000      -0.00023670      -0.00095533      -0.00624011
Pt       2.80721436       3.24149112      22.29206782        3       0.00000000      -0.01540331      -0.00107545      -0.06379272
Pt       5.61442774       3.24149129      22.29206807        3       0.00000000       0.00613101       0.00670315      -0.06367366
Pt       8.42164142       3.24149141      22.29206809        3       0.00000000      -0.00441244       0.07497764      -0.15237497
Pt       4.21082097       5.67261006      22.29206778        3       0.00000000      -0.00612430      -0.00011611      -0.00356819
Pt       7.01803483       5.67260987      22.29206781        3       0.00000000       0.06390613      -0.03798729      -0.15068857
Pt       9.82524821       5.67261060      22.29206810        3       0.00000000      -0.06675173      -0.04053731      -0.14878856
Pt      -0.00000049       1.62074561      24.58417352        2       0.00000000       0.01061377      -0.23622598       0.25257695
Pt       2.80721437       1.62074550      24.58417378        2       0.00000000       0.00200427       0.00878817      -0.02357523
Pt       5.61442785       1.62074544      24.58417371        2       0.00000000       0.02092271       0.01513202      -0.01953939
Pt       1.40360647       4.05186444      24.58417385        2       0.00000000       0.00279609       0.01170031      -0.06544435
Pt       4.21082100       4.05186404      24.58417381        2       0.00000000       0.00836146       0.02089486      -0.02713996
Pt       7.01803473       4.05186412      24.58417379        2       0.00000000       0.01048077       0.01051834      -0.05960032
Pt       2.80721284       6.48298340      24.58417356        2       0.00000000       0.22630639       0.12349438       0.24576044
Pt       5.61442787       6.48298334      24.58417388        2       0.00000000      -0.20539710       0.13152206       0.25647411
Pt       8.42164233       6.48298347      24.58417367        2       0.00000000       0.00972303      -0.00726495      -0.07417174
Pt       0.01161052       0.01776893      27.14311876        1       0.00000000       0.00004378      -0.01717903       0.00186446
Pt       2.82090695       0.00751577      26.89341649        1       0.00000000      -0.01217699      -0.00989155       0.00791953
Pt       5.62249880       0.00942311      26.88851215        1       0.00000000       0.01957858      -0.00887812       0.03990965
Pt       1.41881498       2.44622411      26.89761184        1       0.00000000      -0.01456682      -0.02355712       0.01127255
Pt       4.22571677       2.44799844      26.90744776        1       0.00000000      -0.00537966      -0.02849341      -0.00147086
Pt       7.04298328       2.44234982      26.90145960        1       0.00000000      -0.04420591      -0.00016177      -0.01664113
Pt       2.81503351       4.87377260      26.89994392        1       0.00000000      -0.00111524       0.01362535      -0.00880133
Pt       5.62478439       4.87042728      26.89656756        1       0.00000000       0.00561515       0.02536760       0.00535510
Pt       8.43126678       4.86814052      26.90530629        1       0.00000000       0.00150213       0.02139463       0.02903048
C        0.02404056       0.01946687      29.22679774        0       1.00000000       0.03633732      -0.01792765      -0.00045697
H       -0.49047963      -0.89276528      29.56143302        0       0.00000000       0.01013400      -0.01753992       0.02674462
H       -0.50270893       0.91490266      29.58780892        0       0.00000000      -0.00043651       0.01842710      -0.03545077
H        1.07439828       0.02437444      29.55783089        0       0.00000000      -0.04816592      -0.00730133       0.00414923
