40
Lattice="8.421641763931781 0.0 0.0 4.2108208819658905 7.293355709136913 0.0 0.0 0.0 46.87624170604845" Properties=species:S:1:pos:R:3:tags:I:1:initial_magmoms:R:1:forces:R:3 charge=0 spin=0 energy=-206.89616705722534 free_energy=-206.89616705722534 stress="0.01037506852298975 2.026831822377062e-07 1.3511244567609992e-08 2.026831822377062e-07 0.010375217534601688 -4.6702308509338764e-07 1.3511244567609992e-08 -4.6702308509338764e-07 -0.0002851193421520293" pbc="T T T"
Pt       0.00000003       0.00000007      19.95723551        4       0.00000000       0.00000153       0.00000227       0.01344820
Pt       2.80721399      -0.00000008      19.95723555        4       0.00000000      -0.00174237      -0.00490739       0.01744683
Pt       5.61442774      -0.00000012      19.95723554        4       0.00000000       0.00181273      -0.00372673       0.01930154
Pt       1.40360717       2.43111834      19.95723540        4       0.00000000      -0.00414762       0.00031123       0.01924157
Pt       4.21082076       2.43111843      19.95723549        4       0.00000000       0.00000320      -0.00000016       0.02532215
Pt       7.01803486       2.43111843      19.95723547        4       0.00000000       0.00513463       0.00093571       0.01743767
Pt       2.80721421       4.86223732      19.95723529        4       0.00000000      -0.00339654       0.00397838       0.01753055
Pt       5.61442794       4.86223731      19.95723540        4       0.00000000       0.00233284       0.00342153       0.01928691
Pt       8.42164146       4.86223722      19.95723551        4       0.00000000       0.00000322      -0.00000956      -0.03656584
Pt       1.40360717       0.81037261      22.29206807        3       0.00000000      -0.00070520      -0.00287931      -0.00423075
Pt       4.21082122       0.81037254      22.29206808        3       0.00000000       0.00444531      -0.01066939      -0.06767010
Pt       7.01803484       0.81037259      22.29206812        3       0.00000000       0.00282464       0.00088942      -0.00423875
Pt       2.80721436       3.24149112      22.29206782        3       0.00000000      -0.01148844       0.00147646      -0.06745732
Pt       5.61442774       3.24149129      22.29206807        3       0.00000000       0.00703761       0.00922952      -0.06747407
Pt       8.42164142       3.24149141      22.29206809        3       0.00000000      -0.00187972       0.07525884      -0.14862257
Pt       4.21082097       5.67261006      22.29206778        3       0.00000000      -0.00212496       0.00201147      -0.00401416
Pt       7.01803483       5.67260987      22.29206781        3       0.00000000       0.06611501      -0.03602544      -0.14865509
Pt       9.82524821       5.67261060      22.29206810        3       0.00000000      -0.06422899      -0.03925026      -0.14864863
Pt      -0.00000049       1.62074561      24.58417352        2       0.00000000      -0.00461003      -0.24079314       0.25753114
Pt       2.80721437       1.62074550      24.58417378        2       0.00000000      -0.00708786      -0.00739164      -0.01159562
Pt       5.61442785       1.62074544      24.58417371        2       0.00000000       0.00977102      -0.00252368      -0.01161840
Pt       1.40360647       4.05186444      24.58417385        2       0.00000000      -0.01433926       0.00985199      -0.04712469
Pt       4.21082100       4.05186404      24.58417381        2       0.00000000      -0.00271906       0.00973282      -0.01159216
Pt       7.01803473       4.05186412      24.58417379        2       0.00000000       0.01588339       0.00740587      -0.04722771
Pt       2.80721284       6.48298340      24.58417356        2       0.00000000       0.21055989       0.11631567       0.25768572
Pt       5.61442787       6.48298334      24.58417388        2       0.00000000      -0.20590159       0.12436949       0.25759411
Pt       8.42164233       6.48298347      24.58417367        2       0.00000000      -0.00153169      -0.01722775      -0.04700896
Pt       0.00000226      -0.00017486      27.13938005        1       0.00000000      -0.00001419       0.00022012       0.03364746
Pt       2.80832368      -0.00429256      26.89958934        1       0.00000000      -0.01477577       0.00190076      -0.00382594
Pt       5.61041664      -0.00295689      26.89735396        1       0.00000000       0.01552907       0.00199359      -0.00512056
Pt       1.40304491       2.43601816      26.89728953        1       0.00000000      -0.00593664      -0.01456433      -0.00506710
Pt       4.21082422       2.43110688      26.90997719        1       0.00000000      -0.00003401      -0.00009862      -0.01055093
Pt       7.02119165       2.43418002      26.89948763        1       0.00000000       0.00573404      -0.01393912      -0.00402141
Pt       2.80293781       4.86338280      26.89952267        1       0.00000000       0.00905769       0.01189988      -0.00402745
Pt       5.61901501       4.86021528      26.89728096        1       0.00000000      -0.00962739       0.01245101      -0.00498174
Pt       8.42163823       4.86221224      26.91836314        1       0.00000000       0.00004373       0.00000471      -0.01413942
C       -0.00000072       0.00004767      29.22573296        0       1.00000000      -0.00001605      -0.00009386      -0.02850189
H        0.52303141      -0.90468234      29.56835647        0       0.00000000       0.00257796      -0.00405729      -0.00066310
H       -1.04517899      -0.00055593      29.56792399        0       0.00000000      -0.00456786       0.00062984      -0.00050844
H        0.52214628       0.90561801      29.56748939        0       0.00000000       0.00200778       0.00386738      -0.00032112
