40
Lattice="8.421641763931781 0.0 0.0 4.2108208819658905 7.293355709136913 0.0 0.0 0.0 46.87624170604845" Properties=species:S:1:pos:R:3:tags:I:1:initial_magmoms:R:1:forces:R:3 charge=0 spin=0 energy=-205.99792029208862 free_energy=-205.99792029208862 stress="0.00984433013945818 1.1523406584501572e-07 4.7427903382413206e-08 1.1523406584501572e-07 0.009838656522333622 3.3339015317324083e-06 4.7427903382413206e-08 3.3339015317324083e-06 -0.00029700848972424865" pbc="T T T"
Pt       0.00000003       0.00000007      19.95723551        4       0.00000000      -0.00074376      -0.00203523       0.01783604
Pt       2.80721399      -0.00000008      19.95723555        4       0.00000000       0.00213327       0.00033201       0.01780521
Pt       5.61442774      -0.00000012      19.95723554        4       0.00000000       0.00167823       0.00714054       0.00676658
Pt       1.40360717       2.43111834      19.95723540        4       0.00000000      -0.00136761       0.00162516       0.01789490
Pt       4.21082076       2.43111843      19.95723549        4       0.00000000       0.00082745      -0.00051255       0.01734577
Pt       7.01803486       2.43111843      19.95723547        4       0.00000000       0.00002332       0.00090402       0.01735485
Pt       2.80721421       4.86223732      19.95723529        4       0.00000000       0.00551562      -0.00510769       0.00671748
Pt       5.61442794       4.86223731      19.95723540        4       0.00000000      -0.00082868      -0.00044853       0.01725322
Pt       8.42164146       4.86223722      19.95723551        4       0.00000000      -0.00719882      -0.00224109       0.00670757
Pt       1.40360717       0.81037261      22.29206807        3       0.00000000       0.00000442       0.00001203      -0.04305417
Pt       4.21082122       0.81037254      22.29206808        3       0.00000000       0.01558309      -0.01115489      -0.07488929
Pt       7.01803484       0.81037259      22.29206812        3       0.00000000      -0.01507163      -0.00764940      -0.07308121
Pt       2.80721436       3.24149112      22.29206782        3       0.00000000       0.00108013       0.01677007      -0.07339261
Pt       5.61442774       3.24149129      22.29206807        3       0.00000000      -0.00002034      -0.00006131      -0.06995719
Pt       8.42164142       3.24149141      22.29206809        3       0.00000000       0.00165100       0.01906096      -0.07510564
Pt       4.21082097       5.67261006      22.29206778        3       0.00000000      -0.01734352      -0.00824630      -0.07476892
Pt       7.01803483       5.67260987      22.29206781        3       0.00000000       0.01405522      -0.00942864      -0.07312956
Pt       9.82524821       5.67261060      22.29206810        3       0.00000000       0.00000661      -0.00058995      -0.04375536
Pt      -0.00000049       1.62074561      24.58417352        2       0.00000000       0.02769391      -0.01637061       0.00765440
Pt       2.80721437       1.62074550      24.58417378        2       0.00000000      -0.02747367      -0.01669655       0.00772246
Pt       5.61442785       1.62074544      24.58417371        2       0.00000000      -0.00271297      -0.02514178      -0.08288456
Pt       1.40360647       4.05186444      24.58417385        2       0.00000000      -0.00630827      -0.16493204       0.23292841
Pt       4.21082100       4.05186404      24.58417381        2       0.00000000      -0.02069050       0.01523060      -0.08223470
Pt       7.01803473       4.05186412      24.58417379        2       0.00000000       0.02335217       0.01086570      -0.08228450
Pt       2.80721284       6.48298340      24.58417356        2       0.00000000       0.14850019       0.07854855       0.23467961
Pt       5.61442787       6.48298334      24.58417388        2       0.00000000      -0.00015531       0.03207319       0.00883687
Pt       8.42164233       6.48298347      24.58417367        2       0.00000000      -0.14216091       0.08981828       0.23452808
Pt      -0.03217094      -0.01841259      26.93918597        1       0.00000000      -0.01293776      -0.00990168      -0.00884667
Pt       2.83949910      -0.01834784      26.93920289        1       0.00000000       0.01522843      -0.00577214      -0.00888516
Pt       5.61414062      -0.00068820      26.92111722        1       0.00000000       0.00185840      -0.00979508      -0.01550293
Pt       1.40355375       2.46996715      26.93820895        1       0.00000000      -0.00230180       0.01602592      -0.00951748
Pt       4.22865968       2.44345043      26.90192337        1       0.00000000      -0.01541625      -0.00962430       0.01659154
Pt       6.99860397       2.44060307      26.90191659        1       0.00000000       0.01675004      -0.00707812       0.01658790
Pt       2.80677433       4.86369971      26.92137034        1       0.00000000      -0.01031941       0.00236781      -0.01657073
Pt       5.61607259       4.84056910      26.90211238        1       0.00000000      -0.00145317       0.02048780       0.01610016
Pt       8.42238519       4.86318964      26.92136701        1       0.00000000       0.00860433       0.00544977      -0.01656316
C        1.40357734       0.80990294      28.72973322        0       1.00000000      -0.00018025       0.00275595      -0.04439265
H        0.50872468       0.28547688      29.12477824        0       0.00000000      -0.01684396      -0.01030988       0.02335789
H        1.39617171       1.84835079      29.12211365        0       0.00000000      -0.00000904       0.01426735       0.02081409
H        2.30582336       0.29832417      29.12477837        0       0.00000000       0.01699183      -0.01063803       0.02333344
