40
Lattice="8.421641763931781 0.0 0.0 4.2108208819658905 7.293355709136913 0.0 0.0 0.0 46.87624170604845" Properties=species:S:1:pos:R:3:tags:I:1:initial_magmoms:R:1:forces:R:3 charge=0 spin=0 energy=-206.89657522983276 free_energy=-206.89657522983276 stress="0.010358298197388649 -4.264553155053363e-09 1.655373793596482e-08 -4.264553155053363e-09 0.010358105413615704 1.6331108554368257e-07 1.655373793596482e-08 1.6331108554368257e-07 -0.0003381124697625637" pbc="T T T"
Pt       0.00000003       0.00000007      19.95723551        4       0.00000000       0.00000117      -0.00000354       0.01320993
Pt       2.80721399      -0.00000008      19.95723555        4       0.00000000      -0.00195669      -0.00498562       0.01716450
Pt       5.61442774      -0.00000012      19.95723554        4       0.00000000       0.00202359      -0.00324624       0.01953549
Pt       1.40360717       2.43111834      19.95723540        4       0.00000000      -0.00383498      -0.00011866       0.01948453
Pt       4.21082076       2.43111843      19.95723549        4       0.00000000       0.00000185      -0.00000646       0.02540248
Pt       7.01803486       2.43111843      19.95723547        4       0.00000000       0.00531384       0.00077879       0.01716051
Pt       2.80721421       4.86223732      19.95723529        4       0.00000000      -0.00335964       0.00419943       0.01725245
Pt       5.61442794       4.86223731      19.95723540        4       0.00000000       0.00181272       0.00336046       0.01953247
Pt       8.42164146       4.86223722      19.95723551        4       0.00000000       0.00000409       0.00000778      -0.03694430
Pt       1.40360717       0.81037261      22.29206807        3       0.00000000      -0.00016973      -0.00402938      -0.00290097
Pt       4.21082122       0.81037254      22.29206808        3       0.00000000       0.00410182      -0.01150587      -0.06672808
Pt       7.01803484       0.81037259      22.29206812        3       0.00000000       0.00352776       0.00188311      -0.00293175
Pt       2.80721436       3.24149112      22.29206782        3       0.00000000      -0.01202430       0.00216857      -0.06649876
Pt       5.61442774       3.24149129      22.29206807        3       0.00000000       0.00792227       0.00932858      -0.06653211
Pt       8.42164142       3.24149141      22.29206809        3       0.00000000      -0.00163335       0.07570550      -0.15057990
Pt       4.21082097       5.67261006      22.29206778        3       0.00000000      -0.00335928       0.00208170      -0.00275250
Pt       7.01803483       5.67260987      22.29206781        3       0.00000000       0.06633606      -0.03645709      -0.15056995
Pt       9.82524821       5.67261060      22.29206810        3       0.00000000      -0.06470254      -0.03925323      -0.15056579
Pt      -0.00000049       1.62074561      24.58417352        2       0.00000000      -0.00074703      -0.24348491       0.25200513
Pt       2.80721437       1.62074550      24.58417378        2       0.00000000      -0.01100624      -0.00221026      -0.01676893
Pt       5.61442785       1.62074544      24.58417371        2       0.00000000       0.00729946      -0.00842153      -0.01675955
Pt       1.40360647       4.05186444      24.58417385        2       0.00000000      -0.01306529      -0.00070047      -0.04927079
Pt       4.21082100       4.05186404      24.58417381        2       0.00000000       0.00363349       0.01054639      -0.01688915
Pt       7.01803473       4.05186412      24.58417379        2       0.00000000       0.00616166       0.01154588      -0.04942490
Pt       2.80721284       6.48298340      24.58417356        2       0.00000000       0.21108241       0.12120038       0.25216520
Pt       5.61442787       6.48298334      24.58417388        2       0.00000000      -0.21032727       0.12259978       0.25199449
Pt       8.42164233       6.48298347      24.58417367        2       0.00000000       0.00696912      -0.01079163      -0.04917609
Pt       0.00000037       0.00017540      27.14299007        1       0.00000000      -0.00001596      -0.00018108       0.00654660
Pt       2.80784731      -0.00445508      26.89672457        1       0.00000000       0.00465179       0.00139108      -0.00166371
Pt       5.61703615      -0.00226824      26.89947541        1       0.00000000      -0.00613243      -0.00066139      -0.00365120
Pt       1.40031227       2.43002427      26.89940701        1       0.00000000       0.00246300       0.00568100      -0.00375440
Pt       4.21082041       2.43115225      26.90550561        1       0.00000000      -0.00001378       0.00002756       0.00011641
Pt       7.02159600       2.43392767      26.89665464        1       0.00000000      -0.00345986       0.00332710      -0.00185731
Pt       2.80303131       4.86401008      26.89664372        1       0.00000000      -0.00118128      -0.00459186      -0.00191647
Pt       5.61510324       4.86573301      26.89930218        1       0.00000000       0.00365528      -0.00488894      -0.00374166
Pt       8.42164455       4.86227109      26.91194659        1       0.00000000       0.00002865       0.00004585       0.00270864
C        0.00000222      -0.00007177      29.22681313        0       1.00000000       0.00001057       0.00018365      -0.01427604
H       -0.52276258      -0.90538987      29.56806631        0       0.00000000      -0.00274524      -0.00506822       0.00414108
H       -0.52250670       0.90507278      29.56893806        0       0.00000000      -0.00298321       0.00485245       0.00378476
H        1.04527355      -0.00018845      29.56850453        0       0.00000000       0.00571731      -0.00030859       0.00394982
