40
Lattice="8.421641763931781 0.0 0.0 4.2108208819658905 7.293355709136913 0.0 0.0 0.0 46.87624170604845" Properties=species:S:1:pos:R:3:tags:I:1:initial_magmoms:R:1:forces:R:3 charge=0 spin=0 energy=-206.89657332248413 free_energy=-206.89657332248413 stress="0.010358310304582119 -1.0448959919528988e-08 1.5107517015167105e-08 -1.0448959919528988e-08 0.010358103550970554 1.6637140731745603e-07 1.5107517015167105e-08 1.6637140731745603e-07 -0.00033805702696554363" pbc="T T T"
Pt       0.00000003       0.00000007      19.95723551        4       0.00000000       0.00000111      -0.00000357       0.01320974
Pt       2.80721399      -0.00000008      19.95723555        4       0.00000000      -0.00195653      -0.00498555       0.01716446
Pt       5.61442774      -0.00000012      19.95723554        4       0.00000000       0.00202342      -0.00324617       0.01953570
Pt       1.40360717       2.43111834      19.95723540        4       0.00000000      -0.00383492      -0.00011882       0.01948478
Pt       4.21082076       2.43111843      19.95723549        4       0.00000000       0.00000182      -0.00000638       0.02540245
Pt       7.01803486       2.43111843      19.95723547        4       0.00000000       0.00531363       0.00077882       0.01716056
Pt       2.80721421       4.86223732      19.95723529        4       0.00000000      -0.00335951       0.00419944       0.01725260
Pt       5.61442794       4.86223731      19.95723540        4       0.00000000       0.00181283       0.00336051       0.01953275
Pt       8.42164146       4.86223722      19.95723551        4       0.00000000       0.00000390       0.00000781      -0.03694430
Pt       1.40360717       0.81037261      22.29206807        3       0.00000000      -0.00016972      -0.00402942      -0.00290132
Pt       4.21082122       0.81037254      22.29206808        3       0.00000000       0.00410157      -0.01150580      -0.06672861
Pt       7.01803484       0.81037259      22.29206812        3       0.00000000       0.00352742       0.00188354      -0.00293083
Pt       2.80721436       3.24149112      22.29206782        3       0.00000000      -0.01202398       0.00216864      -0.06649823
Pt       5.61442774       3.24149129      22.29206807        3       0.00000000       0.00792201       0.00932809      -0.06653173
Pt       8.42164142       3.24149141      22.29206809        3       0.00000000      -0.00163326       0.07570544      -0.15058027
Pt       4.21082097       5.67261006      22.29206778        3       0.00000000      -0.00335915       0.00208132      -0.00275192
Pt       7.01803483       5.67260987      22.29206781        3       0.00000000       0.06633572      -0.03645683      -0.15056930
Pt       9.82524821       5.67261060      22.29206810        3       0.00000000      -0.06470248      -0.03925356      -0.15056576
Pt      -0.00000049       1.62074561      24.58417352        2       0.00000000      -0.00074852      -0.24348322       0.25200725
Pt       2.80721437       1.62074550      24.58417378        2       0.00000000      -0.01100623      -0.00221137      -0.01677144
Pt       5.61442785       1.62074544      24.58417371        2       0.00000000       0.00730196      -0.00842226      -0.01675745
Pt       1.40360647       4.05186444      24.58417385        2       0.00000000      -0.01306433      -0.00070149      -0.04927175
Pt       4.21082100       4.05186404      24.58417381        2       0.00000000       0.00363593       0.01054871      -0.01688685
Pt       7.01803473       4.05186412      24.58417379        2       0.00000000       0.00615788       0.01154531      -0.04941867
Pt       2.80721284       6.48298340      24.58417356        2       0.00000000       0.21108076       0.12120080       0.25216520
Pt       5.61442787       6.48298334      24.58417388        2       0.00000000      -0.21032614       0.12259623       0.25199762
Pt       8.42164233       6.48298347      24.58417367        2       0.00000000       0.00697009      -0.01078939      -0.04917609
Pt       0.00000005       0.00017549      27.14298875        1       0.00000000      -0.00001275      -0.00018175       0.00660465
Pt       2.80784731      -0.00445552      26.89672495        1       0.00000000       0.00465106       0.00139050      -0.00166361
Pt       5.61703628      -0.00226813      26.89947616        1       0.00000000      -0.00613308      -0.00066066      -0.00365720
Pt       1.40031298       2.43002365      26.89940664        1       0.00000000       0.00245859       0.00568310      -0.00375434
Pt       4.21082066       2.43115200      26.90550392        1       0.00000000      -0.00001376       0.00002912       0.00012205
Pt       7.02159611       2.43392797      26.89665533        1       0.00000000      -0.00345899       0.00332863      -0.00186441
Pt       2.80303132       4.86401015      26.89664444        1       0.00000000      -0.00117949      -0.00459397      -0.00191656
Pt       5.61510254       4.86573309      26.89930460        1       0.00000000       0.00365875      -0.00489006      -0.00375610
Pt       8.42164483       4.86227145      26.91194451        1       0.00000000       0.00002301       0.00004376       0.00271464
C        0.00000132      -0.00007207      29.22681616        0       1.00000000       0.00002434       0.00021866      -0.01434812
H        1.04527404      -0.00018834      29.56850410        0       0.00000000       0.00570588      -0.00031217       0.00395512
H       -0.52276301      -0.90538986      29.56806703        0       0.00000000      -0.00275183      -0.00508790       0.00415135
H       -0.52250770       0.90507330      29.56893850        0       0.00000000      -0.00297707       0.00484183       0.00378398
