40
Lattice="8.421641763931781 0.0 0.0 4.2108208819658905 7.293355709136913 0.0 0.0 0.0 46.87624170604845" Properties=species:S:1:pos:R:3:tags:I:1:initial_magmoms:R:1:forces:R:3 charge=0 spin=0 energy=-206.89785887546265 free_energy=-206.89785887546265 stress="0.010363473556935787 -5.548682580069908e-08 7.301982574148269e-09 -5.548682580069908e-08 0.010363362729549408 -3.9467161627726455e-07 7.301982574148269e-09 -3.9467161627726455e-07 -0.00032648778869770467" pbc="T T T"
Pt       0.00000003       0.00000007      19.95723551        4       0.00000000       0.00000201      -0.00000170       0.01361491
Pt       2.80721399      -0.00000008      19.95723555        4       0.00000000      -0.00177815      -0.00512653       0.01715055
Pt       5.61442774      -0.00000012      19.95723554        4       0.00000000       0.00188040      -0.00359582       0.01926888
Pt       1.40360717       2.43111834      19.95723540        4       0.00000000      -0.00406496       0.00017688       0.01921581
Pt       4.21082076       2.43111843      19.95723549        4       0.00000000       0.00000233      -0.00000591       0.02552459
Pt       7.01803486       2.43111843      19.95723547        4       0.00000000       0.00533995       0.00100177       0.01714662
Pt       2.80721421       4.86223732      19.95723529        4       0.00000000      -0.00356417       0.00411245       0.01723621
Pt       5.61442794       4.86223731      19.95723540        4       0.00000000       0.00218362       0.00341058       0.01926021
Pt       8.42164146       4.86223722      19.95723551        4       0.00000000       0.00000343       0.00000664      -0.03654738
Pt       1.40360717       0.81037261      22.29206807        3       0.00000000      -0.00044053      -0.00347960      -0.00426964
Pt       4.21082122       0.81037254      22.29206808        3       0.00000000       0.00419819      -0.01086824      -0.06722702
Pt       7.01803484       0.81037259      22.29206812        3       0.00000000       0.00318966       0.00138111      -0.00428633
Pt       2.80721436       3.24149112      22.29206782        3       0.00000000      -0.01152074       0.00175999      -0.06699762
Pt       5.61442774       3.24149129      22.29206807        3       0.00000000       0.00731614       0.00908690      -0.06701897
Pt       8.42164142       3.24149141      22.29206809        3       0.00000000      -0.00177720       0.07530620      -0.14933977
Pt       4.21082097       5.67261006      22.29206778        3       0.00000000      -0.00275195       0.00204511      -0.00410018
Pt       7.01803483       5.67260987      22.29206781        3       0.00000000       0.06608313      -0.03613811      -0.14932658
Pt       9.82524821       5.67261060      22.29206810        3       0.00000000      -0.06429990      -0.03919258      -0.14932251
Pt      -0.00000049       1.62074561      24.58417352        2       0.00000000      -0.00347105      -0.24677850       0.25533459
Pt       2.80721437       1.62074550      24.58417378        2       0.00000000      -0.00757771      -0.00425634      -0.01550232
Pt       5.61442785       1.62074544      24.58417371        2       0.00000000       0.00739673      -0.00435054      -0.01549639
Pt       1.40360647       4.05186444      24.58417385        2       0.00000000      -0.01987549       0.00831280      -0.05034745
Pt       4.21082100       4.05186404      24.58417381        2       0.00000000       0.00013231       0.00861519      -0.01562258
Pt       7.01803473       4.05186412      24.58417379        2       0.00000000       0.01733006       0.01295804      -0.05045385
Pt       2.80721284       6.48298340      24.58417356        2       0.00000000       0.21523575       0.12046326       0.25517106
Pt       5.61442787       6.48298334      24.58417388        2       0.00000000      -0.21173169       0.12654288       0.25506660
Pt       8.42164233       6.48298347      24.58417367        2       0.00000000       0.00255876      -0.02118545      -0.05028259
Pt      -0.00000076       0.00000257      27.14563769        1       0.00000000      -0.00000653       0.00008029      -0.00994378
Pt       2.80981436      -0.00410868      26.89608169        1       0.00000000      -0.01601697      -0.00098166       0.00619067
Pt       5.61245902      -0.00297011      26.89558453        1       0.00000000       0.01472893      -0.00032598       0.00696529
Pt       1.40197486       2.43438131      26.89556079        1       0.00000000      -0.00779398      -0.01279225       0.00670100
Pt       4.21082087       2.43116960      26.91103779        1       0.00000000      -0.00000496      -0.00004691      -0.01516518
Pt       7.02033492       2.43550417      26.89603736        1       0.00000000       0.00896280      -0.01354564       0.00596928
Pt       2.80232145       4.86215354      26.89600534        1       0.00000000       0.00703435       0.01427521       0.00622138
Pt       5.61802262       4.86213894      26.89548108        1       0.00000000      -0.00692149       0.01287531       0.00671938
Pt       8.42164190       4.86229609      26.92163861        1       0.00000000       0.00001726      -0.00006285      -0.02307782
C        0.00000136      -0.00035787      29.22892630        0       1.00000000       0.00003171       0.00019059      -0.02239112
H        0.90497902       0.52231941      29.57063350        0       0.00000000       0.01096059       0.00594095       0.00470103
H        0.00020755      -1.04548565      29.57046633        0       0.00000000      -0.00038506      -0.01240033       0.00456055
H       -0.90517661       0.52196767      29.57063785        0       0.00000000      -0.01060574       0.00659280       0.00470054
