40
Lattice="8.421641763931781 0.0 0.0 4.2108208819658905 7.293355709136913 0.0 0.0 0.0 46.87624170604845" Properties=species:S:1:pos:R:3:tags:I:1:initial_magmoms:R:1:forces:R:3 charge=0 spin=0 energy=-206.15261389560425 free_energy=-206.15261389560425 stress="0.010550747625529766 1.4756526979908813e-05 3.75710369553417e-05 1.4756526979908813e-05 0.009660577401518822 0.00012732585310004652 3.75710369553417e-05 0.00012732585310004652 -0.0002939232799690217" pbc="T T T"
Pt       0.00000003       0.00000007      19.95723551        4       0.00000000       0.00040212      -0.00103067       0.01651876
Pt       2.80721399      -0.00000008      19.95723555        4       0.00000000       0.00024016      -0.00261575       0.01566881
Pt       5.61442774      -0.00000012      19.95723554        4       0.00000000       0.00053461      -0.00916549       0.02574656
Pt       1.40360717       2.43111834      19.95723540        4       0.00000000      -0.00096746       0.00112940       0.02273613
Pt       4.21082076       2.43111843      19.95723549        4       0.00000000      -0.00020841      -0.00000863       0.02358562
Pt       7.01803486       2.43111843      19.95723547        4       0.00000000       0.00107111       0.00133995       0.01984424
Pt       2.80721421       4.86223732      19.95723529        4       0.00000000       0.01391676       0.00151086      -0.00008609
Pt       5.61442794       4.86223731      19.95723540        4       0.00000000      -0.00084358       0.00322600       0.01316775
Pt       8.42164146       4.86223722      19.95723551        4       0.00000000      -0.01547107       0.00313261      -0.00330298
Pt       1.40360717       0.81037261      22.29206807        3       0.00000000       0.00233667       0.01566764      -0.03131786
Pt       4.21082122       0.81037254      22.29206808        3       0.00000000      -0.00074448      -0.00938979      -0.03775498
Pt       7.01803484       0.81037259      22.29206812        3       0.00000000       0.00422691      -0.00171428      -0.03173047
Pt       2.80721436       3.24149112      22.29206782        3       0.00000000      -0.00516498       0.03949333      -0.09146493
Pt       5.61442774       3.24149129      22.29206807        3       0.00000000      -0.00041538       0.00343223      -0.07177465
Pt       8.42164142       3.24149141      22.29206809        3       0.00000000       0.00216035       0.04436329      -0.09633880
Pt       4.21082097       5.67261006      22.29206778        3       0.00000000      -0.02131130      -0.01250308      -0.06338599
Pt       7.01803483       5.67260987      22.29206781        3       0.00000000       0.02010422      -0.00905359      -0.06961324
Pt       9.82524821       5.67261060      22.29206810        3       0.00000000      -0.00381033      -0.04312246      -0.10586869
Pt      -0.00000049       1.62074561      24.58417352        2       0.00000000      -0.04146475      -0.14613721       0.08342153
Pt       2.80721437       1.62074550      24.58417378        2       0.00000000       0.04028889      -0.13088536       0.05959768
Pt       5.61442785       1.62074544      24.58417371        2       0.00000000      -0.00332046       0.00034038      -0.04682495
Pt       1.40360647       4.05186444      24.58417385        2       0.00000000      -0.00106817       0.08973891      -0.20267738
Pt       4.21082100       4.05186404      24.58417381        2       0.00000000      -0.06025789      -0.01883705      -0.09271338
Pt       7.01803473       4.05186412      24.58417379        2       0.00000000       0.06611236      -0.01342515      -0.09335878
Pt       2.80721284       6.48298340      24.58417356        2       0.00000000       0.20066993       0.12549308       0.31918734
Pt       5.61442787       6.48298334      24.58417388        2       0.00000000       0.00041370       0.07404351       0.09508939
Pt       8.42164233       6.48298347      24.58417367        2       0.00000000      -0.19089977       0.13241591       0.30203080
Pt       0.02550535      -0.02362974      27.01330386        1       0.00000000       0.02740013      -0.01506595       0.00548715
Pt       2.79107338      -0.02275438      27.00454096        1       0.00000000      -0.00168583      -0.01630040      -0.01590761
Pt       5.61711113       0.00054016      26.90339375        1       0.00000000       0.00569468      -0.02512887       0.02557506
Pt       1.40375221       2.48318893      26.86522934        1       0.00000000       0.00020576      -0.01848508       0.01490047
Pt       4.21528408       2.41789202      26.91010737        1       0.00000000      -0.03676679       0.00477875       0.00267745
Pt       7.01529177       2.41779833      26.91018855        1       0.00000000       0.04168787       0.00190341       0.00194450
Pt       2.80205076       4.86759320      26.91675660        1       0.00000000       0.03261647      -0.02927008       0.00095350
Pt       5.61588252       4.80397428      26.87906189        1       0.00000000       0.00444427      -0.01187085       0.00482833
Pt       8.43032533       4.86810179      26.91668272        1       0.00000000      -0.03072795      -0.03065682       0.00127445
C        1.39530949      -0.04884750      28.89924010        0       1.00000000      -0.02386094       0.00515115       0.00352194
H        0.52001333       0.53155120      29.25371026        0       0.00000000       0.00157514       0.00494983       0.03321812
H        2.28111574       0.52797043      29.23717548        0       0.00000000      -0.01740931      -0.00893514      -0.01381705
H        1.40020408      -1.06238631      29.31570270        0       0.00000000      -0.00970326       0.00149145      -0.02303755
