40
Lattice="8.421641763931781 0.0 0.0 4.2108208819658905 7.293355709136913 0.0 0.0 0.0 46.87624170604845" Properties=species:S:1:pos:R:3:tags:I:1:initial_magmoms:R:1:forces:R:3 charge=0 spin=0 energy=-206.8943169290515 free_energy=-206.8943169290515 stress="0.010363911278545856 -9.252557902073022e-06 -7.721393558313139e-06 -9.252557902073022e-06 0.010265418328344822 1.4191669833962806e-05 -7.721393558313139e-06 1.4191669833962806e-05 -0.0004109008878003806" pbc="T T T"
Pt       0.00000003       0.00000007      19.95723551        4       0.00000000       0.00009776      -0.00162008       0.01313741
Pt       2.80721399      -0.00000008      19.95723555        4       0.00000000      -0.00133601      -0.00667538       0.01696151
Pt       5.61442774      -0.00000012      19.95723554        4       0.00000000       0.00217898      -0.00477943       0.01925985
Pt       1.40360717       2.43111834      19.95723540        4       0.00000000      -0.00380559      -0.00139750       0.01933769
Pt       4.21082076       2.43111843      19.95723549        4       0.00000000       0.00023322      -0.00147363       0.02518403
Pt       7.01803486       2.43111843      19.95723547        4       0.00000000       0.00554853      -0.00071280       0.01723360
Pt       2.80721421       4.86223732      19.95723529        4       0.00000000      -0.00332987       0.00255253       0.01755659
Pt       5.61442794       4.86223731      19.95723540        4       0.00000000       0.00225146       0.00160674       0.01940629
Pt       8.42164146       4.86223722      19.95723551        4       0.00000000      -0.00009080       0.00025011      -0.03693917
Pt       1.40360717       0.81037261      22.29206807        3       0.00000000      -0.00067171      -0.01030140      -0.00491054
Pt       4.21082122       0.81037254      22.29206808        3       0.00000000       0.00380171      -0.01634101      -0.06728614
Pt       7.01803484       0.81037259      22.29206812        3       0.00000000       0.00473202      -0.00349652      -0.00192491
Pt       2.80721436       3.24149112      22.29206782        3       0.00000000      -0.01207469      -0.00421489      -0.06545253
Pt       5.61442774       3.24149129      22.29206807        3       0.00000000       0.00830437       0.00320962      -0.06690317
Pt       8.42164142       3.24149141      22.29206809        3       0.00000000      -0.00160279       0.07220916      -0.15141883
Pt       4.21082097       5.67261006      22.29206778        3       0.00000000      -0.00249113      -0.00441804      -0.00639664
Pt       7.01803483       5.67260987      22.29206781        3       0.00000000       0.06453850      -0.04070457      -0.14834005
Pt       9.82524821       5.67261060      22.29206810        3       0.00000000      -0.06454807      -0.04417112      -0.14667997
Pt      -0.00000049       1.62074561      24.58417352        2       0.00000000      -0.00767097      -0.22907278       0.26165420
Pt       2.80721437       1.62074550      24.58417378        2       0.00000000      -0.00707239       0.02207383      -0.02660972
Pt       5.61442785       1.62074544      24.58417371        2       0.00000000       0.00742771       0.01293458      -0.01538140
Pt       1.40360647       4.05186444      24.58417385        2       0.00000000      -0.01586233       0.02482288      -0.06180485
Pt       4.21082100       4.05186404      24.58417381        2       0.00000000      -0.00226524       0.03093876      -0.02653487
Pt       7.01803473       4.05186412      24.58417379        2       0.00000000       0.01263435       0.02736633      -0.05838246
Pt       2.80721284       6.48298340      24.58417356        2       0.00000000       0.20056938       0.13593580       0.24162118
Pt       5.61442787       6.48298334      24.58417388        2       0.00000000      -0.20582674       0.14229055       0.23476332
Pt       8.42164233       6.48298347      24.58417367        2       0.00000000       0.01144634      -0.00054007      -0.05731044
Pt      -0.00537129       0.01761573      27.13491824        1       0.00000000       0.00833887      -0.00070524       0.00679921
Pt       2.81235473       0.02174662      26.89162186        1       0.00000000      -0.01660440      -0.01614848       0.01678154
Pt       5.61283301       0.02346499      26.89851247        1       0.00000000       0.00212984      -0.01689999       0.00466483
Pt       1.39917541       2.45437382      26.89445811        1       0.00000000      -0.00235136      -0.02393993       0.01218710
Pt       4.21133069       2.46258648      26.90767388        1       0.00000000      -0.00617259      -0.04049800      -0.00142279
Pt       7.01876071       2.45906516      26.89987977        1       0.00000000       0.00645679      -0.02302740      -0.01142666
Pt       2.79818398       4.88506257      26.89813638        1       0.00000000       0.00976533      -0.00140875      -0.00507557
Pt       5.61724948       4.88733409      26.89416198        1       0.00000000      -0.00411729       0.00030550       0.01539510
Pt       8.42155011       4.88389391      26.91467971        1       0.00000000      -0.00442877      -0.00097680      -0.00098091
C        0.00037360       0.01197111      29.21788334        0       1.00000000       0.04219260       0.01183915      -0.01220807
H       -0.52982749      -0.88243999      29.57317726        0       0.00000000      -0.01754277      -0.03961569      -0.01705981
H       -0.50744365       0.92437709      29.55954868        0       0.00000000      -0.00743414       0.03759687       0.02131754
H        1.04985953      -0.00078936      29.54674368        0       0.00000000      -0.00534784       0.00720733       0.02718860
