40
Lattice="8.421641763931781 0.0 0.0 4.2108208819658905 7.293355709136913 0.0 0.0 0.0 46.87624170604845" Properties=species:S:1:pos:R:3:tags:I:1:initial_magmoms:R:1:forces:R:3 charge=0 spin=0 energy=-206.89664580173218 free_energy=-206.89664580173218 stress="0.010358400642871857 -1.7123797078966163e-05 -1.5218988664855715e-05 -1.7123797078966163e-05 0.01037890650331974 1.5189873010967858e-05 -1.5218988664855715e-05 1.5189873010967858e-05 -0.0003491010866127908" pbc="T T T"
Pt       0.00000003       0.00000007      19.95723551        4       0.00000000       0.00249015      -0.00344699       0.01945135
Pt       2.80721399      -0.00000008      19.95723555        4       0.00000000       0.00094783       0.00022838       0.01313550
Pt       5.61442774      -0.00000012      19.95723554        4       0.00000000      -0.00120711      -0.00488559       0.01752584
Pt       1.40360717       2.43111834      19.95723540        4       0.00000000       0.00584247       0.00072990       0.01680002
Pt       4.21082076       2.43111843      19.95723549        4       0.00000000      -0.00343943       0.00027823       0.01925113
Pt       7.01803486       2.43111843      19.95723547        4       0.00000000       0.00083560       0.00011851       0.02521501
Pt       2.80721421       4.86223732      19.95723529        4       0.00000000      -0.00036201      -0.00106859      -0.03681489
Pt       5.61442794       4.86223731      19.95723540        4       0.00000000      -0.00208629       0.00415521       0.01742152
Pt       8.42164146       4.86223722      19.95723551        4       0.00000000       0.00206217       0.00317061       0.01901791
Pt       1.40360717       0.81037261      22.29206807        3       0.00000000       0.00560480       0.00150620      -0.00341999
Pt       4.21082122       0.81037254      22.29206808        3       0.00000000       0.00244427      -0.00251158      -0.00532561
Pt       7.01803484       0.81037259      22.29206812        3       0.00000000       0.00732434      -0.01175361      -0.06643006
Pt       2.80721436       3.24149112      22.29206782        3       0.00000000       0.00044238       0.07434575      -0.14926431
Pt       5.61442774       3.24149129      22.29206807        3       0.00000000      -0.00966651       0.00188349      -0.06690231
Pt       8.42164142       3.24149141      22.29206809        3       0.00000000       0.01017024       0.00887904      -0.06681558
Pt       4.21082097       5.67261006      22.29206778        3       0.00000000      -0.06457399      -0.04076074      -0.15215734
Pt       7.01803483       5.67260987      22.29206781        3       0.00000000      -0.00035697       0.00275325       0.00043026
Pt       9.82524821       5.67261060      22.29206810        3       0.00000000       0.06832288      -0.03646962      -0.15017810
Pt      -0.00000049       1.62074561      24.58417352        2       0.00000000      -0.00421929       0.00144230      -0.02644678
Pt       2.80721437       1.62074550      24.58417378        2       0.00000000      -0.01044709      -0.24093530       0.24566190
Pt       5.61442785       1.62074544      24.58417371        2       0.00000000      -0.01623940      -0.00546219      -0.02856283
Pt       1.40360647       4.05186444      24.58417385        2       0.00000000      -0.00159158       0.01029868      -0.05298159
Pt       4.21082100       4.05186404      24.58417381        2       0.00000000      -0.01650646       0.00727051      -0.04685105
Pt       7.01803473       4.05186412      24.58417379        2       0.00000000      -0.00920169       0.01065739      -0.00711612
Pt       2.80721284       6.48298340      24.58417356        2       0.00000000      -0.00539683      -0.00932435      -0.04856636
Pt       5.61442787       6.48298334      24.58417388        2       0.00000000       0.21321838       0.11453431       0.25428969
Pt       8.42164233       6.48298347      24.58417367        2       0.00000000      -0.22019608       0.11697020       0.25389439
Pt      -0.00155400       0.00122746      26.89390850        1       0.00000000      -0.04077298      -0.01413236       0.00970444
Pt       2.79286410      -0.00308122      27.14227669        1       0.00000000       0.03175921       0.02016203       0.00384191
Pt       5.60047142      -0.00414943      26.89582963        1       0.00000000       0.01570803      -0.00534815       0.00490717
Pt       1.39655282       2.43460135      26.89657074        1       0.00000000       0.00385210       0.00258860       0.00348869
Pt       4.20011421       2.43234502      26.89714537        1       0.00000000      -0.00556836       0.00364177      -0.00379350
Pt       7.00235016       2.42790580      26.90711774        1       0.00000000       0.02239059       0.01246594      -0.00113573
Pt       2.79489557       4.86440257      26.91109775        1       0.00000000       0.01218899      -0.00313682       0.00337399
Pt       5.59894029       4.86554114      26.90145007        1       0.00000000       0.01347030      -0.00946851      -0.00894847
Pt       8.41396890       4.85886781      26.90088142        1       0.00000000      -0.00433450       0.01160672      -0.00809896
C        2.79698271       0.03303340      29.22470020        0       1.00000000      -0.01760169      -0.01024131       0.04212172
H        2.89619634       1.08052695      29.54988333        0       0.00000000       0.00342356      -0.04647338      -0.00491095
H        3.64657025      -0.57028849      29.57936534        0       0.00000000      -0.00559182       0.02229449      -0.01798422
H        1.84563497      -0.39508030      29.57651138        0       0.00000000       0.01686172       0.01343766      -0.01682809
