40
Lattice="8.421641763931781 0.0 0.0 4.2108208819658905 7.293355709136913 0.0 0.0 0.0 46.87624170604845" Properties=species:S:1:pos:R:3:tags:I:1:initial_magmoms:R:1:forces:R:3 charge=0 spin=0 energy=-206.8961708719226 free_energy=-206.8961708719226 stress="0.0103750666603446 2.0556963420403918e-07 2.2517207654004778e-08 2.0556963420403918e-07 0.010375230573117733 -4.6494119487761054e-07 2.2517207654004778e-08 -4.6494119487761054e-07 -0.0002851258614100516" pbc="T T T"
Pt       0.00000003       0.00000007      19.95723551        4       0.00000000       0.00000157       0.00000225       0.01344839
Pt       2.80721399      -0.00000008      19.95723555        4       0.00000000      -0.00174244      -0.00490749       0.01744681
Pt       5.61442774      -0.00000012      19.95723554        4       0.00000000       0.00181276      -0.00372681       0.01930147
Pt       1.40360717       2.43111834      19.95723540        4       0.00000000      -0.00414751       0.00031118       0.01924157
Pt       4.21082076       2.43111843      19.95723549        4       0.00000000       0.00000320      -0.00000023       0.02532224
Pt       7.01803486       2.43111843      19.95723547        4       0.00000000       0.00513465       0.00093575       0.01743750
Pt       2.80721421       4.86223732      19.95723529        4       0.00000000      -0.00339669       0.00397827       0.01753044
Pt       5.61442794       4.86223731      19.95723540        4       0.00000000       0.00233288       0.00342149       0.01928693
Pt       8.42164146       4.86223722      19.95723551        4       0.00000000       0.00000332      -0.00000949      -0.03656583
Pt       1.40360717       0.81037261      22.29206807        3       0.00000000      -0.00070544      -0.00287920      -0.00423016
Pt       4.21082122       0.81037254      22.29206808        3       0.00000000       0.00444525      -0.01066927      -0.06767008
Pt       7.01803484       0.81037259      22.29206812        3       0.00000000       0.00282467       0.00088943      -0.00423890
Pt       2.80721436       3.24149112      22.29206782        3       0.00000000      -0.01148842       0.00147654      -0.06745746
Pt       5.61442774       3.24149129      22.29206807        3       0.00000000       0.00703759       0.00922957      -0.06747363
Pt       8.42164142       3.24149141      22.29206809        3       0.00000000      -0.00187968       0.07525910      -0.14862227
Pt       4.21082097       5.67261006      22.29206778        3       0.00000000      -0.00212509       0.00201153      -0.00401436
Pt       7.01803483       5.67260987      22.29206781        3       0.00000000       0.06611484      -0.03602566      -0.14865533
Pt       9.82524821       5.67261060      22.29206810        3       0.00000000      -0.06422816      -0.03925013      -0.14864790
Pt      -0.00000049       1.62074561      24.58417352        2       0.00000000      -0.00460888      -0.24079421       0.25752845
Pt       2.80721437       1.62074550      24.58417378        2       0.00000000      -0.00708796      -0.00739171      -0.01159614
Pt       5.61442785       1.62074544      24.58417371        2       0.00000000       0.00977002      -0.00252460      -0.01162020
Pt       1.40360647       4.05186444      24.58417385        2       0.00000000      -0.01434041       0.00985123      -0.04712693
Pt       4.21082100       4.05186404      24.58417381        2       0.00000000      -0.00271807       0.00973235      -0.01159499
Pt       7.01803473       4.05186412      24.58417379        2       0.00000000       0.01588315       0.00740735      -0.04722922
Pt       2.80721284       6.48298340      24.58417356        2       0.00000000       0.21056052       0.11631721       0.25768360
Pt       5.61442787       6.48298334      24.58417388        2       0.00000000      -0.20590168       0.12436963       0.25759387
Pt       8.42164233       6.48298347      24.58417367        2       0.00000000      -0.00153202      -0.01722805      -0.04700961
Pt       0.00000258      -0.00017499      27.13937955        1       0.00000000      -0.00001623       0.00022005       0.03364498
Pt       2.80832367      -0.00429271      26.89958890        1       0.00000000      -0.01477580       0.00190013      -0.00382575
Pt       5.61041691      -0.00295693      26.89735410        1       0.00000000       0.01552820       0.00199360      -0.00512070
Pt       1.40304516       2.43601823      26.89728936        1       0.00000000      -0.00593635      -0.01456424      -0.00506638
Pt       4.21082416       2.43110703      26.90997756        1       0.00000000      -0.00003382      -0.00010009      -0.01055046
Pt       7.02119156       2.43417986      26.89948717        1       0.00000000       0.00573437      -0.01393784      -0.00401530
Pt       2.80293806       4.86338285      26.89952162        1       0.00000000       0.00905765       0.01190057      -0.00402102
Pt       5.61901490       4.86021526      26.89728106        1       0.00000000      -0.00962436       0.01245121      -0.00498177
Pt       8.42163847       4.86221225      26.91836380        1       0.00000000       0.00004247       0.00000514      -0.01413951
C       -0.00000091       0.00004806      29.22573323        0       1.00000000       0.00004264      -0.00010203      -0.02849401
H        0.52214642       0.90561859      29.56748941        0       0.00000000       0.00198055       0.00383964      -0.00032905
H        0.52303128      -0.90468280      29.56835571        0       0.00000000       0.00255909      -0.00402954      -0.00067320
H       -1.04517986      -0.00055651      29.56792286        0       0.00000000      -0.00458050       0.00063721      -0.00049654
