40
Lattice="8.421641763931781 0.0 0.0 4.2108208819658905 7.293355709136913 0.0 0.0 0.0 46.87624170604845" Properties=species:S:1:pos:R:3:tags:I:1:initial_magmoms:R:1:forces:R:3 charge=0 spin=0 energy=-206.89362074680054 free_energy=-206.89362074680054 stress="0.01016886718571186 -1.481315337059641e-07 1.581451769538944e-08 -1.481315337059641e-07 0.01016897801309824 -3.5775565265794285e-07 1.581451769538944e-08 -3.5775565265794285e-07 -0.0007342976750805974" pbc="T T T"
Pt       0.00000003       0.00000007      19.95723551        4       0.00000000       0.00000335       0.00000142       0.01283521
Pt       2.80721399      -0.00000008      19.95723555        4       0.00000000      -0.00186186      -0.00479695       0.01709274
Pt       5.61442774      -0.00000012      19.95723554        4       0.00000000       0.00186612      -0.00371242       0.01884554
Pt       1.40360717       2.43111834      19.95723540        4       0.00000000      -0.00415869       0.00025126       0.01878538
Pt       4.21082076       2.43111843      19.95723549        4       0.00000000       0.00000145      -0.00000211       0.02499438
Pt       7.01803486       2.43111843      19.95723547        4       0.00000000       0.00509983       0.00077382       0.01708717
Pt       2.80721421       4.86223732      19.95723529        4       0.00000000      -0.00324218       0.00402683       0.01717807
Pt       5.61442794       4.86223731      19.95723540        4       0.00000000       0.00229128       0.00346336       0.01883231
Pt       8.42164146       4.86223722      19.95723551        4       0.00000000       0.00000399      -0.00000348      -0.03730452
Pt       1.40360717       0.81037261      22.29206807        3       0.00000000      -0.00107731      -0.00300059      -0.00333776
Pt       4.21082122       0.81037254      22.29206808        3       0.00000000       0.00436327      -0.01069816      -0.06680963
Pt       7.01803484       0.81037259      22.29206812        3       0.00000000       0.00311392       0.00062109      -0.00337427
Pt       2.80721436       3.24149112      22.29206782        3       0.00000000      -0.01146717       0.00156524      -0.06661861
Pt       5.61442774       3.24149129      22.29206807        3       0.00000000       0.00710168       0.00916620      -0.06663217
Pt       8.42164142       3.24149141      22.29206809        3       0.00000000      -0.00197489       0.07603255      -0.14740932
Pt       4.21082097       5.67261006      22.29206778        3       0.00000000      -0.00204874       0.00238314      -0.00316804
Pt       7.01803483       5.67260987      22.29206781        3       0.00000000       0.06682412      -0.03632725      -0.14741977
Pt       9.82524821       5.67261060      22.29206810        3       0.00000000      -0.06483474      -0.03972206      -0.14743143
Pt      -0.00000049       1.62074561      24.58417352        2       0.00000000      -0.00555540      -0.24305564       0.20536435
Pt       2.80721437       1.62074550      24.58417378        2       0.00000000      -0.00061686      -0.00571227      -0.05533434
Pt       5.61442785       1.62074544      24.58417371        2       0.00000000       0.00495693       0.00220126      -0.05550331
Pt       1.40360647       4.05186444      24.58417385        2       0.00000000      -0.02071113       0.01581061      -0.09085003
Pt       4.21082100       4.05186404      24.58417381        2       0.00000000      -0.00443092       0.00323533      -0.05541638
Pt       7.01803473       4.05186412      24.58417379        2       0.00000000       0.02421587       0.00999989      -0.09095111
Pt       2.80721284       6.48298340      24.58417356        2       0.00000000       0.21300735       0.11661148       0.20545754
Pt       5.61442787       6.48298334      24.58417388        2       0.00000000      -0.20726372       0.12641725       0.20549142
Pt       8.42164233       6.48298347      24.58417367        2       0.00000000      -0.00360004      -0.02567562      -0.09065546
Pt       0.00000492      -0.00010709      27.12248390        1       0.00000000       0.00000659      -0.00007759      -0.02419676
Pt       2.80620712      -0.00439323      26.88837550        1       0.00000000       0.00272111       0.00336342       0.04117091
Pt       5.61143318      -0.00282426      26.88455902        1       0.00000000       0.00180371       0.00297944       0.04696814
Pt       1.40266479       2.43508616      26.88451584        1       0.00000000       0.00164469      -0.00321664       0.04680139
Pt       4.21080893       2.43110924      26.90329483        1       0.00000000       0.00001047      -0.00004265       0.01479504
Pt       7.02233409       2.43239683      26.88817020        1       0.00000000      -0.00422779       0.00062344       0.04147767
Pt       2.80391609       4.86531640      26.88823128        1       0.00000000       0.00153812      -0.00409589       0.04134702
Pt       5.61837290       4.86107216      26.88450396        1       0.00000000      -0.00346738       0.00009903       0.04667637
Pt       8.42164734       4.86222720      26.91311093        1       0.00000000      -0.00002801      -0.00000873       0.00564780
C       -0.00000071      -0.00002917      29.20171422        0       1.00000000       0.00000502       0.00029445      -0.00846149
H        0.52323856       0.90654967      29.53759912        0       0.00000000       0.00146203       0.00232771       0.03822924
H        0.52337517      -0.90623647      29.53842345        0       0.00000000       0.00107171      -0.00208936       0.03779852
H       -1.04661468      -0.00005185      29.53801113        0       0.00000000      -0.00254577      -0.00001105       0.03799826
