40
Lattice="8.421641763931781 0.0 0.0 4.2108208819658905 7.293355709136913 0.0 0.0 0.0 46.87624170604845" Properties=species:S:1:pos:R:3:tags:I:1:initial_magmoms:R:1:forces:R:3 charge=0 spin=0 energy=-206.89734579868042 free_energy=-206.89734579868042 stress="0.010351879522204399 3.158505990086269e-07 -3.443604441599746e-07 3.158505990086269e-07 0.010366164147853851 7.859713150537573e-06 -3.443604441599746e-07 7.859713150537573e-06 -0.0003749214520212263" pbc="T T T"
Pt       0.00000003       0.00000007      19.95723551        4       0.00000000      -0.00001957       0.00015135       0.01350974
Pt       2.80721399      -0.00000008      19.95723555        4       0.00000000      -0.00180619      -0.00460519       0.01711089
Pt       5.61442774      -0.00000012      19.95723554        4       0.00000000       0.00187313      -0.00328715       0.01924600
Pt       1.40360717       2.43111834      19.95723540        4       0.00000000      -0.00404820       0.00053987       0.01905603
Pt       4.21082076       2.43111843      19.95723549        4       0.00000000      -0.00002381       0.00014289       0.02530691
Pt       7.01803486       2.43111843      19.95723547        4       0.00000000       0.00514972       0.00132016       0.01696539
Pt       2.80721421       4.86223732      19.95723529        4       0.00000000      -0.00338291       0.00411434       0.01712892
Pt       5.61442794       4.86223731      19.95723540        4       0.00000000       0.00208315       0.00351039       0.01914303
Pt       8.42164146       4.86223722      19.95723551        4       0.00000000      -0.00005249      -0.00036956      -0.03646211
Pt       1.40360717       0.81037261      22.29206807        3       0.00000000      -0.00051606      -0.00265849      -0.00477845
Pt       4.21082122       0.81037254      22.29206808        3       0.00000000       0.00434883      -0.01032793      -0.06746604
Pt       7.01803484       0.81037259      22.29206812        3       0.00000000       0.00331921       0.00224071      -0.00478619
Pt       2.80721436       3.24149112      22.29206782        3       0.00000000      -0.01163314       0.00243925      -0.06756027
Pt       5.61442774       3.24149129      22.29206807        3       0.00000000       0.00738856       0.01007030      -0.06762709
Pt       8.42164142       3.24149141      22.29206809        3       0.00000000      -0.00189579       0.07567693      -0.14750355
Pt       4.21082097       5.67261006      22.29206778        3       0.00000000      -0.00279278       0.00323682      -0.00309348
Pt       7.01803483       5.67260987      22.29206781        3       0.00000000       0.06650643      -0.03559941      -0.14910519
Pt       9.82524821       5.67261060      22.29206810        3       0.00000000      -0.06461922      -0.03864173      -0.14902964
Pt      -0.00000049       1.62074561      24.58417352        2       0.00000000      -0.00295046      -0.24784641       0.24227940
Pt       2.80721437       1.62074550      24.58417378        2       0.00000000      -0.00257793      -0.00429787      -0.02426237
Pt       5.61442785       1.62074544      24.58417371        2       0.00000000       0.00205033      -0.00480254      -0.02441012
Pt       1.40360647       4.05186444      24.58417385        2       0.00000000      -0.02050681       0.00770882      -0.05505372
Pt       4.21082100       4.05186404      24.58417381        2       0.00000000       0.00021512       0.00414925      -0.01838138
Pt       7.01803473       4.05186412      24.58417379        2       0.00000000       0.01895720       0.01100998      -0.05521192
Pt       2.80721284       6.48298340      24.58417356        2       0.00000000       0.21575668       0.11511479       0.25760585
Pt       5.61442787       6.48298334      24.58417388        2       0.00000000      -0.21266559       0.12079263       0.25741997
Pt       8.42164233       6.48298347      24.58417367        2       0.00000000       0.00179179      -0.02447985      -0.05553979
Pt       0.00004145      -0.00299354      27.14196592        1       0.00000000       0.00008596       0.00189525      -0.01754300
Pt       2.81031400      -0.00592257      26.89434299        1       0.00000000      -0.02003364      -0.00618478       0.01142953
Pt       5.61132529      -0.00466164      26.89410431        1       0.00000000       0.02001686      -0.00571688       0.01180410
Pt       1.40221123       2.43057726      26.89320977        1       0.00000000      -0.00542685      -0.00850884       0.01594055
Pt       4.21082460       2.42861267      26.91273254        1       0.00000000      -0.00009942      -0.00014364      -0.01622455
Pt       7.02047850       2.43106292      26.89351950        1       0.00000000       0.00602326      -0.00806426       0.01533181
Pt       2.80095479       4.85610136      26.89569765        1       0.00000000       0.01741097       0.02813112       0.00818530
Pt       5.61968466       4.85539458      26.89526980        1       0.00000000      -0.01773758       0.02798488       0.00894487
Pt       8.42169976       4.85980053      26.92171655        1       0.00000000      -0.00017702      -0.00032533      -0.02344020
C        0.00005467       0.01023964      29.22413333        0       1.00000000      -0.00025711      -0.00500949       0.01485717
H       -0.90640060      -0.51122568      29.56687096        0       0.00000000       0.01553011       0.00856916       0.00305056
H        0.00076671       1.05730349      29.56381240        0       0.00000000       0.00072304      -0.02688659      -0.00980689
H        0.90564232      -0.51270888      29.56693878        0       0.00000000      -0.01600809       0.00895705       0.00296986
