40
Lattice="8.421641763931781 0.0 0.0 4.2108208819658905 7.293355709136913 0.0 0.0 0.0 46.87624170604845" Properties=species:S:1:pos:R:3:tags:I:1:initial_magmoms:R:1:forces:R:3 charge=0 spin=0 energy=-206.89809920139038 free_energy=-206.89809920139038 stress="0.010362052358686924 -1.4275602211455407e-07 7.896672649110315e-09 -1.4275602211455407e-07 0.010363499633967876 -4.727930900116917e-06 7.896672649110315e-09 -4.727930900116917e-06 -0.0003362641728017479" pbc="T T T"
Pt       0.00000003       0.00000007      19.95723551        4       0.00000000       0.00000253       0.00002281       0.01325179
Pt       2.80721399      -0.00000008      19.95723555        4       0.00000000      -0.00201306      -0.00500836       0.01732690
Pt       5.61442774      -0.00000012      19.95723554        4       0.00000000       0.00202088      -0.00345365       0.01944115
Pt       1.40360717       2.43111834      19.95723540        4       0.00000000      -0.00400037       0.00001530       0.01935692
Pt       4.21082076       2.43111843      19.95723549        4       0.00000000       0.00001542      -0.00000874       0.02545349
Pt       7.01803486       2.43111843      19.95723547        4       0.00000000       0.00533975       0.00078566       0.01729582
Pt       2.80721421       4.86223732      19.95723529        4       0.00000000      -0.00333439       0.00421527       0.01741997
Pt       5.61442794       4.86223731      19.95723540        4       0.00000000       0.00197829       0.00340883       0.01940862
Pt       8.42164146       4.86223722      19.95723551        4       0.00000000       0.00000159      -0.00007576      -0.03686336
Pt       1.40360717       0.81037261      22.29206807        3       0.00000000      -0.00044475      -0.00335945      -0.00321576
Pt       4.21082122       0.81037254      22.29206808        3       0.00000000       0.00422679      -0.01116685      -0.06663327
Pt       7.01803484       0.81037259      22.29206812        3       0.00000000       0.00314576       0.00146754      -0.00319604
Pt       2.80721436       3.24149112      22.29206782        3       0.00000000      -0.01178635       0.00187936      -0.06647066
Pt       5.61442774       3.24149129      22.29206807        3       0.00000000       0.00754643       0.00923592      -0.06649370
Pt       8.42164142       3.24149141      22.29206809        3       0.00000000      -0.00174454       0.07545557      -0.15044114
Pt       4.21082097       5.67261006      22.29206778        3       0.00000000      -0.00270156       0.00194863      -0.00285497
Pt       7.01803483       5.67260987      22.29206781        3       0.00000000       0.06642570      -0.03638989      -0.15064056
Pt       9.82524821       5.67261060      22.29206810        3       0.00000000      -0.06466385      -0.03937031      -0.15057218
Pt      -0.00000049       1.62074561      24.58417352        2       0.00000000      -0.00282367      -0.24464652       0.25057417
Pt       2.80721437       1.62074550      24.58417378        2       0.00000000      -0.01015183      -0.00559167      -0.01562518
Pt       5.61442785       1.62074544      24.58417371        2       0.00000000       0.00994826      -0.00583936      -0.01565527
Pt       1.40360647       4.05186444      24.58417385        2       0.00000000      -0.01158789       0.00337117      -0.04873792
Pt       4.21082100       4.05186404      24.58417381        2       0.00000000       0.00010189       0.01213678      -0.01405112
Pt       7.01803473       4.05186412      24.58417379        2       0.00000000       0.00857357       0.00893632      -0.04883903
Pt       2.80721284       6.48298340      24.58417356        2       0.00000000       0.21172962       0.11894808       0.25116330
Pt       5.61442787       6.48298334      24.58417388        2       0.00000000      -0.20893899       0.12391526       0.25101408
Pt       8.42164233       6.48298347      24.58417367        2       0.00000000       0.00312722      -0.01155682      -0.04798989
Pt      -0.00000759      -0.00208864      27.14289811        1       0.00000000      -0.00002887       0.00401009       0.00570398
Pt       2.80627595      -0.00415043      26.89817303        1       0.00000000       0.00636950      -0.00033125      -0.00235144
Pt       5.61580478      -0.00199627      26.89830310        1       0.00000000      -0.00711676      -0.00239540      -0.00362696
Pt       1.40031638       2.43104675      26.89793921        1       0.00000000       0.00434737       0.00559536      -0.00284876
Pt       4.21082920       2.43130563      26.90565146        1       0.00000000      -0.00006120      -0.00014210      -0.00070430
Pt       7.02293796       2.43252821      26.89782010        1       0.00000000      -0.00567683       0.00384266      -0.00173804
Pt       2.80305185       4.86530179      26.89833069        1       0.00000000      -0.00021732      -0.00701165      -0.00305561
Pt       5.61652189       4.86464138      26.89838108        1       0.00000000       0.00238048      -0.00670998      -0.00418718
Pt       8.42164959       4.86235503      26.91250872        1       0.00000000      -0.00000708      -0.00004869       0.00136594
C       -0.00000384      -0.00079086      29.22671183        0       1.00000000       0.00006774       0.00224174      -0.02302926
H       -0.90543747       0.52365904      29.56523806        0       0.00000000      -0.00030695       0.00060305       0.01092196
H        0.90590051       0.52283751      29.56524274        0       0.00000000       0.00075754       0.00010770       0.01091494
H       -0.00043888      -1.04535211      29.57113804        0       0.00000000      -0.00049996       0.00096333      -0.00079130
