40
Lattice="8.421641763931781 0.0 0.0 4.2108208819658905 7.293355709136913 0.0 0.0 0.0 46.87624170604845" Properties=species:S:1:pos:R:3:tags:I:1:initial_magmoms:R:1:forces:R:3 charge=0 spin=0 energy=-206.89746405429565 free_energy=-206.89746405429565 stress="0.010368087328970432 3.69915392184339e-06 5.641987172566587e-06 3.69915392184339e-06 0.010368398390710354 -3.5828172713081585e-06 5.641987172566587e-06 -3.5828172713081585e-06 -0.0003282856196165085" pbc="T T T"
Pt       0.00000003       0.00000007      19.95723551        4       0.00000000      -0.00011046       0.00039612       0.01314044
Pt       2.80721399      -0.00000008      19.95723555        4       0.00000000      -0.00239778      -0.00471854       0.01710525
Pt       5.61442774      -0.00000012      19.95723554        4       0.00000000       0.00153026      -0.00299873       0.01962581
Pt       1.40360717       2.43111834      19.95723540        4       0.00000000      -0.00449472       0.00042248       0.01945126
Pt       4.21082076       2.43111843      19.95723549        4       0.00000000      -0.00053106       0.00010097       0.02545415
Pt       7.01803486       2.43111843      19.95723547        4       0.00000000       0.00499395       0.00122651       0.01731028
Pt       2.80721421       4.86223732      19.95723529        4       0.00000000      -0.00335327       0.00443332       0.01715703
Pt       5.61442794       4.86223731      19.95723540        4       0.00000000       0.00150799       0.00373716       0.01951810
Pt       8.42164146       4.86223722      19.95723551        4       0.00000000       0.00015331      -0.00016399      -0.03689960
Pt       1.40360717       0.81037261      22.29206807        3       0.00000000      -0.00171386      -0.00209613      -0.00287174
Pt       4.21082122       0.81037254      22.29206808        3       0.00000000       0.00311835      -0.01047125      -0.06629462
Pt       7.01803484       0.81037259      22.29206812        3       0.00000000       0.00153726       0.00278134      -0.00564327
Pt       2.80721436       3.24149112      22.29206782        3       0.00000000      -0.01290816       0.00341328      -0.06663761
Pt       5.61442774       3.24149129      22.29206807        3       0.00000000       0.00619054       0.01013901      -0.06613023
Pt       8.42164142       3.24149141      22.29206809        3       0.00000000      -0.00292213       0.07670852      -0.14931174
Pt       4.21082097       5.67261006      22.29206778        3       0.00000000      -0.00406239       0.00358929      -0.00155989
Pt       7.01803483       5.67260987      22.29206781        3       0.00000000       0.06643363      -0.03572101      -0.15135925
Pt       9.82524821       5.67261060      22.29206810        3       0.00000000      -0.06496500      -0.03783943      -0.15238239
Pt      -0.00000049       1.62074561      24.58417352        2       0.00000000       0.00699963      -0.24359025       0.25343540
Pt       2.80721437       1.62074550      24.58417378        2       0.00000000      -0.00809160      -0.00628454      -0.01556424
Pt       5.61442785       1.62074544      24.58417371        2       0.00000000       0.01231067      -0.00796162      -0.01648292
Pt       1.40360647       4.05186444      24.58417385        2       0.00000000      -0.01143629      -0.00765503      -0.03609915
Pt       4.21082100       4.05186404      24.58417381        2       0.00000000       0.00890418       0.00852567      -0.00924873
Pt       7.01803473       4.05186412      24.58417379        2       0.00000000       0.01502949       0.00781110      -0.04504594
Pt       2.80721284       6.48298340      24.58417356        2       0.00000000       0.21561539       0.11345041       0.25171691
Pt       5.61442787       6.48298334      24.58417388        2       0.00000000      -0.20999743       0.11611477       0.25323772
Pt       8.42164233       6.48298347      24.58417367        2       0.00000000       0.00499598      -0.01467941      -0.04415862
Pt       0.00488410      -0.00653201      27.14321573        1       0.00000000      -0.00932563       0.00299012      -0.01142627
Pt       2.80423974      -0.00865897      26.89739678        1       0.00000000       0.03540053      -0.00452251       0.00092877
Pt       5.62011897      -0.00506618      26.89756539        1       0.00000000      -0.00595529      -0.00880083      -0.00286833
Pt       1.40846253       2.42214422      26.90431019        1       0.00000000      -0.01397972       0.03278469      -0.02016144
Pt       4.21469930       2.42451044      26.90638683        1       0.00000000       0.00478830       0.00937300      -0.00270979
Pt       7.02935686       2.42833994      26.89625021        1       0.00000000      -0.00713746       0.00929249       0.00092542
Pt       2.80920833       4.85804567      26.89724871        1       0.00000000      -0.00814335       0.00001000      -0.00325695
Pt       5.62475315       4.85820947      26.90132186        1       0.00000000      -0.01355029      -0.00412392      -0.01306430
Pt       8.42871057       4.86132143      26.91462017        1       0.00000000      -0.00370363      -0.01540369      -0.00822006
C       -0.00049733      -0.00922409      29.22475193        0       1.00000000      -0.01757920       0.01236370       0.01461627
H       -0.13597033      -1.04576328      29.56421091        0       0.00000000      -0.00071616      -0.03079031       0.00794902
H       -0.83433048       0.62240877      29.56570380        0       0.00000000       0.01297945       0.00467921      -0.00112093
H        0.96271079       0.39091269      29.57320816        0       0.00000000       0.00458591       0.01347811      -0.00305362
