40
Lattice="8.421641763931781 0.0 0.0 4.2108208819658905 7.293355709136913 0.0 0.0 0.0 46.87624170604845" Properties=species:S:1:pos:R:3:tags:I:1:initial_magmoms:R:1:forces:R:3 charge=0 spin=0 energy=-206.89640166110718 free_energy=-206.89640166110718 stress="0.010357780382037163 9.667808598123884e-08 1.100820856692053e-08 9.667808598123884e-08 0.010357965715229511 -2.0146732992998295e-07 1.100820856692053e-08 -2.0146732992998295e-07 -0.0003387578180991113" pbc="T T T"
Pt       0.00000003       0.00000007      19.95723551        4       0.00000000       0.00000135       0.00000312       0.01323998
Pt       2.80721399      -0.00000008      19.95723555        4       0.00000000      -0.00199692      -0.00478700       0.01739887
Pt       5.61442774      -0.00000012      19.95723554        4       0.00000000       0.00195985      -0.00351619       0.01924768
Pt       1.40360717       2.43111834      19.95723540        4       0.00000000      -0.00403913       0.00008063       0.01918871
Pt       4.21082076       2.43111843      19.95723549        4       0.00000000       0.00000235       0.00000025       0.02534319
Pt       7.01803486       2.43111843      19.95723547        4       0.00000000       0.00515955       0.00065727       0.01738965
Pt       2.80721421       4.86223732      19.95723529        4       0.00000000      -0.00316828       0.00413834       0.01748454
Pt       5.61442794       4.86223731      19.95723540        4       0.00000000       0.00207807       0.00344332       0.01923589
Pt       8.42164146       4.86223722      19.95723551        4       0.00000000       0.00000314      -0.00000938      -0.03679986
Pt       1.40360717       0.81037261      22.29206807        3       0.00000000      -0.00051039      -0.00279770      -0.00272849
Pt       4.21082122       0.81037254      22.29206808        3       0.00000000       0.00453616      -0.01114713      -0.06708156
Pt       7.01803484       0.81037259      22.29206812        3       0.00000000       0.00265700       0.00101806      -0.00275016
Pt       2.80721436       3.24149112      22.29206782        3       0.00000000      -0.01194320       0.00164159      -0.06686565
Pt       5.61442774       3.24149129      22.29206807        3       0.00000000       0.00740954       0.00954536      -0.06688607
Pt       8.42164142       3.24149141      22.29206809        3       0.00000000      -0.00188000       0.07582842      -0.15043873
Pt       4.21082097       5.67261006      22.29206778        3       0.00000000      -0.00215178       0.00180155      -0.00251309
Pt       7.01803483       5.67260987      22.29206781        3       0.00000000       0.06660797      -0.03630588      -0.15046863
Pt       9.82524821       5.67261060      22.29206810        3       0.00000000      -0.06471889      -0.03953379      -0.15046218
Pt      -0.00000049       1.62074561      24.58417352        2       0.00000000      -0.00457687      -0.24401563       0.25212294
Pt       2.80721437       1.62074550      24.58417378        2       0.00000000      -0.00774436      -0.00833970      -0.01743269
Pt       5.61442785       1.62074544      24.58417371        2       0.00000000       0.01090653      -0.00260805      -0.01746634
Pt       1.40360647       4.05186444      24.58417385        2       0.00000000      -0.00893558       0.00662429      -0.04887060
Pt       4.21082100       4.05186404      24.58417381        2       0.00000000      -0.00323146       0.01074949      -0.01742370
Pt       7.01803473       4.05186412      24.58417379        2       0.00000000       0.01040680       0.00432577      -0.04897476
Pt       2.80721284       6.48298340      24.58417356        2       0.00000000       0.21334942       0.11794119       0.25228435
Pt       5.61442787       6.48298334      24.58417388        2       0.00000000      -0.20870754       0.12596418       0.25219643
Pt       8.42164233       6.48298347      24.58417367        2       0.00000000      -0.00147289      -0.01096450      -0.04878400
Pt       0.00000098      -0.00016857      27.14295900        1       0.00000000       0.00000639       0.00018747       0.00642971
Pt       2.80490398      -0.00437709      26.89929864        1       0.00000000       0.00534565       0.00134343      -0.00272141
Pt       5.61405480      -0.00221893      26.89680853        1       0.00000000      -0.00526325      -0.00070607      -0.00272540
Pt       1.40187852       2.43247974      26.89676258        1       0.00000000       0.00205666       0.00478172      -0.00292378
Pt       4.21081899       2.43109004      26.90577311        1       0.00000000      -0.00001522      -0.00004111       0.00101637
Pt       7.02296814       2.43123151      26.89919335        1       0.00000000      -0.00382662       0.00393577      -0.00256369
Pt       2.80458236       4.86638782      26.89923193        1       0.00000000      -0.00150531      -0.00538289      -0.00275669
Pt       5.61653878       4.86298796      26.89673904        1       0.00000000       0.00319918      -0.00417054      -0.00299945
Pt       8.42164282       4.86220461      26.91168118        1       0.00000000       0.00000752      -0.00001854       0.00235449
C        0.00000053       0.00006834      29.22682826        0       1.00000000       0.00000173      -0.00021303      -0.01421050
H       -1.04526966       0.00062237      29.56851846        0       0.00000000      -0.00567490       0.00033807       0.00397768
H        0.52314631       0.90516283      29.56809296        0       0.00000000       0.00274698       0.00501517       0.00416333
H        0.52212375      -0.90529760      29.56894811        0       0.00000000       0.00292058      -0.00480737       0.00377378
