40
Lattice="8.421641763931781 0.0 0.0 4.2108208819658905 7.293355709136913 0.0 0.0 0.0 46.87624170604845" Properties=species:S:1:pos:R:3:tags:I:1:initial_magmoms:R:1:forces:R:3 charge=0 spin=0 energy=-206.89748694247925 free_energy=-206.89748694247925 stress="0.0103616863489151 -8.143396144077997e-07 4.208490054224967e-07 -8.143396144077997e-07 0.01035347767174244 -7.136629392334726e-06 4.208490054224967e-07 -7.136629392334726e-06 -0.0003748989838641137" pbc="T T T"
Pt       0.00000003       0.00000007      19.95723551        4       0.00000000       0.00002123      -0.00014807       0.01359816
Pt       2.80721399      -0.00000008      19.95723555        4       0.00000000      -0.00158800      -0.00548425       0.01704340
Pt       5.61442774      -0.00000012      19.95723554        4       0.00000000       0.00176662      -0.00394282       0.01914687
Pt       1.40360717       2.43111834      19.95723540        4       0.00000000      -0.00405634      -0.00008646       0.01923483
Pt       4.21082076       2.43111843      19.95723549        4       0.00000000       0.00002695      -0.00016784       0.02544210
Pt       7.01803486       2.43111843      19.95723547        4       0.00000000       0.00531053       0.00070090       0.01718464
Pt       2.80721421       4.86223732      19.95723529        4       0.00000000      -0.00366001       0.00389441       0.01720404
Pt       5.61442794       4.86223731      19.95723540        4       0.00000000       0.00235200       0.00323122       0.01923725
Pt       8.42164146       4.86223722      19.95723551        4       0.00000000       0.00006082       0.00038329      -0.03661300
Pt       1.40360717       0.81037261      22.29206807        3       0.00000000      -0.00060556      -0.00446205      -0.00409655
Pt       4.21082122       0.81037254      22.29206808        3       0.00000000       0.00413902      -0.01140986      -0.06762102
Pt       7.01803484       0.81037259      22.29206812        3       0.00000000       0.00328752       0.00038128      -0.00414394
Pt       2.80721436       3.24149112      22.29206782        3       0.00000000      -0.01144938       0.00096869      -0.06713609
Pt       5.61442774       3.24149129      22.29206807        3       0.00000000       0.00717379       0.00815275      -0.06712356
Pt       8.42164142       3.24149141      22.29206809        3       0.00000000      -0.00171922       0.07505532      -0.14964689
Pt       4.21082097       5.67261006      22.29206778        3       0.00000000      -0.00272889       0.00114914      -0.00544495
Pt       7.01803483       5.67260987      22.29206781        3       0.00000000       0.06576483      -0.03672180      -0.14800684
Pt       9.82524821       5.67261060      22.29206810        3       0.00000000      -0.06403720      -0.03988051      -0.14805795
Pt      -0.00000049       1.62074561      24.58417352        2       0.00000000      -0.00366087      -0.24353258       0.26056218
Pt       2.80721437       1.62074550      24.58417378        2       0.00000000      -0.00838746      -0.00163730      -0.01744922
Pt       5.61442785       1.62074544      24.58417371        2       0.00000000       0.00844538      -0.00149877      -0.01736482
Pt       1.40360647       4.05186444      24.58417385        2       0.00000000      -0.02260782       0.01207654      -0.05659368
Pt       4.21082100       4.05186404      24.58417381        2       0.00000000       0.00021691       0.00820172      -0.02297501
Pt       7.01803473       4.05186412      24.58417379        2       0.00000000       0.01994848       0.01649890      -0.05661175
Pt       2.80721284       6.48298340      24.58417356        2       0.00000000       0.21318918       0.12512881       0.24505609
Pt       5.61442787       6.48298334      24.58417388        2       0.00000000      -0.20948729       0.13115995       0.24508077
Pt       8.42164233       6.48298347      24.58417367        2       0.00000000       0.00245884      -0.02210325      -0.05601729
Pt       0.00001342       0.00330609      27.14204352        1       0.00000000      -0.00013826      -0.00171895      -0.01724277
Pt       2.81103466      -0.00189847      26.89487609        1       0.00000000      -0.02196005       0.00525022       0.01165836
Pt       5.61112611      -0.00073468      26.89422309        1       0.00000000       0.02100419       0.00569161       0.01283328
Pt       1.40359090       2.44050217      26.89509585        1       0.00000000      -0.01605320      -0.02852350       0.00852731
Pt       4.21083533       2.43346692      26.91094788        1       0.00000000       0.00009684       0.00111187      -0.01407148
Pt       7.01890815       2.44155318      26.89563048        1       0.00000000       0.01662832      -0.02900628       0.00749623
Pt       2.80309346       4.86643313      26.89345741        1       0.00000000       0.00324208       0.00943478       0.01499812
Pt       5.61729374       4.86630611      26.89297511        1       0.00000000      -0.00321440       0.00847248       0.01541076
Pt       8.42159986       4.86508009      26.92288921        1       0.00000000       0.00022744      -0.00032831      -0.02437869
C       -0.00002946      -0.00998226      29.22411808        0       1.00000000       0.00023748       0.00487852       0.01374863
H        0.90640452       0.51139245      29.56706722        0       0.00000000      -0.01494962      -0.00887842       0.00268358
H       -0.00074524      -1.05724847      29.56315303        0       0.00000000      -0.00089039       0.02675277      -0.00824126
H       -0.90562136       0.51287020      29.56707237        0       0.00000000       0.01559532      -0.00904415       0.00269011
