40
Lattice="8.421641763931781 0.0 0.0 4.2108208819658905 7.293355709136913 0.0 0.0 0.0 46.87624170604845" Properties=species:S:1:pos:R:3:tags:I:1:initial_magmoms:R:1:forces:R:3 charge=0 spin=0 energy=-206.89795233554565 free_energy=-206.89795233554565 stress="0.010357302613556385 -5.310915796030713e-08 -1.1293585622240698e-08 -5.310915796030713e-08 0.010355466976761818 -2.8772979021596257e-06 -1.1293585622240698e-08 -2.8772979021596257e-06 -0.0003519797755870968" pbc="T T T"
Pt       0.00000003       0.00000007      19.95723551        4       0.00000000       0.00000867       0.00003045       0.01322327
Pt       2.80721399      -0.00000008      19.95723555        4       0.00000000      -0.00193238      -0.00484243       0.01727453
Pt       5.61442774      -0.00000012      19.95723554        4       0.00000000       0.00198433      -0.00339379       0.01937469
Pt       1.40360717       2.43111834      19.95723540        4       0.00000000      -0.00387221      -0.00004936       0.01924971
Pt       4.21082076       2.43111843      19.95723549        4       0.00000000       0.00002781      -0.00001461       0.02528180
Pt       7.01803486       2.43111843      19.95723547        4       0.00000000       0.00510163       0.00069699       0.01720050
Pt       2.80721421       4.86223732      19.95723529        4       0.00000000      -0.00317390       0.00404758       0.01732164
Pt       5.61442794       4.86223731      19.95723540        4       0.00000000       0.00190009       0.00331651       0.01930294
Pt       8.42164146       4.86223722      19.95723551        4       0.00000000      -0.00000272      -0.00017582      -0.03670524
Pt       1.40360717       0.81037261      22.29206807        3       0.00000000      -0.00035005      -0.00342647      -0.00273425
Pt       4.21082122       0.81037254      22.29206808        3       0.00000000       0.00445734      -0.01138508      -0.06719141
Pt       7.01803484       0.81037259      22.29206812        3       0.00000000       0.00308732       0.00148264      -0.00275632
Pt       2.80721436       3.24149112      22.29206782        3       0.00000000      -0.01208225       0.00175031      -0.06724659
Pt       5.61442774       3.24149129      22.29206807        3       0.00000000       0.00758155       0.00947597      -0.06725734
Pt       8.42164142       3.24149141      22.29206809        3       0.00000000      -0.00184397       0.07541893      -0.15036567
Pt       4.21082097       5.67261006      22.29206778        3       0.00000000      -0.00275793       0.00180075      -0.00234891
Pt       7.01803483       5.67260987      22.29206781        3       0.00000000       0.06681810      -0.03662959      -0.15041332
Pt       9.82524821       5.67261060      22.29206810        3       0.00000000      -0.06495199      -0.03976348      -0.15032944
Pt      -0.00000049       1.62074561      24.58417352        2       0.00000000      -0.00280936      -0.24462922       0.25447056
Pt       2.80721437       1.62074550      24.58417378        2       0.00000000      -0.00858892      -0.00464507      -0.02165379
Pt       5.61442785       1.62074544      24.58417371        2       0.00000000       0.00835982      -0.00490007      -0.02165020
Pt       1.40360647       4.05186444      24.58417385        2       0.00000000      -0.01192083       0.00513243      -0.04681911
Pt       4.21082100       4.05186404      24.58417381        2       0.00000000       0.00013760       0.00953378      -0.02138896
Pt       7.01803473       4.05186412      24.58417379        2       0.00000000       0.01004755       0.00873531      -0.04697603
Pt       2.80721284       6.48298340      24.58417356        2       0.00000000       0.21195115       0.11999846       0.25290444
Pt       5.61442787       6.48298334      24.58417388        2       0.00000000      -0.20913371       0.12494929       0.25271299
Pt       8.42164233       6.48298347      24.58417367        2       0.00000000       0.00195792      -0.01235647      -0.04577266
Pt      -0.00002557      -0.00371669      27.14350327        1       0.00000000       0.00008801       0.01766281      -0.01280143
Pt       2.80654267      -0.00282926      26.89802699        1       0.00000000       0.00422746      -0.00422881      -0.00175754
Pt       5.61504981      -0.00110760      26.89773667        1       0.00000000      -0.00424450      -0.00496892      -0.00111030
Pt       1.40189616       2.43191999      26.89729651        1       0.00000000      -0.00377879       0.00206196      -0.00063289
Pt       4.21080052       2.43145197      26.90537444        1       0.00000000       0.00014392      -0.00092847       0.00430355
Pt       7.02129068       2.43277050      26.89753126        1       0.00000000       0.00287874       0.00154266      -0.00129071
Pt       2.80446772       4.86509541      26.89788484        1       0.00000000      -0.00710804      -0.00567890      -0.00113023
Pt       5.61572507       4.86422789      26.89752684        1       0.00000000       0.00771860      -0.00537347      -0.00052148
Pt       8.42164226       4.86257464      26.91409801        1       0.00000000       0.00009862      -0.00093498      -0.00599131
C        0.00001533      -0.00121954      29.22528983        0       1.00000000      -0.00050698       0.00633644       0.01185523
H       -0.90538683      -0.52210873      29.56918666        0       0.00000000      -0.00642132      -0.00673717       0.00021580
H        0.00055558       1.04430797      29.56635910        0       0.00000000       0.00050591       0.00800201       0.00175328
H        0.90480273      -0.52317078      29.56917166        0       0.00000000       0.00639765      -0.00691318       0.00040004
