40
Lattice="8.421641763931781 0.0 0.0 4.2108208819658905 7.293355709136913 0.0 0.0 0.0 46.87624170604845" Properties=species:S:1:pos:R:3:tags:I:1:initial_magmoms:R:1:forces:R:3 charge=0 spin=0 energy=-206.89431311435425 free_energy=-206.89431311435425 stress="0.010363912209868431 -9.24451796890935e-06 -7.688438927289099e-06 -9.24451796890935e-06 0.010265378281474113 1.4165363609208725e-05 -7.688438927289099e-06 1.4165363609208725e-05 -0.0004109125875402242" pbc="T T T"
Pt       0.00000003       0.00000007      19.95723551        4       0.00000000       0.00009816      -0.00161912       0.01313682
Pt       2.80721399      -0.00000008      19.95723555        4       0.00000000      -0.00133528      -0.00667535       0.01696299
Pt       5.61442774      -0.00000012      19.95723554        4       0.00000000       0.00217866      -0.00477976       0.01926087
Pt       1.40360717       2.43111834      19.95723540        4       0.00000000      -0.00380570      -0.00139656       0.01933733
Pt       4.21082076       2.43111843      19.95723549        4       0.00000000       0.00023304      -0.00147282       0.02518375
Pt       7.01803486       2.43111843      19.95723547        4       0.00000000       0.00554903      -0.00071264       0.01723369
Pt       2.80721421       4.86223732      19.95723529        4       0.00000000      -0.00332967       0.00255213       0.01755792
Pt       5.61442794       4.86223731      19.95723540        4       0.00000000       0.00225190       0.00160732       0.01940620
Pt       8.42164146       4.86223722      19.95723551        4       0.00000000      -0.00009134       0.00025010      -0.03693885
Pt       1.40360717       0.81037261      22.29206807        3       0.00000000      -0.00067186      -0.01029820      -0.00491172
Pt       4.21082122       0.81037254      22.29206808        3       0.00000000       0.00380176      -0.01633839      -0.06728594
Pt       7.01803484       0.81037259      22.29206812        3       0.00000000       0.00473391      -0.00349555      -0.00192481
Pt       2.80721436       3.24149112      22.29206782        3       0.00000000      -0.01207421      -0.00421202      -0.06545521
Pt       5.61442774       3.24149129      22.29206807        3       0.00000000       0.00830438       0.00321237      -0.06690381
Pt       8.42164142       3.24149141      22.29206809        3       0.00000000      -0.00160141       0.07221012      -0.15141466
Pt       4.21082097       5.67261006      22.29206778        3       0.00000000      -0.00249160      -0.00441430      -0.00640029
Pt       7.01803483       5.67260987      22.29206781        3       0.00000000       0.06453732      -0.04070359      -0.14833473
Pt       9.82524821       5.67261060      22.29206810        3       0.00000000      -0.06454580      -0.04416965      -0.14667693
Pt      -0.00000049       1.62074561      24.58417352        2       0.00000000      -0.00767183      -0.22906195       0.26163074
Pt       2.80721437       1.62074550      24.58417378        2       0.00000000      -0.00707306       0.02204170      -0.02658593
Pt       5.61442785       1.62074544      24.58417371        2       0.00000000       0.00742012       0.01293148      -0.01539771
Pt       1.40360647       4.05186444      24.58417385        2       0.00000000      -0.01587573       0.02482538      -0.06183031
Pt       4.21082100       4.05186404      24.58417381        2       0.00000000      -0.00227017       0.03093800      -0.02653690
Pt       7.01803473       4.05186412      24.58417379        2       0.00000000       0.01263955       0.02736724      -0.05839802
Pt       2.80721284       6.48298340      24.58417356        2       0.00000000       0.20056511       0.13593109       0.24160515
Pt       5.61442787       6.48298334      24.58417388        2       0.00000000      -0.20579477       0.14228472       0.23478173
Pt       8.42164233       6.48298347      24.58417367        2       0.00000000       0.01141932      -0.00053361      -0.05728252
Pt      -0.00537303       0.01761318      27.13489805        1       0.00000000       0.00837224      -0.00071799       0.00686506
Pt       2.81235373       0.02174355      26.89164660        1       0.00000000      -0.01661049      -0.01615809       0.01667205
Pt       5.61282749       0.02346168      26.89850840        1       0.00000000       0.00212214      -0.01690878       0.00467777
Pt       1.39917158       2.45437547      26.89445369        1       0.00000000      -0.00234138      -0.02397481       0.01220942
Pt       4.21132602       2.46258152      26.90767492        1       0.00000000      -0.00616472      -0.04050312      -0.00136068
Pt       7.01875211       2.45906163      26.89987727        1       0.00000000       0.00647287      -0.02303462      -0.01141632
Pt       2.79817475       4.88506100      26.89813279        1       0.00000000       0.00979855      -0.00141119      -0.00506672
Pt       5.61724865       4.88732031      26.89416000        1       0.00000000      -0.00413296       0.00036057       0.01539542
Pt       8.42154528       4.88388474      26.91468128        1       0.00000000      -0.00444954      -0.00094161      -0.00103219
C        0.00038702       0.01197078      29.21786550        0       1.00000000       0.04227751       0.01176478      -0.01216313
H       -0.50743368       0.92437145      29.55952963        0       0.00000000      -0.00747273       0.03769111       0.02133751
H        1.04987298      -0.00078439      29.54673675        0       0.00000000      -0.00547757       0.00717992       0.02711585
H       -0.52982019      -0.88243823      29.57315457        0       0.00000000      -0.01749398      -0.03961429      -0.01705250
