40
Lattice="8.421641763931781 0.0 0.0 4.2108208819658905 7.293355709136913 0.0 0.0 0.0 46.87624170604845" Properties=species:S:1:pos:R:3:tags:I:1:initial_magmoms:R:1:forces:R:3 charge=0 spin=0 energy=-206.896111744115 free_energy=-206.896111744115 stress="0.01036420464515686 1.29155424133387e-07 6.193612733795817e-09 1.29155424133387e-07 0.01036433968693018 -4.1576009834898286e-07 6.193612733795817e-09 -4.1576009834898286e-07 -0.00032737350556999445" pbc="T T T"
Pt       0.00000003       0.00000007      19.95723551        4       0.00000000       0.00000138       0.00000215       0.01359241
Pt       2.80721399      -0.00000008      19.95723555        4       0.00000000      -0.00179105      -0.00489159       0.01722688
Pt       5.61442774      -0.00000012      19.95723554        4       0.00000000       0.00184468      -0.00364315       0.01908625
Pt       1.40360717       2.43111834      19.95723540        4       0.00000000      -0.00409093       0.00024193       0.01902804
Pt       4.21082076       2.43111843      19.95723549        4       0.00000000       0.00000213      -0.00000039       0.02544117
Pt       7.01803486       2.43111843      19.95723547        4       0.00000000       0.00514618       0.00088472       0.01721897
Pt       2.80721421       4.86223732      19.95723529        4       0.00000000      -0.00335955       0.00401202       0.01731170
Pt       5.61442794       4.86223731      19.95723540        4       0.00000000       0.00224398       0.00340694       0.01907361
Pt       8.42164146       4.86223722      19.95723551        4       0.00000000       0.00000325      -0.00000710      -0.03645274
Pt       1.40360717       0.81037261      22.29206807        3       0.00000000      -0.00058784      -0.00292947      -0.00398404
Pt       4.21082122       0.81037254      22.29206808        3       0.00000000       0.00450385      -0.01092725      -0.06746398
Pt       7.01803484       0.81037259      22.29206812        3       0.00000000       0.00280590       0.00101353      -0.00399448
Pt       2.80721436       3.24149112      22.29206782        3       0.00000000      -0.01173816       0.00155203      -0.06724511
Pt       5.61442774       3.24149129      22.29206807        3       0.00000000       0.00723070       0.00940548      -0.06726436
Pt       8.42164142       3.24149141      22.29206809        3       0.00000000      -0.00189974       0.07547446      -0.14932410
Pt       4.21082097       5.67261006      22.29206778        3       0.00000000      -0.00222256       0.00193384      -0.00376895
Pt       7.01803483       5.67260987      22.29206781        3       0.00000000       0.06630673      -0.03611299      -0.14934944
Pt       9.82524821       5.67261060      22.29206810        3       0.00000000      -0.06440101      -0.03937356      -0.14934012
Pt      -0.00000049       1.62074561      24.58417352        2       0.00000000      -0.00533881      -0.24700484       0.25662538
Pt       2.80721437       1.62074550      24.58417378        2       0.00000000      -0.00422359      -0.00634970      -0.01665387
Pt       5.61442785       1.62074544      24.58417371        2       0.00000000       0.00745648      -0.00052116      -0.01666482
Pt       1.40360647       4.05186444      24.58417385        2       0.00000000      -0.01651894       0.01168424      -0.05049113
Pt       4.21082100       4.05186404      24.58417381        2       0.00000000      -0.00328449       0.00674063      -0.01663085
Pt       7.01803473       4.05186412      24.58417379        2       0.00000000       0.01857004       0.00837128      -0.05059218
Pt       2.80721284       6.48298340      24.58417356        2       0.00000000       0.21633193       0.11879147       0.25673929
Pt       5.61442787       6.48298334      24.58417388        2       0.00000000      -0.21094437       0.12811472       0.25664148
Pt       8.42164233       6.48298347      24.58417367        2       0.00000000      -0.00203569      -0.02004482      -0.05043961
Pt       0.00000034      -0.00013498      27.14583694        1       0.00000000       0.00000162       0.00006485      -0.01020788
Pt       2.80842581      -0.00360238      26.89736573        1       0.00000000      -0.01634876      -0.00214827       0.00531390
Pt       5.61097834      -0.00253773      26.89420328        1       0.00000000       0.01543668      -0.00126844       0.00725870
Pt       1.40312981       2.43532990      26.89416272        1       0.00000000      -0.00873552      -0.01281134       0.00723243
Pt       4.21082077       2.43110346      26.91232555        1       0.00000000      -0.00001547      -0.00004479      -0.01693719
Pt       7.02054597       2.43392660      26.89729329        1       0.00000000       0.00995907      -0.01320958       0.00499952
Pt       2.80348426       4.86296115      26.89732511        1       0.00000000       0.00639656       0.01525065       0.00504857
Pt       5.61836446       4.86049817      26.89414531        1       0.00000000      -0.00671594       0.01399354       0.00733006
Pt       8.42164411       4.86222200      26.92030283        1       0.00000000       0.00001351      -0.00003196      -0.02096553
C       -0.00000034       0.00001786      29.22939338        0       1.00000000      -0.00003674       0.00006416      -0.02154725
H        0.52274174      -0.90479404      29.57151428        0       0.00000000       0.00581956      -0.00995922       0.00459418
H       -1.04509068      -0.00024231      29.57111915        0       0.00000000      -0.01145809       0.00033496       0.00470927
H        0.52234581       0.90535274      29.57072733        0       0.00000000       0.00567284       0.00994202       0.00484558
