40
Lattice="8.421641763931781 0.0 0.0 4.2108208819658905 7.293355709136913 0.0 0.0 0.0 46.87624170604845" Properties=species:S:1:pos:R:3:tags:I:1:initial_magmoms:R:1:forces:R:3 charge=0 spin=0 energy=-206.89051558322632 free_energy=-206.89051558322632 stress="0.010426009073853493 2.8132124043622753e-06 1.3053786460659467e-05 2.8132124043622753e-06 0.0102980462834239 7.51536208554171e-05 1.3053786460659467e-05 7.51536208554171e-05 -0.00036001589614897966" pbc="T T T"
Pt       0.00000003       0.00000007      19.95723551        4       0.00000000      -0.00035367      -0.00265992       0.01300427
Pt       2.80721399      -0.00000008      19.95723555        4       0.00000000      -0.00185414      -0.00801359       0.01649629
Pt       5.61442774      -0.00000012      19.95723554        4       0.00000000       0.00176360      -0.00592419       0.01869053
Pt       1.40360717       2.43111834      19.95723540        4       0.00000000      -0.00406018      -0.00308624       0.01917800
Pt       4.21082076       2.43111843      19.95723549        4       0.00000000      -0.00028692      -0.00289028       0.02527270
Pt       7.01803486       2.43111843      19.95723547        4       0.00000000       0.00531786      -0.00264003       0.01731104
Pt       2.80721421       4.86223732      19.95723529        4       0.00000000      -0.00339832       0.00146260       0.01753042
Pt       5.61442794       4.86223731      19.95723540        4       0.00000000       0.00148378       0.00097747       0.01935648
Pt       8.42164146       4.86223722      19.95723551        4       0.00000000       0.00016486       0.00119440      -0.03698995
Pt       1.40360717       0.81037261      22.29206807        3       0.00000000      -0.00272724      -0.01456108      -0.00025238
Pt       4.21082122       0.81037254      22.29206808        3       0.00000000       0.00213319      -0.02155530      -0.06624869
Pt       7.01803484       0.81037259      22.29206812        3       0.00000000       0.00190314      -0.00750485      -0.00006067
Pt       2.80721436       3.24149112      22.29206782        3       0.00000000      -0.01459237      -0.00904668      -0.06543758
Pt       5.61442774       3.24149129      22.29206807        3       0.00000000       0.00678622      -0.00104757      -0.06783196
Pt       8.42164142       3.24149141      22.29206809        3       0.00000000      -0.00341971       0.07225754      -0.15785830
Pt       4.21082097       5.67261006      22.29206778        3       0.00000000      -0.00471300      -0.01037768      -0.00821351
Pt       7.01803483       5.67260987      22.29206781        3       0.00000000       0.06249377      -0.04552963      -0.14889011
Pt       9.82524821       5.67261060      22.29206810        3       0.00000000      -0.06429069      -0.04829419      -0.14706135
Pt      -0.00000049       1.62074561      24.58417352        2       0.00000000       0.00014857      -0.22387445       0.27425310
Pt       2.80721437       1.62074550      24.58417378        2       0.00000000      -0.00228196       0.03579732      -0.01519468
Pt       5.61442785       1.62074544      24.58417371        2       0.00000000       0.01582661       0.02794844      -0.00684048
Pt       1.40360647       4.05186444      24.58417385        2       0.00000000      -0.00341877       0.03931304      -0.05672194
Pt       4.21082100       4.05186404      24.58417381        2       0.00000000       0.00304180       0.04682809      -0.01302185
Pt       7.01803473       4.05186412      24.58417379        2       0.00000000       0.01132490       0.04176180      -0.05691079
Pt       2.80721284       6.48298340      24.58417356        2       0.00000000       0.21455395       0.15518415       0.24054280
Pt       5.61442787       6.48298334      24.58417388        2       0.00000000      -0.20302947       0.16377868       0.23860380
Pt       8.42164233       6.48298347      24.58417367        2       0.00000000       0.01054457       0.03174477      -0.05468062
Pt       0.00665241       0.04918445      27.14678161        1       0.00000000       0.00621041      -0.03521119      -0.01237015
Pt       2.81295977       0.04064180      26.89753626        1       0.00000000       0.02221266      -0.01399399       0.00346895
Pt       5.62638143       0.03704282      26.89956338        1       0.00000000      -0.02732708       0.00650477       0.00585000
Pt       1.40450276       2.47485717      26.89629735        1       0.00000000       0.02225827      -0.02050747       0.01396835
Pt       4.22203963       2.47574018      26.90740502        1       0.00000000      -0.01797332      -0.02545124      -0.00875063
Pt       7.03182478       2.47849241      26.90050271        1       0.00000000      -0.02477232      -0.02685040      -0.00987441
Pt       2.80791098       4.90767663      26.90189839        1       0.00000000       0.01469807      -0.03227184      -0.02297509
Pt       5.62373829       4.90926378      26.89653905        1       0.00000000      -0.01408299      -0.02316841       0.00476218
Pt       8.42841859       4.91067414      26.90969969        1       0.00000000      -0.00277320      -0.03591836       0.01832491
C        0.01340336       0.01943884      29.22912376        0       1.00000000      -0.01522463      -0.00749349      -0.00755030
H        1.05772949       0.01672064      29.57080368        0       0.00000000       0.04168810       0.00125971       0.00199105
H       -0.50079506      -0.89961781      29.54526420        0       0.00000000      -0.01620131       0.00890837       0.04348408
H       -0.51203817       0.91319027      29.59694950        0       0.00000000      -0.01777301      -0.00704913      -0.02835348
