40
Lattice="8.421641763931781 0.0 0.0 4.2108208819658905 7.293355709136913 0.0 0.0 0.0 46.87624170604845" Properties=species:S:1:pos:R:3:tags:I:1:initial_magmoms:R:1:forces:R:3 charge=0 spin=0 energy=-206.8963444406482 free_energy=-206.8963444406482 stress="0.010375062935054302 1.5904227268492832e-07 -3.4263714088211827e-09 1.5904227268492832e-07 0.010374910198152065 1.2449548592030624e-07 -3.4263714088211827e-09 1.2449548592030624e-07 -0.00028541896608658135" pbc="T T T"
Pt       0.00000003       0.00000007      19.95723551        4       0.00000000       0.00000136      -0.00000349       0.01343236
Pt       2.80721399      -0.00000008      19.95723555        4       0.00000000      -0.00170568      -0.00512612       0.01724951
Pt       5.61442774      -0.00000012      19.95723554        4       0.00000000       0.00187963      -0.00345278       0.01955289
Pt       1.40360717       2.43111834      19.95723540        4       0.00000000      -0.00394186       0.00010824       0.01950154
Pt       4.21082076       2.43111843      19.95723549        4       0.00000000       0.00000083      -0.00000429       0.02537302
Pt       7.01803486       2.43111843      19.95723547        4       0.00000000       0.00530772       0.00106587       0.01724522
Pt       2.80721421       4.86223732      19.95723529        4       0.00000000      -0.00360377       0.00405337       0.01733416
Pt       5.61442794       4.86223731      19.95723540        4       0.00000000       0.00206161       0.00334219       0.01954647
Pt       8.42164146       4.86223722      19.95723551        4       0.00000000       0.00000345       0.00000809      -0.03671135
Pt       1.40360717       0.81037261      22.29206807        3       0.00000000      -0.00031694      -0.00410348      -0.00433272
Pt       4.21082122       0.81037254      22.29206808        3       0.00000000       0.00402481      -0.01100178      -0.06739606
Pt       7.01803484       0.81037259      22.29206812        3       0.00000000       0.00366821       0.00179843      -0.00436403
Pt       2.80721436       3.24149112      22.29206782        3       0.00000000      -0.01155332       0.00198799      -0.06716251
Pt       5.61442774       3.24149129      22.29206807        3       0.00000000       0.00752855       0.00901257      -0.06719390
Pt       8.42164142       3.24149141      22.29206809        3       0.00000000      -0.00161589       0.07512984      -0.14874129
Pt       4.21082097       5.67261006      22.29206778        3       0.00000000      -0.00335314       0.00225722      -0.00417821
Pt       7.01803483       5.67260987      22.29206781        3       0.00000000       0.06583071      -0.03618157      -0.14872612
Pt       9.82524821       5.67261060      22.29206810        3       0.00000000      -0.06421239      -0.03894882      -0.14872649
Pt      -0.00000049       1.62074561      24.58417352        2       0.00000000      -0.00166336      -0.24032652       0.25727415
Pt       2.80721437       1.62074550      24.58417378        2       0.00000000      -0.01023245      -0.00211863      -0.01094341
Pt       5.61442785       1.62074544      24.58417371        2       0.00000000       0.00681043      -0.00780281      -0.01097663
Pt       1.40360647       4.05186444      24.58417385        2       0.00000000      -0.01816232       0.00310920      -0.04768876
Pt       4.21082100       4.05186404      24.58417381        2       0.00000000       0.00333497       0.00982565      -0.01109633
Pt       7.01803473       4.05186412      24.58417379        2       0.00000000       0.01199602       0.01407500      -0.04786174
Pt       2.80721284       6.48298340      24.58417356        2       0.00000000       0.20884421       0.11880847       0.25741851
Pt       5.61442787       6.48298334      24.58417388        2       0.00000000      -0.20715737       0.12180217       0.25727281
Pt       8.42164233       6.48298347      24.58417367        2       0.00000000       0.00621603      -0.01711571      -0.04761280
Pt       0.00000012       0.00019125      27.13941964        1       0.00000000      -0.00001440      -0.00021300       0.03357117
Pt       2.81150468      -0.00450932      26.89765418        1       0.00000000      -0.01623506       0.00285300      -0.00525202
Pt       5.61362263      -0.00327858      26.89933770        1       0.00000000       0.01408529       0.00314038      -0.00353313
Pt       1.40116752       2.43349054      26.89929125        1       0.00000000      -0.00439611      -0.01380853      -0.00371146
Pt       4.21082356       2.43114598      26.90936889        1       0.00000000      -0.00004562      -0.00001975      -0.01074015
Pt       7.01977492       2.43712832      26.89757975        1       0.00000000       0.00582945      -0.01553586      -0.00528300
Pt       2.80119271       4.86083686      26.89758513        1       0.00000000       0.01042560       0.01282443      -0.00526779
Pt       5.61766002       4.86325035      26.89919530        1       0.00000000      -0.00970481       0.01082724      -0.00370332
Pt       8.42164004       4.86225582      26.91873666        1       0.00000000       0.00006094       0.00009006      -0.01367895
C        0.00000041      -0.00005595      29.22570989        0       1.00000000       0.00002483       0.00013064      -0.02849138
H       -0.52246099      -0.90546275      29.56743149        0       0.00000000      -0.00193039      -0.00390032      -0.00025672
H       -0.52272310       0.90485139      29.56834314        0       0.00000000      -0.00264392       0.00401486      -0.00067521
H        1.04518747       0.00019011      29.56788440        0       0.00000000       0.00455431      -0.00060144      -0.00046635
