40
Lattice="8.421641763931781 0.0 0.0 4.2108208819658905 7.293355709136913 0.0 0.0 0.0 46.87624170604845" Properties=species:S:1:pos:R:3:tags:I:1:initial_magmoms:R:1:forces:R:3 charge=0 spin=0 energy=-206.8979485208484 free_energy=-206.8979485208484 stress="0.010363577865064144 -4.3477321298723837e-08 -6.890831460992786e-09 -4.3477321298723837e-08 0.010363390669226646 4.612615157384425e-06 -6.890831460992786e-09 4.612615157384425e-06 -0.00033680471824482083" pbc="T T T"
Pt       0.00000003       0.00000007      19.95723551        4       0.00000000      -0.00000143      -0.00002446       0.01319222
Pt       2.80721399      -0.00000008      19.95723555        4       0.00000000      -0.00194875      -0.00474595       0.01724705
Pt       5.61442774      -0.00000012      19.95723554        4       0.00000000       0.00197951      -0.00329962       0.01934507
Pt       1.40360717       2.43111834      19.95723540        4       0.00000000      -0.00387301      -0.00007151       0.01932240
Pt       4.21082076       2.43111843      19.95723549        4       0.00000000      -0.00001046      -0.00000020       0.02529599
Pt       7.01803486       2.43111843      19.95723547        4       0.00000000       0.00511814       0.00063100       0.01726728
Pt       2.80721421       4.86223732      19.95723529        4       0.00000000      -0.00317885       0.00412135       0.01732669
Pt       5.61442794       4.86223731      19.95723540        4       0.00000000       0.00190401       0.00340272       0.01936097
Pt       8.42164146       4.86223722      19.95723551        4       0.00000000       0.00000575       0.00008041      -0.03673775
Pt       1.40360717       0.81037261      22.29206807        3       0.00000000      -0.00029562      -0.00348214      -0.00252534
Pt       4.21082122       0.81037254      22.29206808        3       0.00000000       0.00441020      -0.01135692      -0.06727193
Pt       7.01803484       0.81037259      22.29206812        3       0.00000000       0.00307863       0.00139608      -0.00258152
Pt       2.80721436       3.24149112      22.29206782        3       0.00000000      -0.01208766       0.00185993      -0.06698339
Pt       5.61442774       3.24149129      22.29206807        3       0.00000000       0.00767576       0.00958646      -0.06701200
Pt       8.42164142       3.24149141      22.29206809        3       0.00000000      -0.00178937       0.07603417      -0.15051223
Pt       4.21082097       5.67261006      22.29206778        3       0.00000000      -0.00278520       0.00197780      -0.00252039
Pt       7.01803483       5.67260987      22.29206781        3       0.00000000       0.06648621      -0.03632377      -0.15031141
Pt       9.82524821       5.67261060      22.29206810        3       0.00000000      -0.06470120      -0.03941413      -0.15036073
Pt      -0.00000049       1.62074561      24.58417352        2       0.00000000      -0.00252160      -0.24245182       0.25301737
Pt       2.80721437       1.62074550      24.58417378        2       0.00000000      -0.00799093      -0.00437427      -0.01731492
Pt       5.61442785       1.62074544      24.58417371        2       0.00000000       0.00756245      -0.00482107      -0.01726576
Pt       1.40360647       4.05186444      24.58417385        2       0.00000000      -0.01030263       0.00252075      -0.04734431
Pt       4.21082100       4.05186404      24.58417381        2       0.00000000       0.00039508       0.00842962      -0.01898048
Pt       7.01803473       4.05186412      24.58417379        2       0.00000000       0.00791125       0.00687749      -0.04754566
Pt       2.80721284       6.48298340      24.58417356        2       0.00000000       0.21241087       0.11994556       0.25273642
Pt       5.61442787       6.48298334      24.58417388        2       0.00000000      -0.20983215       0.12442345       0.25256118
Pt       8.42164233       6.48298347      24.58417367        2       0.00000000       0.00238371      -0.01021477      -0.04822761
Pt       0.00000416       0.00207612      27.14278572        1       0.00000000       0.00001546      -0.00396000       0.00599177
Pt       2.80634303      -0.00482905      26.89809446        1       0.00000000       0.00624667       0.00442834      -0.00215131
Pt       5.61547715      -0.00267543      26.89826286        1       0.00000000      -0.00692866       0.00243305      -0.00315112
Pt       1.40157438       2.43137033      26.89856005        1       0.00000000       0.00280982       0.00646088      -0.00427813
Pt       4.21081114       2.43097979      26.90645426        1       0.00000000       0.00004087       0.00001978      -0.00081889
Pt       7.02184800       2.43258730      26.89837118        1       0.00000000      -0.00425508       0.00489777      -0.00337234
Pt       2.80451199       4.86529653      26.89788094        1       0.00000000      -0.00254880      -0.00580671      -0.00206085
Pt       5.61519174       4.86436267      26.89798861        1       0.00000000       0.00459410      -0.00539824      -0.00295135
Pt       8.42164246       4.86210391      26.91182840        1       0.00000000       0.00003883       0.00013197       0.00177446
C        0.00000444       0.00076924      29.22676520        0       1.00000000      -0.00005669      -0.00221966      -0.02362820
H       -0.90570860      -0.52314501      29.56530809        0       0.00000000      -0.00064127      -0.00029452       0.01103843
H        0.00008001       1.04531566      29.57117225        0       0.00000000       0.00033311      -0.00089190      -0.00060613
H        0.90561044      -0.52333907      29.56530152        0       0.00000000       0.00034896      -0.00050693       0.01103650
