40
Lattice="8.421641763931781 0.0 0.0 4.2108208819658905 7.293355709136913 0.0 0.0 0.0 46.87624170604845" Properties=species:S:1:pos:R:3:tags:I:1:initial_magmoms:R:1:forces:R:3 charge=0 spin=0 energy=-206.89428450412476 free_energy=-206.89428450412476 stress="0.010372762568295002 2.122485966538079e-05 1.7133595974883065e-05 2.122485966538079e-05 0.010296206921339035 3.7440433516167104e-05 1.7133595974883065e-05 3.7440433516167104e-05 -0.0003930558741558343" pbc="T T T"
Pt       0.00000003       0.00000007      19.95723551        4       0.00000000      -0.00065391      -0.00098972       0.01320753
Pt       2.80721399      -0.00000008      19.95723555        4       0.00000000      -0.00327815      -0.00548492       0.01709113
Pt       5.61442774      -0.00000012      19.95723554        4       0.00000000       0.00113774      -0.00433018       0.01924783
Pt       1.40360717       2.43111834      19.95723540        4       0.00000000      -0.00457870      -0.00063468       0.01900504
Pt       4.21082076       2.43111843      19.95723549        4       0.00000000      -0.00079953      -0.00047076       0.02529223
Pt       7.01803486       2.43111843      19.95723547        4       0.00000000       0.00442301      -0.00006148       0.01743994
Pt       2.80721421       4.86223732      19.95723529        4       0.00000000      -0.00416977       0.00315802       0.01726128
Pt       5.61442794       4.86223731      19.95723540        4       0.00000000       0.00144477       0.00247150       0.01917064
Pt       8.42164146       4.86223722      19.95723551        4       0.00000000      -0.00000713      -0.00005735      -0.03717394
Pt       1.40360717       0.81037261      22.29206807        3       0.00000000      -0.00424822      -0.00671277      -0.00177321
Pt       4.21082122       0.81037254      22.29206808        3       0.00000000       0.00068750      -0.01434176      -0.06840541
Pt       7.01803484       0.81037259      22.29206812        3       0.00000000      -0.00022531      -0.00095382      -0.00623495
Pt       2.80721436       3.24149112      22.29206782        3       0.00000000      -0.01539622      -0.00107541      -0.06379587
Pt       5.61442774       3.24149129      22.29206807        3       0.00000000       0.00614134       0.00670321      -0.06366927
Pt       8.42164142       3.24149141      22.29206809        3       0.00000000      -0.00440214       0.07497388      -0.15237454
Pt       4.21082097       5.67261006      22.29206778        3       0.00000000      -0.00611585      -0.00011910      -0.00355679
Pt       7.01803483       5.67260987      22.29206781        3       0.00000000       0.06391775      -0.03798918      -0.15070058
Pt       9.82524821       5.67261060      22.29206810        3       0.00000000      -0.06674744      -0.04054067      -0.14880139
Pt      -0.00000049       1.62074561      24.58417352        2       0.00000000       0.01056981      -0.23629105       0.25260997
Pt       2.80721437       1.62074550      24.58417378        2       0.00000000       0.00198786       0.00877166      -0.02358031
Pt       5.61442785       1.62074544      24.58417371        2       0.00000000       0.02089094       0.01516508      -0.01956547
Pt       1.40360647       4.05186444      24.58417385        2       0.00000000       0.00278723       0.01170380      -0.06545147
Pt       4.21082100       4.05186404      24.58417381        2       0.00000000       0.00831340       0.02092162      -0.02711091
Pt       7.01803473       4.05186412      24.58417379        2       0.00000000       0.01043451       0.01048538      -0.05959458
Pt       2.80721284       6.48298340      24.58417356        2       0.00000000       0.22630778       0.12349069       0.24579348
Pt       5.61442787       6.48298334      24.58417388        2       0.00000000      -0.20542398       0.13152926       0.25650775
Pt       8.42164233       6.48298347      24.58417367        2       0.00000000       0.00967981      -0.00722905      -0.07415263
Pt       0.01159869       0.01769204      27.14316344        1       0.00000000      -0.00005946      -0.01703330       0.00190253
Pt       2.82086933       0.00752861      26.89343624        1       0.00000000      -0.01214012      -0.00993958       0.00785453
Pt       5.62247976       0.00945571      26.88849743        1       0.00000000       0.01953351      -0.00900458       0.03997092
Pt       1.41876203       2.44620735      26.89759298        1       0.00000000      -0.01452587      -0.02353718       0.01133676
Pt       4.22566695       2.44802030      26.90744332        1       0.00000000      -0.00532746      -0.02856310      -0.00146452
Pt       7.04295570       2.44232114      26.90146986        1       0.00000000      -0.04419982      -0.00009740      -0.01668475
Pt       2.81496611       4.87377573      26.89995913        1       0.00000000      -0.00101113       0.01359865      -0.00884707
Pt       5.62476222       4.87041924      26.89656632        1       0.00000000       0.00558878       0.02534868       0.00538173
Pt       8.43121675       4.86815075      26.90528408        1       0.00000000       0.00156112       0.02134709       0.02908947
C        0.02398252       0.01943056      29.22685016        0       1.00000000       0.03633428      -0.01788712      -0.00044069
H        1.07433592       0.02433513      29.55790732        0       0.00000000      -0.04823632      -0.00727899       0.00409346
H       -0.49057743      -0.89274195      29.56160305        0       0.00000000       0.01019154      -0.01750628       0.02642819
H       -0.50274924       0.91491865      29.58775442        0       0.00000000      -0.00038624       0.01846083      -0.03530586
