40
Lattice="8.421641763931781 0.0 0.0 4.2108208819658905 7.293355709136913 0.0 0.0 0.0 46.87624170604845" Properties=species:S:1:pos:R:3:tags:I:1:initial_magmoms:R:1:forces:R:3 charge=0 spin=0 energy=-206.89639975375854 free_energy=-206.89639975375854 stress="0.010357771068811417 9.38949611395401e-08 1.0586585830196782e-08 9.38949611395401e-08 0.010357963852584362 -1.9835026421333168e-07 1.0586585830196782e-08 -1.9835026421333168e-07 -0.00033873069332912564" pbc="T T T"
Pt       0.00000003       0.00000007      19.95723551        4       0.00000000       0.00000138       0.00000330       0.01323995
Pt       2.80721399      -0.00000008      19.95723555        4       0.00000000      -0.00199679      -0.00478693       0.01739906
Pt       5.61442774      -0.00000012      19.95723554        4       0.00000000       0.00195968      -0.00351612       0.01924772
Pt       1.40360717       2.43111834      19.95723540        4       0.00000000      -0.00403909       0.00008030       0.01918881
Pt       4.21082076       2.43111843      19.95723549        4       0.00000000       0.00000267       0.00000002       0.02534325
Pt       7.01803486       2.43111843      19.95723547        4       0.00000000       0.00515945       0.00065737       0.01738965
Pt       2.80721421       4.86223732      19.95723529        4       0.00000000      -0.00316823       0.00413841       0.01748458
Pt       5.61442794       4.86223731      19.95723540        4       0.00000000       0.00207807       0.00344325       0.01923606
Pt       8.42164146       4.86223722      19.95723551        4       0.00000000       0.00000298      -0.00000909      -0.03679983
Pt       1.40360717       0.81037261      22.29206807        3       0.00000000      -0.00051049      -0.00279792      -0.00272813
Pt       4.21082122       0.81037254      22.29206808        3       0.00000000       0.00453653      -0.01114741      -0.06708207
Pt       7.01803484       0.81037259      22.29206812        3       0.00000000       0.00265702       0.00101792      -0.00275011
Pt       2.80721436       3.24149112      22.29206782        3       0.00000000      -0.01194312       0.00164182      -0.06686527
Pt       5.61442774       3.24149129      22.29206807        3       0.00000000       0.00740917       0.00954517      -0.06688640
Pt       8.42164142       3.24149141      22.29206809        3       0.00000000      -0.00188031       0.07582833      -0.15043783
Pt       4.21082097       5.67261006      22.29206778        3       0.00000000      -0.00215180       0.00180111      -0.00251315
Pt       7.01803483       5.67260987      22.29206781        3       0.00000000       0.06660719      -0.03630530      -0.15046729
Pt       9.82524821       5.67261060      22.29206810        3       0.00000000      -0.06471910      -0.03953386      -0.15046282
Pt      -0.00000049       1.62074561      24.58417352        2       0.00000000      -0.00457681      -0.24401502       0.25212049
Pt       2.80721437       1.62074550      24.58417378        2       0.00000000      -0.00774462      -0.00833934      -0.01743241
Pt       5.61442785       1.62074544      24.58417371        2       0.00000000       0.01090607      -0.00260802      -0.01746740
Pt       1.40360647       4.05186444      24.58417385        2       0.00000000      -0.00893713       0.00662336      -0.04887037
Pt       4.21082100       4.05186404      24.58417381        2       0.00000000      -0.00323197       0.01074747      -0.01742823
Pt       7.01803473       4.05186412      24.58417379        2       0.00000000       0.01040815       0.00432475      -0.04897675
Pt       2.80721284       6.48298340      24.58417356        2       0.00000000       0.21334937       0.11794260       0.25228214
Pt       5.61442787       6.48298334      24.58417388        2       0.00000000      -0.20870695       0.12596540       0.25219226
Pt       8.42164233       6.48298347      24.58417367        2       0.00000000      -0.00147288      -0.01096456      -0.04878432
Pt       0.00000194      -0.00016832      27.14295857        1       0.00000000       0.00000232       0.00018626       0.00647393
Pt       2.80490363      -0.00437714      26.89929850        1       0.00000000       0.00534802       0.00134353      -0.00272077
Pt       5.61405499      -0.00221905      26.89680855        1       0.00000000      -0.00526378      -0.00070765      -0.00272493
Pt       1.40187824       2.43247944      26.89676269        1       0.00000000       0.00206008       0.00478543      -0.00292342
Pt       4.21081861       2.43108985      26.90577371        1       0.00000000      -0.00001684      -0.00004122       0.00101611
Pt       7.02296771       2.43123089      26.89919347        1       0.00000000      -0.00382629       0.00393808      -0.00256327
Pt       2.80458229       4.86638804      26.89923178        1       0.00000000      -0.00150769      -0.00538293      -0.00275103
Pt       5.61653822       4.86298815      26.89673896        1       0.00000000       0.00320287      -0.00417197      -0.00299246
Pt       8.42164251       4.86220457      26.91168176        1       0.00000000       0.00001138      -0.00001874       0.00235394
C        0.00000150       0.00006841      29.22682922        0       1.00000000       0.00000359      -0.00019197      -0.01423546
H        0.52212446      -0.90529740      29.56895027        0       0.00000000       0.00291649      -0.00480715       0.00377011
H       -1.04526958       0.00062300      29.56851825        0       0.00000000      -0.00566593       0.00033378       0.00397637
H        0.52314687       0.90516330      29.56809582        0       0.00000000       0.00273742       0.00499738       0.00414918
