40
Lattice="8.421641763931781 0.0 0.0 4.2108208819658905 7.293355709136913 0.0 0.0 0.0 46.87624170604845" Properties=species:S:1:pos:R:3:tags:I:1:initial_magmoms:R:1:forces:R:3 charge=0 spin=0 energy=-206.89633490390503 free_energy=-206.89633490390503 stress="0.010366037487983704 -1.3180034329707269e-05 -6.216262590896804e-06 -1.3180034329707269e-05 0.010378414765000343 -2.613619108160492e-05 -6.216262590896804e-06 -2.613619108160492e-05 -0.00032151310006156564" pbc="T T T"
Pt       0.00000003       0.00000007      19.95723551        4       0.00000000       0.00037460       0.00038962       0.01341864
Pt       2.80721399      -0.00000008      19.95723555        4       0.00000000      -0.00145559      -0.00508472       0.01707864
Pt       5.61442774      -0.00000012      19.95723554        4       0.00000000       0.00240404      -0.00337237       0.01926509
Pt       1.40360717       2.43111834      19.95723540        4       0.00000000      -0.00396225       0.00037304       0.01950559
Pt       4.21082076       2.43111843      19.95723549        4       0.00000000       0.00048736      -0.00007235       0.02538112
Pt       7.01803486       2.43111843      19.95723547        4       0.00000000       0.00590754       0.00103032       0.01730621
Pt       2.80721421       4.86223732      19.95723529        4       0.00000000      -0.00289630       0.00405135       0.01763169
Pt       5.61442794       4.86223731      19.95723540        4       0.00000000       0.00272585       0.00330742       0.01942227
Pt       8.42164146       4.86223722      19.95723551        4       0.00000000      -0.00006054       0.00092687      -0.03676404
Pt       1.40360717       0.81037261      22.29206807        3       0.00000000       0.00116632      -0.00331940      -0.00536799
Pt       4.21082122       0.81037254      22.29206808        3       0.00000000       0.00594534      -0.01167061      -0.06790300
Pt       7.01803484       0.81037259      22.29206812        3       0.00000000       0.00512681       0.00114655      -0.00239367
Pt       2.80721436       3.24149112      22.29206782        3       0.00000000      -0.01001807       0.00182944      -0.06603981
Pt       5.61442774       3.24149129      22.29206807        3       0.00000000       0.00887208       0.00890043      -0.06578695
Pt       8.42164142       3.24149141      22.29206809        3       0.00000000      -0.00000524       0.07661057      -0.15004985
Pt       4.21082097       5.67261006      22.29206778        3       0.00000000      -0.00110360       0.00157853      -0.00458511
Pt       7.01803483       5.67260987      22.29206781        3       0.00000000       0.06705396      -0.03527207      -0.14918491
Pt       9.82524821       5.67261060      22.29206810        3       0.00000000      -0.06308297      -0.03939042      -0.15084916
Pt      -0.00000049       1.62074561      24.58417352        2       0.00000000      -0.00858209      -0.24815954       0.27511427
Pt       2.80721437       1.62074550      24.58417378        2       0.00000000      -0.02126808       0.00027527      -0.01744094
Pt       5.61442785       1.62074544      24.58417371        2       0.00000000       0.01165108      -0.00260569      -0.01990126
Pt       1.40360647       4.05186444      24.58417385        2       0.00000000      -0.02030107      -0.00025090      -0.04802092
Pt       4.21082100       4.05186404      24.58417381        2       0.00000000      -0.00650065       0.01393654      -0.01410463
Pt       7.01803473       4.05186412      24.58417379        2       0.00000000       0.00895016       0.00434526      -0.05501051
Pt       2.80721284       6.48298340      24.58417356        2       0.00000000       0.20491831       0.12191264       0.25691819
Pt       5.61442787       6.48298334      24.58417388        2       0.00000000      -0.21234046       0.12242669       0.24962495
Pt       8.42164233       6.48298347      24.58417367        2       0.00000000      -0.00284630      -0.01591203      -0.05045809
Pt      -0.00666274      -0.00852940      27.14520455        1       0.00000000       0.00368485       0.01687439      -0.00986856
Pt       2.80040320       0.00038252      26.89696755        1       0.00000000      -0.00703271      -0.01735383       0.00252521
Pt       5.60368563       0.00282431      26.89697020        1       0.00000000       0.02743505      -0.02297941       0.00557306
Pt       1.39376446       2.43363451      26.90120706        1       0.00000000      -0.00512957      -0.01428476      -0.00819432
Pt       4.20538196       2.42967785      26.90492281        1       0.00000000      -0.00696886       0.01263545       0.00569831
Pt       7.01568334       2.43428054      26.90115252        1       0.00000000       0.01297969      -0.01747551      -0.00520732
Pt       2.79312253       4.86449871      26.89763918        1       0.00000000       0.01070433      -0.00091789      -0.01149905
Pt       5.61489911       4.85873677      26.89729034        1       0.00000000      -0.01605887       0.01945409      -0.00354868
Pt       8.41283018       4.86335865      26.91394345        1       0.00000000       0.01336038      -0.00251663      -0.00024262
C       -0.00324632      -0.05851653      29.22741522        0       1.00000000      -0.02709517       0.00817689       0.00611631
H       -0.10688200      -1.10765160      29.54167521        0       0.00000000       0.00421183       0.00737218       0.01224242
H       -0.85345166       0.54039672      29.58687243        0       0.00000000       0.00728185       0.00273036      -0.01325003
H        0.94874429       0.36216998      29.58220781        0       0.00000000       0.01146683       0.01035410      -0.00715047
