40
Lattice="8.421641763931781 0.0 0.0 4.2108208819658905 7.293355709136913 0.0 0.0 0.0 46.87624170604845" Properties=species:S:1:pos:R:3:tags:I:1:initial_magmoms:R:1:forces:R:3 charge=0 spin=0 energy=-206.89628531284058 free_energy=-206.89628531284058 stress="0.01036444865167141 4.0177013715947396e-08 -8.935078454896939e-09 4.0177013715947396e-08 0.010364376939833164 1.1782225328715867e-07 -8.935078454896939e-09 1.1782225328715867e-07 -0.00032733401167206466" pbc="T T T"
Pt       0.00000003       0.00000007      19.95723551        4       0.00000000       0.00000111      -0.00000134       0.01356678
Pt       2.80721399      -0.00000008      19.95723555        4       0.00000000      -0.00175376      -0.00508950       0.01698547
Pt       5.61442774      -0.00000012      19.95723554        4       0.00000000       0.00190844      -0.00339124       0.01938924
Pt       1.40360717       2.43111834      19.95723540        4       0.00000000      -0.00390406       0.00005471       0.01933718
Pt       4.21082076       2.43111843      19.95723549        4       0.00000000       0.00000135      -0.00000327       0.02549211
Pt       7.01803486       2.43111843      19.95723547        4       0.00000000       0.00529972       0.00100788       0.01697979
Pt       2.80721421       4.86223732      19.95723529        4       0.00000000      -0.00354800       0.00407628       0.01707012
Pt       5.61442794       4.86223731      19.95723540        4       0.00000000       0.00199348       0.00333608       0.01938194
Pt       8.42164146       4.86223722      19.95723551        4       0.00000000       0.00000302       0.00000469      -0.03659833
Pt       1.40360717       0.81037261      22.29206807        3       0.00000000      -0.00024985      -0.00409250      -0.00410314
Pt       4.21082122       0.81037254      22.29206808        3       0.00000000       0.00407458      -0.01125393      -0.06719208
Pt       7.01803484       0.81037259      22.29206812        3       0.00000000       0.00362841       0.00185900      -0.00412791
Pt       2.80721436       3.24149112      22.29206782        3       0.00000000      -0.01179680       0.00207176      -0.06695967
Pt       5.61442774       3.24149129      22.29206807        3       0.00000000       0.00772015       0.00918307      -0.06698529
Pt       8.42164142       3.24149141      22.29206809        3       0.00000000      -0.00167148       0.07535053      -0.14944303
Pt       4.21082097       5.67261006      22.29206778        3       0.00000000      -0.00338000       0.00220119      -0.00392868
Pt       7.01803483       5.67260987      22.29206781        3       0.00000000       0.06605880      -0.03624205      -0.14943253
Pt       9.82524821       5.67261060      22.29206810        3       0.00000000      -0.06438298      -0.03911155      -0.14943109
Pt      -0.00000049       1.62074561      24.58417352        2       0.00000000      -0.00123074      -0.24653184       0.25648683
Pt       2.80721437       1.62074550      24.58417378        2       0.00000000      -0.00792117      -0.00026992      -0.01631422
Pt       5.61442785       1.62074544      24.58417371        2       0.00000000       0.00407235      -0.00669457      -0.01632497
Pt       1.40360647       4.05186444      24.58417385        2       0.00000000      -0.02089254       0.00435235      -0.05072236
Pt       4.21082100       4.05186404      24.58417381        2       0.00000000       0.00378707       0.00690735      -0.01639409
Pt       7.01803473       4.05186412      24.58417379        2       0.00000000       0.01442444       0.01580555      -0.05084341
Pt       2.80721284       6.48298340      24.58417356        2       0.00000000       0.21398662       0.12225746       0.25657114
Pt       5.61442787       6.48298334      24.58417388        2       0.00000000      -0.21272779       0.12446404       0.25646371
Pt       8.42164233       6.48298347      24.58417367        2       0.00000000       0.00648330      -0.02012498      -0.05068744
Pt      -0.00000051       0.00011455      27.14587342        1       0.00000000      -0.00000354      -0.00015797      -0.01034880
Pt       2.81108669      -0.00380799      26.89463198        1       0.00000000      -0.01649893      -0.00185255       0.00677913
Pt       5.61365551      -0.00266768      26.89699438        1       0.00000000       0.01535540      -0.00103834       0.00589738
Pt       1.40168006       2.43314112      26.89696833        1       0.00000000      -0.00864590      -0.01282080       0.00563107
Pt       4.21082039       2.43113152      26.91158703        1       0.00000000      -0.00000939       0.00001746      -0.01659786
Pt       7.01939131       2.43640067      26.89458801        1       0.00000000       0.00987319      -0.01339281       0.00657357
Pt       2.80199108       4.86083356      26.89457878        1       0.00000000       0.00662864       0.01531903       0.00678445
Pt       5.61711814       4.86295625      26.89689929        1       0.00000000      -0.00670906       0.01394021       0.00558417
Pt       8.42164256       4.86225440      26.92089150        1       0.00000000       0.00002475       0.00002612      -0.02130026
C       -0.00000020      -0.00002863      29.22936109        0       1.00000000       0.00001727      -0.00003481      -0.02137464
H       -0.52093511       0.90590002      29.57130207        0       0.00000000      -0.00605079       0.00976174       0.00432556
H        1.04509425      -0.00192958      29.57108355        0       0.00000000       0.01142671       0.00015636       0.00471091
H       -0.52415890      -0.90425500      29.57086766        0       0.00000000      -0.00539208      -0.01004906       0.00509922
