40
Lattice="8.421641763931781 0.0 0.0 4.2108208819658905 7.293355709136913 0.0 0.0 0.0 46.87624170604845" Properties=species:S:1:pos:R:3:tags:I:1:initial_magmoms:R:1:forces:R:3 charge=0 spin=0 energy=-206.8979485208484 free_energy=-206.8979485208484 stress="0.010363581590354443 -4.041993051373538e-08 -1.2614607136640643e-08 -4.041993051373538e-08 0.010363377630710602 4.611440090229735e-06 -1.2614607136640643e-08 4.611440090229735e-06 -0.0003367834142409265" pbc="T T T"
Pt       0.00000003       0.00000007      19.95723551        4       0.00000000      -0.00000147      -0.00002444       0.01319218
Pt       2.80721399      -0.00000008      19.95723555        4       0.00000000      -0.00194877      -0.00474578       0.01724700
Pt       5.61442774      -0.00000012      19.95723554        4       0.00000000       0.00197954      -0.00329958       0.01934509
Pt       1.40360717       2.43111834      19.95723540        4       0.00000000      -0.00387295      -0.00007146       0.01932244
Pt       4.21082076       2.43111843      19.95723549        4       0.00000000      -0.00001045      -0.00000026       0.02529601
Pt       7.01803486       2.43111843      19.95723547        4       0.00000000       0.00511821       0.00063108       0.01726730
Pt       2.80721421       4.86223732      19.95723529        4       0.00000000      -0.00317880       0.00412127       0.01732695
Pt       5.61442794       4.86223731      19.95723540        4       0.00000000       0.00190413       0.00340268       0.01936102
Pt       8.42164146       4.86223722      19.95723551        4       0.00000000       0.00000579       0.00008040      -0.03673773
Pt       1.40360717       0.81037261      22.29206807        3       0.00000000      -0.00029553      -0.00348225      -0.00252569
Pt       4.21082122       0.81037254      22.29206808        3       0.00000000       0.00441026      -0.01135675      -0.06727234
Pt       7.01803484       0.81037259      22.29206812        3       0.00000000       0.00307872       0.00139586      -0.00258165
Pt       2.80721436       3.24149112      22.29206782        3       0.00000000      -0.01208777       0.00186016      -0.06698295
Pt       5.61442774       3.24149129      22.29206807        3       0.00000000       0.00767575       0.00958641      -0.06701180
Pt       8.42164142       3.24149141      22.29206809        3       0.00000000      -0.00178957       0.07603407      -0.15051259
Pt       4.21082097       5.67261006      22.29206778        3       0.00000000      -0.00278508       0.00197783      -0.00252098
Pt       7.01803483       5.67260987      22.29206781        3       0.00000000       0.06648570      -0.03632387      -0.15030970
Pt       9.82524821       5.67261060      22.29206810        3       0.00000000      -0.06470062      -0.03941417      -0.15035941
Pt      -0.00000049       1.62074561      24.58417352        2       0.00000000      -0.00252201      -0.24245031       0.25301740
Pt       2.80721437       1.62074550      24.58417378        2       0.00000000      -0.00799125      -0.00437433      -0.01731555
Pt       5.61442785       1.62074544      24.58417371        2       0.00000000       0.00756178      -0.00482128      -0.01726633
Pt       1.40360647       4.05186444      24.58417385        2       0.00000000      -0.01030146       0.00252047      -0.04734579
Pt       4.21082100       4.05186404      24.58417381        2       0.00000000       0.00039466       0.00842936      -0.01898058
Pt       7.01803473       4.05186412      24.58417379        2       0.00000000       0.00791019       0.00687684      -0.04754874
Pt       2.80721284       6.48298340      24.58417356        2       0.00000000       0.21240968       0.11994551       0.25273585
Pt       5.61442787       6.48298334      24.58417388        2       0.00000000      -0.20983166       0.12442296       0.25256029
Pt       8.42164233       6.48298347      24.58417367        2       0.00000000       0.00238338      -0.01021334      -0.04823097
Pt       0.00000400       0.00207682      27.14278440        1       0.00000000       0.00001297      -0.00396006       0.00602666
Pt       2.80634297      -0.00482895      26.89809443        1       0.00000000       0.00624414       0.00442942      -0.00215082
Pt       5.61547614      -0.00267517      26.89826274        1       0.00000000      -0.00692465       0.00243416      -0.00315061
Pt       1.40157461       2.43137081      26.89856028        1       0.00000000       0.00280815       0.00646029      -0.00427927
Pt       4.21081057       2.43097959      26.90645390        1       0.00000000       0.00003998       0.00002150      -0.00081840
Pt       7.02184730       2.43258781      26.89837141        1       0.00000000      -0.00425185       0.00489543      -0.00337194
Pt       2.80451136       4.86529685      26.89788131        1       0.00000000      -0.00254945      -0.00580776      -0.00206100
Pt       5.61519123       4.86436243      26.89798889        1       0.00000000       0.00459358      -0.00539590      -0.00295073
Pt       8.42164141       4.86210423      26.91182792        1       0.00000000       0.00004159       0.00012977       0.00178142
C        0.00000452       0.00076975      29.22676586        0       1.00000000      -0.00008589      -0.00223476      -0.02368274
H        0.00008016       1.04531624      29.57117334        0       0.00000000       0.00033381      -0.00088418      -0.00059781
H        0.90561089      -0.52333910      29.56530030        0       0.00000000       0.00035808      -0.00051194       0.01104957
H       -0.90570917      -0.52314522      29.56530775        0       0.00000000      -0.00062059      -0.00028280       0.01103672
