40
Lattice="8.421641763931781 0.0 0.0 4.2108208819658905 7.293355709136913 0.0 0.0 0.0 46.87624170604845" Properties=species:S:1:pos:R:3:tags:I:1:initial_magmoms:R:1:forces:R:3 charge=0 spin=0 energy=-206.897124546239 free_energy=-206.897124546239 stress="0.010352094657719135 -1.6522497389814816e-05 -8.932088348956313e-06 -1.6522497389814816e-05 0.010366007685661316 1.6080328350653872e-05 -8.932088348956313e-06 1.6080328350653872e-05 -0.00035719177685678005" pbc="T T T"
Pt       0.00000003       0.00000007      19.95723551        4       0.00000000       0.00231065      -0.00338489       0.01944640
Pt       2.80721399      -0.00000008      19.95723555        4       0.00000000       0.00052349       0.00019063       0.01316708
Pt       5.61442774      -0.00000012      19.95723554        4       0.00000000      -0.00135805      -0.00478984       0.01746234
Pt       1.40360717       2.43111834      19.95723540        4       0.00000000       0.00559820       0.00066519       0.01687792
Pt       4.21082076       2.43111843      19.95723549        4       0.00000000      -0.00363855       0.00019432       0.01926820
Pt       7.01803486       2.43111843      19.95723547        4       0.00000000       0.00057752       0.00013368       0.02529035
Pt       2.80721421       4.86223732      19.95723529        4       0.00000000      -0.00040410      -0.00091594      -0.03676523
Pt       5.61442794       4.86223731      19.95723540        4       0.00000000      -0.00249146       0.00411627       0.01739790
Pt       8.42164146       4.86223722      19.95723551        4       0.00000000       0.00206984       0.00337043       0.01912264
Pt       1.40360717       0.81037261      22.29206807        3       0.00000000       0.00478448       0.00151228      -0.00260631
Pt       4.21082122       0.81037254      22.29206808        3       0.00000000       0.00149384      -0.00275953      -0.00472352
Pt       7.01803484       0.81037259      22.29206812        3       0.00000000       0.00632911      -0.01118180      -0.06622150
Pt       2.80721436       3.24149112      22.29206782        3       0.00000000      -0.00046399       0.07445949      -0.14905405
Pt       5.61442774       3.24149129      22.29206807        3       0.00000000      -0.01038051       0.00203831      -0.06710850
Pt       8.42164142       3.24149141      22.29206809        3       0.00000000       0.00925038       0.00948992      -0.06776211
Pt       4.21082097       5.67261006      22.29206778        3       0.00000000      -0.06491300      -0.04045548      -0.15144160
Pt       7.01803483       5.67260987      22.29206781        3       0.00000000      -0.00099191       0.00263796      -0.00098536
Pt       9.82524821       5.67261060      22.29206810        3       0.00000000       0.06767228      -0.03630650      -0.15008856
Pt      -0.00000049       1.62074561      24.58417352        2       0.00000000      -0.00165917      -0.00432810      -0.02213857
Pt       2.80721437       1.62074550      24.58417378        2       0.00000000      -0.00872374      -0.24118368       0.24247380
Pt       5.61442785       1.62074544      24.58417371        2       0.00000000      -0.01094810      -0.00514121      -0.02652407
Pt       1.40360647       4.05186444      24.58417385        2       0.00000000       0.00352845       0.00932823      -0.05135792
Pt       4.21082100       4.05186404      24.58417381        2       0.00000000      -0.01514960       0.00742054      -0.04828307
Pt       7.01803473       4.05186412      24.58417379        2       0.00000000      -0.00684892       0.00804304      -0.00818855
Pt       2.80721284       6.48298340      24.58417356        2       0.00000000      -0.00230356      -0.01150546      -0.04781471
Pt       5.61442787       6.48298334      24.58417388        2       0.00000000       0.21206452       0.11730581       0.25465187
Pt       8.42164233       6.48298347      24.58417367        2       0.00000000      -0.21642861       0.11910415       0.25174487
Pt      -0.00207374      -0.00276421      26.89703671        1       0.00000000      -0.02488252      -0.00006336       0.00060121
Pt       2.79754401      -0.00263081      27.14125159        1       0.00000000       0.02113407       0.01976399      -0.00085207
Pt       5.60512311      -0.00431129      26.89615135        1       0.00000000       0.01193866      -0.00466422       0.00394206
Pt       1.39909080       2.43223144      26.89595108        1       0.00000000       0.00437166       0.00601390       0.00486907
Pt       4.20349532       2.43159317      26.89574857        1       0.00000000      -0.00298275       0.00589958      -0.00029135
Pt       7.00867590       2.42770987      26.90810100        1       0.00000000       0.01080386       0.01211352      -0.00554097
Pt       2.79903621       4.86223727      26.91300193        1       0.00000000       0.00653150      -0.00127722      -0.00196600
Pt       5.60278714       4.86647562      26.89972087        1       0.00000000       0.01205783      -0.01582232      -0.00344041
Pt       8.41776369       4.86056206      26.89911156        1       0.00000000      -0.00504158       0.00275025      -0.00426619
C        2.80580543       0.03265393      29.22336675        0       1.00000000      -0.00935169      -0.00352465       0.02442347
H        3.65722450      -0.57061711      29.57247606        0       0.00000000      -0.00542223       0.01412272      -0.00297272
H        1.85535670      -0.39365644      29.57709118        0       0.00000000      -0.00027061      -0.00833031      -0.00829449
H        2.90551348       1.07910976      29.54950338        0       0.00000000       0.01161442      -0.02503958      -0.00205105
