40
Lattice="8.421641763931781 0.0 0.0 4.2108208819658905 7.293355709136913 0.0 0.0 0.0 46.87624170604845" Properties=species:S:1:pos:R:3:tags:I:1:initial_magmoms:R:1:forces:R:3 charge=0 spin=0 energy=-206.89400984592163 free_energy=-206.89400984592163 stress="0.010366402566432953 1.2885623164038407e-06 1.6086105460999534e-05 1.2885623164038407e-06 0.010263040661811829 2.2570147848455235e-05 1.6086105460999534e-05 2.2570147848455235e-05 -0.00042233458952978253" pbc="T T T"
Pt       0.00000003       0.00000007      19.95723551        4       0.00000000       0.00175019      -0.00542401       0.01914798
Pt       2.80721399      -0.00000008      19.95723555        4       0.00000000       0.00021669      -0.00169344       0.01309856
Pt       5.61442774      -0.00000012      19.95723554        4       0.00000000      -0.00173773      -0.00647795       0.01700095
Pt       1.40360717       2.43111834      19.95723540        4       0.00000000       0.00523889      -0.00091640       0.01742459
Pt       4.21082076       2.43111843      19.95723549        4       0.00000000      -0.00401906      -0.00155520       0.01907221
Pt       7.01803486       2.43111843      19.95723547        4       0.00000000      -0.00011970      -0.00156913       0.02516259
Pt       2.80721421       4.86223732      19.95723529        4       0.00000000       0.00048638       0.00026929      -0.03684284
Pt       5.61442794       4.86223731      19.95723540        4       0.00000000      -0.00324484       0.00216773       0.01752641
Pt       8.42164146       4.86223722      19.95723551        4       0.00000000       0.00248949       0.00184000       0.01936333
Pt       1.40360717       0.81037261      22.29206807        3       0.00000000       0.00276182      -0.00560643      -0.00436729
Pt       4.21082122       0.81037254      22.29206808        3       0.00000000      -0.00248106      -0.00894782      -0.00156782
Pt       7.01803484       0.81037259      22.29206812        3       0.00000000       0.00411148      -0.01659904      -0.06753238
Pt       2.80721436       3.24149112      22.29206782        3       0.00000000      -0.00226916       0.07265687      -0.15183254
Pt       5.61442774       3.24149129      22.29206807        3       0.00000000      -0.01276688      -0.00485500      -0.06720358
Pt       8.42164142       3.24149141      22.29206809        3       0.00000000       0.00703354       0.00247136      -0.06583950
Pt       4.21082097       5.67261006      22.29206778        3       0.00000000      -0.06325640      -0.04423812      -0.14770894
Pt       7.01803483       5.67260987      22.29206781        3       0.00000000      -0.00316367      -0.00534560      -0.00677721
Pt       9.82524821       5.67261060      22.29206810        3       0.00000000       0.06565033      -0.04156730      -0.14682931
Pt      -0.00000049       1.62074561      24.58417352        2       0.00000000       0.00714884       0.02439834      -0.02817193
Pt       2.80721437       1.62074550      24.58417378        2       0.00000000       0.00230329      -0.22676383       0.26189268
Pt       5.61442785       1.62074544      24.58417371        2       0.00000000      -0.00753264       0.01349128      -0.01437238
Pt       1.40360647       4.05186444      24.58417385        2       0.00000000       0.01464031       0.02916496      -0.06036596
Pt       4.21082100       4.05186404      24.58417381        2       0.00000000      -0.01428266       0.02536848      -0.05909227
Pt       7.01803473       4.05186412      24.58417379        2       0.00000000       0.00261559       0.03197422      -0.02826979
Pt       2.80721284       6.48298340      24.58417356        2       0.00000000      -0.00644895       0.00117431      -0.05887901
Pt       5.61442787       6.48298334      24.58417388        2       0.00000000       0.21120518       0.13906315       0.23335148
Pt       8.42164233       6.48298347      24.58417367        2       0.00000000      -0.19641037       0.14456290       0.24017243
Pt      -0.00386627       0.02529657      26.89079630        1       0.00000000       0.01588370      -0.01671434       0.02015727
Pt       2.81455471       0.02234180      27.13464986        1       0.00000000      -0.00831484      -0.00726762       0.00023116
Pt       5.61777128       0.02318272      26.89945138        1       0.00000000      -0.00410241      -0.01208588       0.00270196
Pt       1.40975312       2.45653972      26.89515710        1       0.00000000       0.00331818      -0.01922479       0.00960515
Pt       4.21255973       2.46078821      26.89953609        1       0.00000000      -0.00610186      -0.02409335      -0.01080584
Pt       7.01849905       2.46418481      26.90811910        1       0.00000000       0.00566748      -0.03917025      -0.00110110
Pt       2.80869055       4.88659700      26.91411293        1       0.00000000       0.00241280      -0.00549749      -0.00027894
Pt       5.61174214       4.89044702      26.89444326        1       0.00000000       0.00475040      -0.00155812       0.01498751
Pt       8.42961377       4.88674607      26.89668010        1       0.00000000      -0.00806409      -0.00348362      -0.00116574
C        2.80907454       0.01605988      29.21685775        0       1.00000000      -0.04175242       0.00939618       0.00326975
H        3.34256204      -0.87739691      29.57040092        0       0.00000000       0.01528610      -0.03106907      -0.01512072
H        1.75916887      -0.00198438      29.54414690        0       0.00000000       0.00462246       0.00423462       0.03047511
H        3.31175348       0.92996807      29.56316953        0       0.00000000       0.00647536       0.02949007       0.00948401
