40
Lattice="8.421641763931781 0.0 0.0 4.2108208819658905 7.293355709136913 0.0 0.0 0.0 46.87624170604845" Properties=species:S:1:pos:R:3:tags:I:1:initial_magmoms:R:1:forces:R:3 charge=0 spin=0 energy=-206.8947518045398 free_energy=-206.8947518045398 stress="0.010365119203925133 -2.810556452459423e-06 -1.564284957566997e-06 -2.810556452459423e-06 0.010314264334738255 -8.828770319269097e-07 -1.564284957566997e-06 -8.828770319269097e-07 -0.0003377054526936263" pbc="T T T"
Pt       0.00000003       0.00000007      19.95723551        4       0.00000000       0.00170684      -0.00460755       0.01938559
Pt       2.80721399      -0.00000008      19.95723555        4       0.00000000       0.00039069      -0.00068579       0.01322036
Pt       5.61442774      -0.00000012      19.95723554        4       0.00000000      -0.00168738      -0.00600921       0.01715744
Pt       1.40360717       2.43111834      19.95723540        4       0.00000000       0.00529510       0.00001799       0.01735379
Pt       4.21082076       2.43111843      19.95723549        4       0.00000000      -0.00413416      -0.00093755       0.01906833
Pt       7.01803486       2.43111843      19.95723547        4       0.00000000       0.00042898      -0.00109251       0.02515896
Pt       2.80721421       4.86223732      19.95723529        4       0.00000000       0.00024859      -0.00036175      -0.03667660
Pt       5.61442794       4.86223731      19.95723540        4       0.00000000      -0.00331491       0.00293691       0.01753594
Pt       8.42164146       4.86223722      19.95723551        4       0.00000000       0.00194885       0.00242962       0.01934217
Pt       1.40360717       0.81037261      22.29206807        3       0.00000000       0.00315005      -0.00177293      -0.00477894
Pt       4.21082122       0.81037254      22.29206808        3       0.00000000      -0.00139097      -0.00684584      -0.00228629
Pt       7.01803484       0.81037259      22.29206812        3       0.00000000       0.00456974      -0.01397643      -0.06586098
Pt       2.80721436       3.24149112      22.29206782        3       0.00000000      -0.00193169       0.07255228      -0.14983064
Pt       5.61442774       3.24149129      22.29206807        3       0.00000000      -0.01186029      -0.00200896      -0.06793556
Pt       8.42164142       3.24149141      22.29206809        3       0.00000000       0.00719919       0.00581100      -0.06751097
Pt       4.21082097       5.67261006      22.29206778        3       0.00000000      -0.06463508      -0.04296537      -0.14755625
Pt       7.01803483       5.67260987      22.29206781        3       0.00000000      -0.00241132      -0.00211969      -0.00549793
Pt       9.82524821       5.67261060      22.29206810        3       0.00000000       0.06574586      -0.03985181      -0.14942601
Pt      -0.00000049       1.62074561      24.58417352        2       0.00000000       0.00791219       0.00756406      -0.00737189
Pt       2.80721437       1.62074550      24.58417378        2       0.00000000      -0.00422364      -0.23614743       0.26447749
Pt       5.61442785       1.62074544      24.58417371        2       0.00000000      -0.00745148       0.00650734      -0.02926355
Pt       1.40360647       4.05186444      24.58417385        2       0.00000000       0.01260657       0.01727097      -0.05640747
Pt       4.21082100       4.05186404      24.58417381        2       0.00000000      -0.01558650       0.02245400      -0.05084983
Pt       7.01803473       4.05186412      24.58417379        2       0.00000000       0.00040853       0.02123526      -0.00790018
Pt       2.80721284       6.48298340      24.58417356        2       0.00000000       0.00662940      -0.00205835      -0.05000286
Pt       5.61442787       6.48298334      24.58417388        2       0.00000000       0.20536250       0.12512478       0.25116611
Pt       8.42164233       6.48298347      24.58417367        2       0.00000000      -0.20456976       0.13882437       0.24491656
Pt       0.00155539       0.01200108      26.90067476        1       0.00000000      -0.00542325      -0.00356954      -0.01646179
Pt       2.80586281       0.00170718      27.13801707        1       0.00000000       0.00243162       0.03570426       0.01956390
Pt       5.61883923       0.01565061      26.89671100        1       0.00000000      -0.02043423      -0.02079351       0.01473113
Pt       1.40710890       2.44886222      26.89729576        1       0.00000000       0.00425397      -0.02625074      -0.00160004
Pt       4.21151077       2.44789475      26.89604242        1       0.00000000      -0.02513550      -0.01681835      -0.00048443
Pt       7.01325657       2.44597124      26.90943279        1       0.00000000       0.03099025      -0.00254090      -0.00865288
Pt       2.80296266       4.88010015      26.91486308        1       0.00000000       0.02136369      -0.02170294      -0.00319359
Pt       5.60785126       4.87459189      26.90012591        1       0.00000000       0.01100755       0.00934213      -0.00479322
Pt       8.43026044       4.88071368      26.89656062        1       0.00000000      -0.02452459      -0.02758734      -0.00183882
C        2.80104878       0.00781912      29.22267810        0       1.00000000       0.02649128       0.02016335      -0.03148206
H        1.75652227       0.01258727      29.56327018        0       0.00000000      -0.03454685      -0.00243717       0.01232552
H        3.32446283       0.91560947      29.55372894        0       0.00000000       0.00610941       0.03119895       0.02605114
H        3.32422371      -0.89106226      29.57785025        0       0.00000000       0.00701106      -0.03599554      -0.01379152
