40
Lattice="8.421641763931781 0.0 0.0 4.2108208819658905 7.293355709136913 0.0 0.0 0.0 46.87624170604845" Properties=species:S:1:pos:R:3:tags:I:1:initial_magmoms:R:1:forces:R:3 charge=0 spin=0 energy=-206.1544239694568 free_energy=-206.1544239694568 stress="0.01045163068920374 1.0556919733062387e-05 -1.4507866580970585e-05 1.0556919733062387e-05 0.009673076681792736 7.585939601995051e-05 -1.4507866580970585e-05 7.585939601995051e-05 -0.00031908313394524157" pbc="T T T"
Pt       0.00000003       0.00000007      19.95723551        4       0.00000000       0.00168832       0.00169345       0.01682131
Pt       2.80721399      -0.00000008      19.95723555        4       0.00000000      -0.00037442       0.00071729       0.01624499
Pt       5.61442774      -0.00000012      19.95723554        4       0.00000000       0.00051783      -0.00712853       0.02621999
Pt       1.40360717       2.43111834      19.95723540        4       0.00000000      -0.00100192       0.00318691       0.02291480
Pt       4.21082076       2.43111843      19.95723549        4       0.00000000      -0.00013157       0.00352449       0.02219496
Pt       7.01803486       2.43111843      19.95723547        4       0.00000000       0.00129321       0.00447720       0.01942552
Pt       2.80721421       4.86223732      19.95723529        4       0.00000000       0.01561020      -0.00059332      -0.00201647
Pt       5.61442794       4.86223731      19.95723540        4       0.00000000      -0.00110429       0.00512363       0.01304307
Pt       8.42164146       4.86223722      19.95723551        4       0.00000000      -0.01581212       0.00166041      -0.00188388
Pt       1.40360717       0.81037261      22.29206807        3       0.00000000       0.00283783       0.02051241      -0.03324421
Pt       4.21082122       0.81037254      22.29206808        3       0.00000000       0.00196284      -0.00280924      -0.03990990
Pt       7.01803484       0.81037259      22.29206812        3       0.00000000       0.00213316       0.00514180      -0.03814329
Pt       2.80721436       3.24149112      22.29206782        3       0.00000000      -0.00220524       0.04161235      -0.08968418
Pt       5.61442774       3.24149129      22.29206807        3       0.00000000      -0.00086573       0.01226711      -0.06847983
Pt       8.42164142       3.24149141      22.29206809        3       0.00000000       0.00233708       0.04294866      -0.08915254
Pt       4.21082097       5.67261006      22.29206778        3       0.00000000      -0.02307373      -0.00440984      -0.06647014
Pt       7.01803483       5.67260987      22.29206781        3       0.00000000       0.02208037      -0.00105767      -0.06684000
Pt       9.82524821       5.67261060      22.29206810        3       0.00000000       0.00296437      -0.04095906      -0.10674620
Pt      -0.00000049       1.62074561      24.58417352        2       0.00000000      -0.04761516      -0.14938724       0.05014704
Pt       2.80721437       1.62074550      24.58417378        2       0.00000000       0.04663289      -0.15161107       0.04668323
Pt       5.61442785       1.62074544      24.58417371        2       0.00000000      -0.00572913      -0.02341860      -0.02787634
Pt       1.40360647       4.05186444      24.58417385        2       0.00000000      -0.00296096       0.05209550      -0.18329012
Pt       4.21082100       4.05186404      24.58417381        2       0.00000000      -0.04367584      -0.04879891      -0.09779679
Pt       7.01803473       4.05186412      24.58417379        2       0.00000000       0.04912521      -0.04351694      -0.09893547
Pt       2.80721284       6.48298340      24.58417356        2       0.00000000       0.19553979       0.09872003       0.30341130
Pt       5.61442787       6.48298334      24.58417388        2       0.00000000       0.00610704       0.03655141       0.08080771
Pt       8.42164233       6.48298347      24.58417367        2       0.00000000      -0.20738122       0.11743793       0.31554371
Pt       0.01455411      -0.04768156      26.99717816        1       0.00000000       0.01840602      -0.00807443       0.02109562
Pt       2.78873700      -0.04737205      27.00188526        1       0.00000000      -0.03293051      -0.00555952       0.03285275
Pt       5.61424333      -0.03769971      26.90342529        1       0.00000000      -0.00495020       0.03158537       0.01231133
Pt       1.40225324       2.45551062      26.86779268        1       0.00000000      -0.00137550       0.02330117      -0.00451638
Pt       4.21327328       2.38814456      26.91311083        1       0.00000000      -0.01726775       0.01793450      -0.00103874
Pt       7.01357441       2.38817716      26.91282104        1       0.00000000       0.01231190       0.01704831      -0.00242811
Pt       2.80801585       4.83193417      26.91347504        1       0.00000000      -0.01317488       0.00497392       0.01758941
Pt       5.61377007       4.77922570      26.88506677        1       0.00000000      -0.00004006      -0.03286229      -0.00432102
Pt       8.41949000       4.83340634      26.91274330        1       0.00000000       0.01154902       0.00471083       0.01693123
C        1.40865251       0.09001103      28.88429638        0       1.00000000       0.01264237      -0.01651978      -0.01136000
H        2.28596424      -0.47361683      29.26003487        0       0.00000000       0.01475071      -0.01792879       0.01457172
H        0.52507376      -0.47132929      29.25065692        0       0.00000000      -0.00563812      -0.01436187      -0.01184221
H        1.40578154       1.11743794      29.26369159        0       0.00000000       0.00681796       0.02177248      -0.00283379
