40
Lattice="8.421641763931781 0.0 0.0 4.2108208819658905 7.293355709136913 0.0 0.0 0.0 46.87624170604845" Properties=species:S:1:pos:R:3:tags:I:1:initial_magmoms:R:1:forces:R:3 charge=0 spin=0 energy=-206.89762045688354 free_energy=-206.89762045688354 stress="0.010385017842054367 -3.8496655179187655e-06 1.9223250546929194e-06 -3.8496655179187655e-06 0.010358603671193123 1.1904614439117722e-05 1.9223250546929194e-06 1.1904614439117722e-05 -0.0003243170795030892" pbc="T T T"
Pt       0.00000003       0.00000007      19.95723551        4       0.00000000       0.00198909      -0.00379770       0.01915919
Pt       2.80721399      -0.00000008      19.95723555        4       0.00000000      -0.00005203      -0.00027543       0.01332263
Pt       5.61442774      -0.00000012      19.95723554        4       0.00000000      -0.00170956      -0.00529395       0.01720674
Pt       1.40360717       2.43111834      19.95723540        4       0.00000000       0.00521192       0.00023666       0.01718254
Pt       4.21082076       2.43111843      19.95723549        4       0.00000000      -0.00382771      -0.00054890       0.01916102
Pt       7.01803486       2.43111843      19.95723547        4       0.00000000      -0.00002298      -0.00026551       0.02533174
Pt       2.80721421       4.86223732      19.95723529        4       0.00000000       0.00029824      -0.00022208      -0.03662829
Pt       5.61442794       4.86223731      19.95723540        4       0.00000000      -0.00315249       0.00373347       0.01723199
Pt       8.42164146       4.86223722      19.95723551        4       0.00000000       0.00175482       0.00303781       0.01927641
Pt       1.40360717       0.81037261      22.29206807        3       0.00000000       0.00293399       0.00067836      -0.00248338
Pt       4.21082122       0.81037254      22.29206808        3       0.00000000      -0.00044665      -0.00469902      -0.00228078
Pt       7.01803484       0.81037259      22.29206812        3       0.00000000       0.00443111      -0.01259201      -0.06682178
Pt       2.80721436       3.24149112      22.29206782        3       0.00000000      -0.00195207       0.07480803      -0.15147501
Pt       5.61442774       3.24149129      22.29206807        3       0.00000000      -0.01246368       0.00026572      -0.06740429
Pt       8.42164142       3.24149141      22.29206809        3       0.00000000       0.00747198       0.00830228      -0.06741193
Pt       4.21082097       5.67261006      22.29206778        3       0.00000000      -0.06439881      -0.04073539      -0.14943518
Pt       7.01803483       5.67260987      22.29206781        3       0.00000000      -0.00298717       0.00054508      -0.00256143
Pt       9.82524821       5.67261060      22.29206810        3       0.00000000       0.06675765      -0.03811994      -0.15027143
Pt      -0.00000049       1.62074561      24.58417352        2       0.00000000       0.00701732      -0.00030578      -0.02736278
Pt       2.80721437       1.62074550      24.58417378        2       0.00000000      -0.00367434      -0.24315920       0.25354588
Pt       5.61442785       1.62074544      24.58417371        2       0.00000000      -0.00660388       0.00032850      -0.02349191
Pt       1.40360647       4.05186444      24.58417385        2       0.00000000       0.00848855       0.01562102      -0.04804328
Pt       4.21082100       4.05186404      24.58417381        2       0.00000000      -0.00937369       0.01253441      -0.04843545
Pt       7.01803473       4.05186412      24.58417379        2       0.00000000       0.00065097       0.01379452      -0.01163288
Pt       2.80721284       6.48298340      24.58417356        2       0.00000000       0.00168611      -0.00800390      -0.05195082
Pt       5.61442787       6.48298334      24.58417388        2       0.00000000       0.21833758       0.12146279       0.25440615
Pt       8.42164233       6.48298347      24.58417367        2       0.00000000      -0.21377869       0.12986781       0.25650868
Pt       0.00339353       0.00215272      26.89536447        1       0.00000000      -0.00770840      -0.00178669       0.00770946
Pt       2.80976376       0.00880802      27.14689345        1       0.00000000      -0.01030593      -0.00865626       0.00332170
Pt       5.61452418       0.00198314      26.89655930        1       0.00000000       0.00166355      -0.00327524       0.00781402
Pt       1.40432271       2.43977478      26.89598260        1       0.00000000       0.01170101      -0.00189704       0.00471625
Pt       4.20825528       2.43869752      26.89489054        1       0.00000000       0.00340078      -0.00018446       0.00755954
Pt       7.01926242       2.43310063      26.90685152        1       0.00000000      -0.00429637       0.01528933      -0.00150665
Pt       2.80817484       4.86961891      26.91367265        1       0.00000000      -0.00126541      -0.00831893      -0.00349558
Pt       5.61239352       4.86907773      26.90002002        1       0.00000000       0.00364604      -0.00013211      -0.00772483
Pt       8.42399946       4.87136928      26.89875973        1       0.00000000      -0.00406269      -0.00900746      -0.00374004
C        2.79888613       0.02091858      29.23070772        0       1.00000000       0.02430312      -0.04042400       0.00805254
H        2.84239574       1.06659824      29.56876771        0       0.00000000      -0.00102738       0.00237512      -0.00227913
H        3.67896027      -0.53981362      29.58249883        0       0.00000000      -0.02516793       0.02048416      -0.02131290
H        1.87003462      -0.46126760      29.57041660        0       0.00000000       0.00653407       0.00833593      -0.00375661
