40
Lattice="8.421641763931781 0.0 0.0 4.2108208819658905 7.293355709136913 0.0 0.0 0.0 46.87624170604845" Properties=species:S:1:pos:R:3:tags:I:1:initial_magmoms:R:1:forces:R:3 charge=0 spin=0 energy=-205.99759604282104 free_energy=-205.99759604282104 stress="0.009894628077745438 -1.5125192476261873e-07 -2.641675109771313e-07 -1.5125192476261873e-07 0.009878118522465229 6.5018994064303115e-06 -2.641675109771313e-07 6.5018994064303115e-06 -0.00021357362857088447" pbc="T T T"
Pt       0.00000003       0.00000007      19.95723551        4       0.00000000      -0.00087962      -0.00198225       0.01803129
Pt       2.80721399      -0.00000008      19.95723555        4       0.00000000       0.00213909       0.00009871       0.01799300
Pt       5.61442774      -0.00000012      19.95723554        4       0.00000000       0.00151866       0.00669208       0.00686578
Pt       1.40360717       2.43111834      19.95723540        4       0.00000000      -0.00120366       0.00167281       0.01812029
Pt       4.21082076       2.43111843      19.95723549        4       0.00000000       0.00093772      -0.00036155       0.01732881
Pt       7.01803486       2.43111843      19.95723547        4       0.00000000      -0.00013168       0.00094087       0.01732249
Pt       2.80721421       4.86223732      19.95723529        4       0.00000000       0.00551394      -0.00489863       0.00653609
Pt       5.61442794       4.86223731      19.95723540        4       0.00000000      -0.00074965      -0.00062911       0.01716166
Pt       8.42164146       4.86223722      19.95723551        4       0.00000000      -0.00700586      -0.00229739       0.00656591
Pt       1.40360717       0.81037261      22.29206807        3       0.00000000       0.00002098      -0.00004300      -0.04262155
Pt       4.21082122       0.81037254      22.29206808        3       0.00000000       0.01470118      -0.01139346      -0.07537696
Pt       7.01803484       0.81037259      22.29206812        3       0.00000000      -0.01507540      -0.00763257      -0.07325029
Pt       2.80721436       3.24149112      22.29206782        3       0.00000000       0.00123675       0.01682978      -0.07409343
Pt       5.61442774       3.24149129      22.29206807        3       0.00000000      -0.00005084      -0.00009462      -0.06900044
Pt       8.42164142       3.24149141      22.29206809        3       0.00000000       0.00211173       0.01838056      -0.07605705
Pt       4.21082097       5.67261006      22.29206778        3       0.00000000      -0.01708303      -0.00766911      -0.07549705
Pt       7.01803483       5.67260987      22.29206781        3       0.00000000       0.01409878      -0.00971460      -0.07351366
Pt       9.82524821       5.67261060      22.29206810        3       0.00000000       0.00005473      -0.00138152      -0.04276759
Pt      -0.00000049       1.62074561      24.58417352        2       0.00000000       0.02971892      -0.01758423       0.02339363
Pt       2.80721437       1.62074550      24.58417378        2       0.00000000      -0.02854532      -0.01975785       0.02359592
Pt       5.61442785       1.62074544      24.58417371        2       0.00000000       0.00033682      -0.02062949      -0.07635371
Pt       1.40360647       4.05186444      24.58417385        2       0.00000000      -0.00659103      -0.16433196       0.23113140
Pt       4.21082100       4.05186404      24.58417381        2       0.00000000      -0.01846918       0.01059610      -0.07645045
Pt       7.01803473       4.05186412      24.58417379        2       0.00000000       0.01794891       0.01159966      -0.07653213
Pt       2.80721284       6.48298340      24.58417356        2       0.00000000       0.15039489       0.08005891       0.23804304
Pt       5.61442787       6.48298334      24.58417388        2       0.00000000      -0.00103651       0.03552347       0.02526935
Pt       8.42164233       6.48298347      24.58417367        2       0.00000000      -0.14424120       0.09193070       0.23845172
Pt      -0.03727412      -0.01801580      26.94194869        1       0.00000000       0.03478706       0.00276193      -0.01447058
Pt       2.84187914      -0.02240101      26.94213544        1       0.00000000      -0.01967615       0.02889855      -0.01490572
Pt       5.61492633       0.00026744      26.92121652        1       0.00000000      -0.00410525      -0.01153805      -0.01439440
Pt       1.40606858       2.47522049      26.93973549        1       0.00000000      -0.01514927      -0.02914445      -0.01638647
Pt       4.23084045       2.44093333      26.90438632        1       0.00000000      -0.02685303       0.00035960       0.00419043
Pt       6.99996729       2.44429500      26.90439537        1       0.00000000       0.01334215      -0.02283985       0.00418421
Pt       2.80681278       4.86278838      26.92133561        1       0.00000000      -0.00796571       0.01065065      -0.01395450
Pt       5.61246266       4.84068079      26.90437518        1       0.00000000       0.01320593       0.02328782       0.00434214
Pt       8.42141921       4.86377122      26.92132523        1       0.00000000       0.01239265       0.00297031      -0.01391003
C        1.40380947       0.80705598      28.72621027        0       1.00000000       0.00032301      -0.00305483       0.02544177
H        0.51656519       0.26954556      29.12676958        0       0.00000000       0.01980180       0.01544623      -0.00697994
H        1.38121513       1.84598896      29.12228555        0       0.00000000       0.00535456      -0.02778318      -0.01113871
H        2.31399918       0.30898194      29.12638181        0       0.00000000      -0.02512772       0.00606269      -0.00631425
