40
Lattice="8.421641763931781 0.0 0.0 4.2108208819658905 7.293355709136913 0.0 0.0 0.0 46.87624170604845" Properties=species:S:1:pos:R:3:tags:I:1:initial_magmoms:R:1:forces:R:3 charge=0 spin=0 energy=-206.8948738748523 free_energy=-206.8948738748523 stress="0.010369964875280857 -2.341844833608775e-07 5.1601300583570264e-06 -2.341844833608775e-07 0.010313577950000763 -3.138847205264028e-06 5.1601300583570264e-06 -3.138847205264028e-06 -0.0003374760563019663" pbc="T T T"
Pt       0.00000003       0.00000007      19.95723551        4       0.00000000      -0.00013100      -0.00069563       0.01318434
Pt       2.80721399      -0.00000008      19.95723555        4       0.00000000      -0.00136750      -0.00603354       0.01718823
Pt       5.61442774      -0.00000012      19.95723554        4       0.00000000       0.00198360      -0.00451343       0.01937397
Pt       1.40360717       2.43111834      19.95723540        4       0.00000000      -0.00389545      -0.00080298       0.01943780
Pt       4.21082076       2.43111843      19.95723549        4       0.00000000      -0.00015464      -0.00096508       0.02532391
Pt       7.01803486       2.43111843      19.95723547        4       0.00000000       0.00542006      -0.00030053       0.01712133
Pt       2.80721421       4.86223732      19.95723529        4       0.00000000      -0.00293740       0.00308370       0.01747926
Pt       5.61442794       4.86223731      19.95723540        4       0.00000000       0.00222956       0.00230332       0.01939823
Pt       8.42164146       4.86223722      19.95723551        4       0.00000000      -0.00006601      -0.00036261      -0.03692848
Pt       1.40360717       0.81037261      22.29206807        3       0.00000000      -0.00115766      -0.00691356      -0.00499785
Pt       4.21082122       0.81037254      22.29206808        3       0.00000000       0.00389146      -0.01471200      -0.06535775
Pt       7.01803484       0.81037259      22.29206812        3       0.00000000       0.00412242      -0.00178754      -0.00275493
Pt       2.80721436       3.24149112      22.29206782        3       0.00000000      -0.01230199      -0.00126027      -0.06653091
Pt       5.61442774       3.24149129      22.29206807        3       0.00000000       0.00756543       0.00533065      -0.06730648
Pt       8.42164142       3.24149141      22.29206809        3       0.00000000      -0.00179322       0.07225423      -0.15073392
Pt       4.21082097       5.67261006      22.29206778        3       0.00000000      -0.00298141      -0.00192767      -0.00532316
Pt       7.01803483       5.67260987      22.29206781        3       0.00000000       0.06623423      -0.03978660      -0.14827994
Pt       9.82524821       5.67261060      22.29206810        3       0.00000000      -0.06403106      -0.04258851      -0.14956462
Pt      -0.00000049       1.62074561      24.58417352        2       0.00000000      -0.00083228      -0.23463656       0.26690954
Pt       2.80721437       1.62074550      24.58417378        2       0.00000000      -0.00804563       0.00942720      -0.00825862
Pt       5.61442785       1.62074544      24.58417371        2       0.00000000       0.00637340       0.00662803      -0.02906212
Pt       1.40360647       4.05186444      24.58417385        2       0.00000000      -0.01316429       0.01293596      -0.05237402
Pt       4.21082100       4.05186404      24.58417381        2       0.00000000       0.00013953       0.02144219      -0.00849118
Pt       7.01803473       4.05186412      24.58417379        2       0.00000000       0.01287732       0.02603993      -0.04871380
Pt       2.80721284       6.48298340      24.58417356        2       0.00000000       0.20699048       0.13231446       0.24505576
Pt       5.61442787       6.48298334      24.58417388        2       0.00000000      -0.20166369       0.12975945       0.24788333
Pt       8.42164233       6.48298347      24.58417367        2       0.00000000      -0.00186094      -0.00262197      -0.04943351
Pt       0.00268697       0.00102737      27.13828226        1       0.00000000      -0.00923585       0.03976290       0.01718728
Pt       2.80468655       0.01101597      26.90015741        1       0.00000000       0.01458559      -0.00631354      -0.01359088
Pt       5.61046814       0.01684491      26.89612145        1       0.00000000       0.01923340      -0.02200207       0.01526092
Pt       1.40254599       2.44767400      26.89838437        1       0.00000000      -0.01023672      -0.02059458      -0.00593724
Pt       4.21528069       2.44651759      26.90898045        1       0.00000000      -0.02745630      -0.00491458      -0.00810441
Pt       7.01822290       2.44784823      26.89627941        1       0.00000000       0.02945811      -0.01263713      -0.00177883
Pt       2.79967385       4.88214865      26.89779883        1       0.00000000       0.01264263      -0.03141762      -0.00550182
Pt       5.61964525       4.87506670      26.89989808        1       0.00000000      -0.00504035       0.00222628      -0.00435571
Pt       8.42646571       4.87948839      26.91494308        1       0.00000000      -0.02056774      -0.02125403      -0.00465094
C        0.00757924       0.00585953      29.22264312        0       1.00000000      -0.02419954       0.02194490      -0.02984650
H        1.05253745       0.01356163      29.56226941        0       0.00000000       0.02889381      -0.00461066       0.01445944
H       -0.51395452      -0.89382768      29.57825538        0       0.00000000      -0.00185701      -0.03796306      -0.01531207
H       -0.51790138       0.91228227      29.55371545        0       0.00000000      -0.00766368       0.03616252       0.02792628
