40
Lattice="8.421641763931781 0.0 0.0 4.2108208819658905 7.293355709136913 0.0 0.0 0.0 46.87624170604845" Properties=species:S:1:pos:R:3:tags:I:1:initial_magmoms:R:1:forces:R:3 charge=0 spin=0 energy=-206.89216353244507 free_energy=-206.89216353244507 stress="0.010453139431774616 -1.111164328904124e-05 2.080214471789077e-06 -1.111164328904124e-05 0.010325964540243149 5.7390749134356156e-05 2.080214471789077e-06 5.7390749134356156e-05 -0.00034632807364687324" pbc="T T T"
Pt       0.00000003       0.00000007      19.95723551        4       0.00000000       0.00233279      -0.00580666       0.01881634
Pt       2.80721399      -0.00000008      19.95723555        4       0.00000000       0.00047607      -0.00202764       0.01296856
Pt       5.61442774      -0.00000012      19.95723554        4       0.00000000      -0.00120737      -0.00735493       0.01678825
Pt       1.40360717       2.43111834      19.95723540        4       0.00000000       0.00544922      -0.00215971       0.01721492
Pt       4.21082076       2.43111843      19.95723549        4       0.00000000      -0.00335272      -0.00250088       0.01935694
Pt       7.01803486       2.43111843      19.95723547        4       0.00000000       0.00005086      -0.00254095       0.02514357
Pt       2.80721421       4.86223732      19.95723529        4       0.00000000       0.00002430       0.00073378      -0.03673594
Pt       5.61442794       4.86223731      19.95723540        4       0.00000000      -0.00262104       0.00199698       0.01764355
Pt       8.42164146       4.86223722      19.95723551        4       0.00000000       0.00240750       0.00119434       0.01933911
Pt       1.40360717       0.81037261      22.29206807        3       0.00000000       0.00365110      -0.00743343      -0.00002763
Pt       4.21082122       0.81037254      22.29206808        3       0.00000000      -0.00068786      -0.01129416      -0.00127067
Pt       7.01803484       0.81037259      22.29206812        3       0.00000000       0.00489700      -0.01999271      -0.06640906
Pt       2.80721436       3.24149112      22.29206782        3       0.00000000      -0.00163377       0.07225846      -0.15694526
Pt       5.61442774       3.24149129      22.29206807        3       0.00000000      -0.01236547      -0.00734233      -0.06582788
Pt       8.42164142       3.24149141      22.29206809        3       0.00000000       0.00797168      -0.00001030      -0.06750739
Pt       4.21082097       5.67261006      22.29206778        3       0.00000000      -0.06339024      -0.04782643      -0.14904378
Pt       7.01803483       5.67260987      22.29206781        3       0.00000000      -0.00178942      -0.00846308      -0.00807254
Pt       9.82524821       5.67261060      22.29206810        3       0.00000000       0.06458583      -0.04418512      -0.14783353
Pt      -0.00000049       1.62074561      24.58417352        2       0.00000000       0.00873674       0.03001988      -0.01640902
Pt       2.80721437       1.62074550      24.58417378        2       0.00000000      -0.00293229      -0.22302207       0.27413782
Pt       5.61442785       1.62074544      24.58417371        2       0.00000000      -0.01365671       0.02240751      -0.00472080
Pt       1.40360647       4.05186444      24.58417385        2       0.00000000       0.00651447       0.04014556      -0.04117526
Pt       4.21082100       4.05186404      24.58417381        2       0.00000000      -0.01015175       0.03260076      -0.04784118
Pt       7.01803473       4.05186412      24.58417379        2       0.00000000      -0.00133112       0.03705861      -0.01707939
Pt       2.80721284       6.48298340      24.58417356        2       0.00000000      -0.00470935       0.02446625      -0.04626923
Pt       5.61442787       6.48298334      24.58417388        2       0.00000000       0.20729171       0.14951345       0.23869634
Pt       8.42164233       6.48298347      24.58417367        2       0.00000000      -0.20282035       0.15535878       0.24817289
Pt       0.00087387       0.03620234      26.89842878        1       0.00000000      -0.03443785      -0.01688800      -0.00150188
Pt       2.79882261       0.03831975      27.14410934        1       0.00000000       0.03856231      -0.00956579      -0.02066420
Pt       5.60857920       0.03277070      26.90164634        1       0.00000000       0.01290623      -0.01224240      -0.00598762
Pt       1.40787335       2.47080417      26.89873975        1       0.00000000      -0.01015622      -0.01091818       0.00047165
Pt       4.20359363       2.47029186      26.90099382        1       0.00000000       0.01779242      -0.02053934      -0.01675503
Pt       7.01606831       2.46656837      26.90772387        1       0.00000000      -0.00447587      -0.01347417      -0.00558508
Pt       2.81004213       4.90644377      26.91140280        1       0.00000000      -0.02519722      -0.04120963       0.00491330
Pt       5.61192190       4.90265383      26.89889599        1       0.00000000      -0.00952506      -0.02907181      -0.00160053
Pt       8.41816000       4.89993288      26.90055513        1       0.00000000       0.02589374      -0.01932759      -0.01994112
C        2.79543859       0.01958445      29.22545131        0       1.00000000       0.01946041      -0.00266912       0.02260267
H        3.31186176      -0.89504880      29.55380537        0       0.00000000      -0.01889020       0.01579691       0.01812211
H        1.74747776       0.02135703      29.55985670        0       0.00000000       0.01048432      -0.00346234       0.01969127
H        3.32326379       0.91548391      29.58668984        0       0.00000000      -0.01415715      -0.01222234      -0.02887530
