40
Lattice="8.421641763931781 0.0 0.0 4.2108208819658905 7.293355709136913 0.0 0.0 0.0 46.87624170604845" Properties=species:S:1:pos:R:3:tags:I:1:initial_magmoms:R:1:forces:R:3 charge=0 spin=0 energy=-205.99792219943726 free_energy=-205.99792219943726 stress="0.009844327345490456 1.1425595403125044e-07 4.830429034541339e-08 1.1425595403125044e-07 0.009838650934398174 3.333249878778588e-06 4.830429034541339e-08 3.333249878778588e-06 -0.000297008256893605" pbc="T T T"
Pt       0.00000003       0.00000007      19.95723551        4       0.00000000      -0.00074362      -0.00203534       0.01783619
Pt       2.80721399      -0.00000008      19.95723555        4       0.00000000       0.00213321       0.00033220       0.01780530
Pt       5.61442774      -0.00000012      19.95723554        4       0.00000000       0.00167836       0.00714054       0.00676671
Pt       1.40360717       2.43111834      19.95723540        4       0.00000000      -0.00136762       0.00162524       0.01789473
Pt       4.21082076       2.43111843      19.95723549        4       0.00000000       0.00082740      -0.00051237       0.01734565
Pt       7.01803486       2.43111843      19.95723547        4       0.00000000       0.00002320       0.00090437       0.01735485
Pt       2.80721421       4.86223732      19.95723529        4       0.00000000       0.00551578      -0.00510771       0.00671758
Pt       5.61442794       4.86223731      19.95723540        4       0.00000000      -0.00082883      -0.00044860       0.01725313
Pt       8.42164146       4.86223722      19.95723551        4       0.00000000      -0.00719874      -0.00224109       0.00670738
Pt       1.40360717       0.81037261      22.29206807        3       0.00000000       0.00000435       0.00001214      -0.04305390
Pt       4.21082122       0.81037254      22.29206808        3       0.00000000       0.01558273      -0.01115483      -0.07488959
Pt       7.01803484       0.81037259      22.29206812        3       0.00000000      -0.01507142      -0.00764965      -0.07308143
Pt       2.80721436       3.24149112      22.29206782        3       0.00000000       0.00108003       0.01677021      -0.07339315
Pt       5.61442774       3.24149129      22.29206807        3       0.00000000      -0.00002003      -0.00006146      -0.06995697
Pt       8.42164142       3.24149141      22.29206809        3       0.00000000       0.00165058       0.01906088      -0.07510526
Pt       4.21082097       5.67261006      22.29206778        3       0.00000000      -0.01734335      -0.00824605      -0.07476910
Pt       7.01803483       5.67260987      22.29206781        3       0.00000000       0.01405519      -0.00942905      -0.07312928
Pt       9.82524821       5.67261060      22.29206810        3       0.00000000       0.00000690      -0.00058998      -0.04375502
Pt      -0.00000049       1.62074561      24.58417352        2       0.00000000       0.02769456      -0.01637136       0.00765510
Pt       2.80721437       1.62074550      24.58417378        2       0.00000000      -0.02747421      -0.01669702       0.00772295
Pt       5.61442785       1.62074544      24.58417371        2       0.00000000      -0.00271263      -0.02514146      -0.08288403
Pt       1.40360647       4.05186444      24.58417385        2       0.00000000      -0.00630679      -0.16492994       0.23292966
Pt       4.21082100       4.05186404      24.58417381        2       0.00000000      -0.02069163       0.01523123      -0.08223171
Pt       7.01803473       4.05186412      24.58417379        2       0.00000000       0.02335211       0.01086594      -0.08228447
Pt       2.80721284       6.48298340      24.58417356        2       0.00000000       0.14850004       0.07854643       0.23468237
Pt       5.61442787       6.48298334      24.58417388        2       0.00000000      -0.00015572       0.03207363       0.00883708
Pt       8.42164233       6.48298347      24.58417367        2       0.00000000      -0.14216042       0.08981756       0.23452753
Pt      -0.03217156      -0.01841303      26.93918703        1       0.00000000      -0.01293652      -0.00990024      -0.00885077
Pt       2.83949973      -0.01834828      26.93920385        1       0.00000000       0.01522316      -0.00576740      -0.00888488
Pt       5.61414042      -0.00068836      26.92111762        1       0.00000000       0.00186038      -0.00979627      -0.01550301
Pt       1.40355391       2.46996777      26.93820989        1       0.00000000      -0.00230079       0.01601660      -0.00951701
Pt       4.22865951       2.44345029      26.90192336        1       0.00000000      -0.01541603      -0.00962293       0.01659169
Pt       6.99860414       2.44060300      26.90191684        1       0.00000000       0.01674794      -0.00707875       0.01658744
Pt       2.80677430       4.86369963      26.92137060        1       0.00000000      -0.01031852       0.00237082      -0.01657913
Pt       5.61607258       4.84056920      26.90211214        1       0.00000000      -0.00145427       0.02048762       0.01610074
Pt       8.42238540       4.86318963      26.92136726        1       0.00000000       0.00860541       0.00545011      -0.01656242
C        1.40357731       0.80990306      28.72973462        0       1.00000000      -0.00016403       0.00276250      -0.04443251
H        1.39617154       1.84835078      29.12211325        0       0.00000000      -0.00001065       0.01428457       0.02082543
H        2.30582336       0.29832431      29.12477832        0       0.00000000       0.01700343      -0.01064632       0.02334372
H        0.50872470       0.28547693      29.12477775        0       0.00000000      -0.01686871      -0.01032456       0.02337839
