40
Lattice="8.421641763931781 0.0 0.0 4.2108208819658905 7.293355709136913 0.0 0.0 0.0 46.87624170604845" Properties=species:S:1:pos:R:3:tags:I:1:initial_magmoms:R:1:forces:R:3 charge=0 spin=0 energy=-206.89628531284058 free_energy=-206.89628531284058 stress="0.010364427231252193 5.1437456960456984e-08 -9.040023840611866e-09 5.1437456960456984e-08 0.010364362969994545 1.0896265933979521e-07 -9.040023840611866e-09 1.0896265933979521e-07 -0.0003273246984463185" pbc="T T T"
Pt       0.00000003       0.00000007      19.95723551        4       0.00000000       0.00000114      -0.00000136       0.01356682
Pt       2.80721399      -0.00000008      19.95723555        4       0.00000000      -0.00175379      -0.00508952       0.01698532
Pt       5.61442774      -0.00000012      19.95723554        4       0.00000000       0.00190849      -0.00339113       0.01938905
Pt       1.40360717       2.43111834      19.95723540        4       0.00000000      -0.00390389       0.00005458       0.01933699
Pt       4.21082076       2.43111843      19.95723549        4       0.00000000       0.00000116      -0.00000333       0.02549211
Pt       7.01803486       2.43111843      19.95723547        4       0.00000000       0.00529975       0.00100766       0.01697981
Pt       2.80721421       4.86223732      19.95723529        4       0.00000000      -0.00354791       0.00407628       0.01706986
Pt       5.61442794       4.86223731      19.95723540        4       0.00000000       0.00199335       0.00333611       0.01938196
Pt       8.42164146       4.86223722      19.95723551        4       0.00000000       0.00000293       0.00000476      -0.03659850
Pt       1.40360717       0.81037261      22.29206807        3       0.00000000      -0.00024986      -0.00409259      -0.00410341
Pt       4.21082122       0.81037254      22.29206808        3       0.00000000       0.00407459      -0.01125354      -0.06719263
Pt       7.01803484       0.81037259      22.29206812        3       0.00000000       0.00362870       0.00185907      -0.00412771
Pt       2.80721436       3.24149112      22.29206782        3       0.00000000      -0.01179662       0.00207128      -0.06696013
Pt       5.61442774       3.24149129      22.29206807        3       0.00000000       0.00772023       0.00918297      -0.06698553
Pt       8.42164142       3.24149141      22.29206809        3       0.00000000      -0.00167156       0.07535046      -0.14944272
Pt       4.21082097       5.67261006      22.29206778        3       0.00000000      -0.00337979       0.00220185      -0.00392949
Pt       7.01803483       5.67260987      22.29206781        3       0.00000000       0.06605872      -0.03624203      -0.14943194
Pt       9.82524821       5.67261060      22.29206810        3       0.00000000      -0.06438278      -0.03911104      -0.14942937
Pt      -0.00000049       1.62074561      24.58417352        2       0.00000000      -0.00123222      -0.24653068       0.25648105
Pt       2.80721437       1.62074550      24.58417378        2       0.00000000      -0.00791832      -0.00026789      -0.01631651
Pt       5.61442785       1.62074544      24.58417371        2       0.00000000       0.00407098      -0.00669395      -0.01632392
Pt       1.40360647       4.05186444      24.58417385        2       0.00000000      -0.02089377       0.00435446      -0.05072421
Pt       4.21082100       4.05186404      24.58417381        2       0.00000000       0.00378536       0.00690494      -0.01639469
Pt       7.01803473       4.05186412      24.58417379        2       0.00000000       0.01442703       0.01580558      -0.05084340
Pt       2.80721284       6.48298340      24.58417356        2       0.00000000       0.21398517       0.12225626       0.25656924
Pt       5.61442787       6.48298334      24.58417388        2       0.00000000      -0.21272804       0.12446348       0.25645751
Pt       8.42164233       6.48298347      24.58417367        2       0.00000000       0.00648494      -0.02012703      -0.05068770
Pt      -0.00000070       0.00011469      27.14586962        1       0.00000000      -0.00000292      -0.00015986      -0.01030498
Pt       2.81108681      -0.00380780      26.89463111        1       0.00000000      -0.01649606      -0.00185330       0.00678389
Pt       5.61365537      -0.00266774      26.89699389        1       0.00000000       0.01535408      -0.00103803       0.00589708
Pt       1.40167998       2.43314121      26.89696752        1       0.00000000      -0.00864141      -0.01281991       0.00563826
Pt       4.21082029       2.43113152      26.91158893        1       0.00000000      -0.00000892       0.00001726      -0.01660307
Pt       7.01939153       2.43640081      26.89458778        1       0.00000000       0.00987025      -0.01339248       0.00657383
Pt       2.80199113       4.86083337      26.89457823        1       0.00000000       0.00662852       0.01531966       0.00678675
Pt       5.61711813       4.86295623      26.89689896        1       0.00000000      -0.00670802       0.01393883       0.00559118
Pt       8.42164290       4.86225435      26.92089277        1       0.00000000       0.00002121       0.00002865      -0.02130522
C        0.00000032      -0.00002802      29.22936119        0       1.00000000      -0.00000453      -0.00009985      -0.02142447
H        1.04509362      -0.00192962      29.57108237        0       0.00000000       0.01144795       0.00015772       0.00471583
H       -0.52415921      -0.90425529      29.57086655        0       0.00000000      -0.00537526      -0.01002409       0.00509223
H       -0.52093498       0.90589959      29.57130096        0       0.00000000      -0.00606891       0.00979974       0.00434074
