40
Lattice="8.421641763931781 0.0 0.0 4.2108208819658905 7.293355709136913 0.0 0.0 0.0 46.87624170604845" Properties=species:S:1:pos:R:3:tags:I:1:initial_magmoms:R:1:forces:R:3 charge=0 spin=0 energy=-206.89748884982788 free_energy=-206.89748884982788 stress="0.010370940901339054 4.398234977998072e-06 5.197877271712059e-06 4.398234977998072e-06 0.010370127856731415 -3.3165847526106518e-06 5.197877271712059e-06 -3.3165847526106518e-06 -0.0003297946532256901" pbc="T T T"
Pt       0.00000003       0.00000007      19.95723551        4       0.00000000      -0.00011235       0.00038974       0.01314725
Pt       2.80721399      -0.00000008      19.95723555        4       0.00000000      -0.00238481      -0.00472117       0.01712063
Pt       5.61442774      -0.00000012      19.95723554        4       0.00000000       0.00151304      -0.00301928       0.01962251
Pt       1.40360717       2.43111834      19.95723540        4       0.00000000      -0.00448642       0.00040223       0.01943137
Pt       4.21082076       2.43111843      19.95723549        4       0.00000000      -0.00053569       0.00011751       0.02545300
Pt       7.01803486       2.43111843      19.95723547        4       0.00000000       0.00500335       0.00124361       0.01731064
Pt       2.80721421       4.86223732      19.95723529        4       0.00000000      -0.00335201       0.00442072       0.01716959
Pt       5.61442794       4.86223731      19.95723540        4       0.00000000       0.00150121       0.00371021       0.01951432
Pt       8.42164146       4.86223722      19.95723551        4       0.00000000       0.00015350      -0.00015167      -0.03688860
Pt       1.40360717       0.81037261      22.29206807        3       0.00000000      -0.00173837      -0.00214643      -0.00285661
Pt       4.21082122       0.81037254      22.29206808        3       0.00000000       0.00311362      -0.01047928      -0.06629336
Pt       7.01803484       0.81037259      22.29206812        3       0.00000000       0.00156633       0.00274540      -0.00570028
Pt       2.80721436       3.24149112      22.29206782        3       0.00000000      -0.01290828       0.00340775      -0.06666803
Pt       5.61442774       3.24149129      22.29206807        3       0.00000000       0.00616681       0.01012215      -0.06605065
Pt       8.42164142       3.24149141      22.29206809        3       0.00000000      -0.00290079       0.07669371      -0.14925432
Pt       4.21082097       5.67261006      22.29206778        3       0.00000000      -0.00410178       0.00356131      -0.00166955
Pt       7.01803483       5.67260987      22.29206781        3       0.00000000       0.06638405      -0.03572961      -0.15129942
Pt       9.82524821       5.67261060      22.29206810        3       0.00000000      -0.06493483      -0.03784799      -0.15232730
Pt      -0.00000049       1.62074561      24.58417352        2       0.00000000       0.00696924      -0.24367796       0.25257775
Pt       2.80721437       1.62074550      24.58417378        2       0.00000000      -0.00767064      -0.00682115      -0.01517271
Pt       5.61442785       1.62074544      24.58417371        2       0.00000000       0.01190731      -0.00780739      -0.01727688
Pt       1.40360647       4.05186444      24.58417385        2       0.00000000      -0.01182634      -0.00715602      -0.03739373
Pt       4.21082100       4.05186404      24.58417381        2       0.00000000       0.00903667       0.00835965      -0.00984036
Pt       7.01803473       4.05186412      24.58417379        2       0.00000000       0.01517646       0.00822825      -0.04565394
Pt       2.80721284       6.48298340      24.58417356        2       0.00000000       0.21541578       0.11339570       0.25135601
Pt       5.61442787       6.48298334      24.58417388        2       0.00000000      -0.20928365       0.11660893       0.25356528
Pt       8.42164233       6.48298347      24.58417367        2       0.00000000       0.00462380      -0.01475502      -0.04256534
Pt       0.00471780      -0.00634445      27.14294356        1       0.00000000      -0.00820866       0.00255835      -0.01117482
Pt       2.80433305      -0.00841151      26.89794299        1       0.00000000       0.03560229      -0.00548063      -0.00148008
Pt       5.62036807      -0.00466750      26.89742501        1       0.00000000      -0.00780426      -0.01096826      -0.00267930
Pt       1.40846227       2.42243736      26.90387711        1       0.00000000      -0.01369533       0.03106054      -0.01841197
Pt       4.21485811       2.42472132      26.90656884        1       0.00000000       0.00404220       0.00845758      -0.00306295
Pt       7.02919940       2.42845916      26.89603335        1       0.00000000      -0.00669581       0.00928501       0.00200689
Pt       2.80908490       4.85774351      26.89700979        1       0.00000000      -0.00775369       0.00216911      -0.00229134
Pt       5.62472155       4.85845068      26.90105632        1       0.00000000      -0.01315420      -0.00365821      -0.01220760
Pt       8.42871003       4.86085206      26.91484255        1       0.00000000      -0.00394247      -0.01196415      -0.00897903
C       -0.00078885      -0.00907885      29.22445330        0       1.00000000      -0.01956415       0.01093771       0.01973105
H        0.96253224       0.39118951      29.57310039        0       0.00000000      -0.00182470       0.01065017      -0.00439539
H       -0.13655562      -1.04586986      29.56369795        0       0.00000000       0.00207541      -0.02487773       0.00663809
H       -0.83506711       0.62226263      29.56549898        0       0.00000000       0.01862833       0.00273639      -0.00305090
