40
Lattice="8.421641763931781 0.0 0.0 4.2108208819658905 7.293355709136913 0.0 0.0 0.0 46.87624170604845" Properties=species:S:1:pos:R:3:tags:I:1:initial_magmoms:R:1:forces:R:3 charge=0 spin=0 energy=-206.89771963901245 free_energy=-206.89771963901245 stress="0.010364536195993423 1.1187259119083137e-08 -7.732809947924579e-10 1.1187259119083137e-08 0.0103646544739604 2.2494377560633438e-07 -7.732809947924579e-10 2.2494377560633438e-07 -0.000325792032526806" pbc="T T T"
Pt       0.00000003       0.00000007      19.95723551        4       0.00000000       0.00000119       0.00000068       0.01352961
Pt       2.80721399      -0.00000008      19.95723555        4       0.00000000      -0.00176796      -0.00484140       0.01707828
Pt       5.61442774      -0.00000012      19.95723554        4       0.00000000       0.00187115      -0.00343980       0.01921250
Pt       1.40360717       2.43111834      19.95723540        4       0.00000000      -0.00392944       0.00011916       0.01915642
Pt       4.21082076       2.43111843      19.95723549        4       0.00000000       0.00000136      -0.00000052       0.02539370
Pt       7.01803486       2.43111843      19.95723547        4       0.00000000       0.00509474       0.00088046       0.01707044
Pt       2.80721421       4.86223732      19.95723529        4       0.00000000      -0.00333085       0.00396877       0.01716306
Pt       5.61442794       4.86223731      19.95723540        4       0.00000000       0.00205685       0.00333055       0.01920247
Pt       8.42164146       4.86223722      19.95723551        4       0.00000000       0.00000247      -0.00000713      -0.03641201
Pt       1.40360717       0.81037261      22.29206807        3       0.00000000      -0.00047383      -0.00356969      -0.00393958
Pt       4.21082122       0.81037254      22.29206808        3       0.00000000       0.00439201      -0.01119625      -0.06744958
Pt       7.01803484       0.81037259      22.29206812        3       0.00000000       0.00330071       0.00142396      -0.00395535
Pt       2.80721436       3.24149112      22.29206782        3       0.00000000      -0.01191142       0.00178366      -0.06722940
Pt       5.61442774       3.24149129      22.29206807        3       0.00000000       0.00752023       0.00944593      -0.06725343
Pt       8.42164142       3.24149141      22.29206809        3       0.00000000      -0.00181625       0.07551298      -0.14930250
Pt       4.21082097       5.67261006      22.29206778        3       0.00000000      -0.00282909       0.00215891      -0.00372872
Pt       7.01803483       5.67260987      22.29206781        3       0.00000000       0.06628464      -0.03619604      -0.14932695
Pt       9.82524821       5.67261060      22.29206810        3       0.00000000      -0.06446314      -0.03931065      -0.14931849
Pt      -0.00000049       1.62074561      24.58417352        2       0.00000000      -0.00309375      -0.24661951       0.25709909
Pt       2.80721437       1.62074550      24.58417378        2       0.00000000      -0.00411781      -0.00201738      -0.01768715
Pt       5.61442785       1.62074544      24.58417371        2       0.00000000       0.00362930      -0.00261808      -0.01769955
Pt       1.40360647       4.05186444      24.58417385        2       0.00000000      -0.01752528       0.00771896      -0.04998745
Pt       4.21082100       4.05186404      24.58417381        2       0.00000000       0.00041770       0.00447656      -0.01763900
Pt       7.01803473       4.05186412      24.58417379        2       0.00000000       0.01566599       0.01120933      -0.05012627
Pt       2.80721284       6.48298340      24.58417356        2       0.00000000       0.21498682       0.12057312       0.25748393
Pt       5.61442787       6.48298334      24.58417388        2       0.00000000      -0.21185781       0.12601854       0.25736415
Pt       8.42164233       6.48298347      24.58417367        2       0.00000000       0.00189082      -0.01895781      -0.04997907
Pt       0.00000041       0.00003739      27.14560126        1       0.00000000      -0.00000257      -0.00009759      -0.00959398
Pt       2.80971826      -0.00333205      26.89599578        1       0.00000000      -0.01562169      -0.00264797       0.00641111
Pt       5.61218382      -0.00219266      26.89569767        1       0.00000000       0.01470628      -0.00188549       0.00688878
Pt       1.40284814       2.43408704      26.89565103        1       0.00000000      -0.00886737      -0.01174513       0.00671444
Pt       4.21082033       2.43108581      26.91321712        1       0.00000000      -0.00001532       0.00003167      -0.01895482
Pt       7.01964202       2.43488140      26.89592868        1       0.00000000       0.00996379      -0.01216423       0.00616196
Pt       2.80310210       4.86168126      26.89597120        1       0.00000000       0.00568999       0.01507014       0.00611521
Pt       5.61743715       4.86133889      26.89562948        1       0.00000000      -0.00587258       0.01390750       0.00655834
Pt       8.42164511       4.86220552      26.91986616        1       0.00000000       0.00001656       0.00004888      -0.01997683
C       -0.00000397       0.00035352      29.22906248        0       1.00000000      -0.00000221      -0.00019746      -0.02306177
H       -0.00031665       1.04542332      29.57070082        0       0.00000000       0.00023005       0.01274814       0.00447458
H        0.90519402      -0.52187959      29.57077510        0       0.00000000       0.01100324      -0.00664577       0.00477153
H       -0.90489358      -0.52241616      29.57077279        0       0.00000000      -0.01122764      -0.00627000       0.00477229
