40
Lattice="8.421641763931781 0.0 0.0 4.2108208819658905 7.293355709136913 0.0 0.0 0.0 46.87624170604845" Properties=species:S:1:pos:R:3:tags:I:1:initial_magmoms:R:1:forces:R:3 charge=0 spin=0 energy=-205.99759222812378 free_energy=-205.99759222812378 stress="0.00989487674087286 -1.5925722607335047e-07 -2.578505586825486e-07 -1.5925722607335047e-07 0.009878399781882763 6.48841705697123e-06 -2.578505586825486e-07 6.48841705697123e-06 -0.00021330500021576881" pbc="T T T"
Pt       0.00000003       0.00000007      19.95723551        4       0.00000000      -0.00087908      -0.00198090       0.01803150
Pt       2.80721399      -0.00000008      19.95723555        4       0.00000000       0.00213820       0.00009872       0.01799293
Pt       5.61442774      -0.00000012      19.95723554        4       0.00000000       0.00151834       0.00669283       0.00686582
Pt       1.40360717       2.43111834      19.95723540        4       0.00000000      -0.00120293       0.00167210       0.01812052
Pt       4.21082076       2.43111843      19.95723549        4       0.00000000       0.00093676      -0.00036139       0.01732962
Pt       7.01803486       2.43111843      19.95723547        4       0.00000000      -0.00013134       0.00094008       0.01732317
Pt       2.80721421       4.86223732      19.95723529        4       0.00000000       0.00551398      -0.00489861       0.00653662
Pt       5.61442794       4.86223731      19.95723540        4       0.00000000      -0.00074926      -0.00062824       0.01716240
Pt       8.42164146       4.86223722      19.95723551        4       0.00000000      -0.00700559      -0.00229736       0.00656659
Pt       1.40360717       0.81037261      22.29206807        3       0.00000000       0.00002050      -0.00004328      -0.04261163
Pt       4.21082122       0.81037254      22.29206808        3       0.00000000       0.01470294      -0.01139431      -0.07537757
Pt       7.01803484       0.81037259      22.29206812        3       0.00000000      -0.01507726      -0.00763418      -0.07324841
Pt       2.80721436       3.24149112      22.29206782        3       0.00000000       0.00123645       0.01683170      -0.07408950
Pt       5.61442774       3.24149129      22.29206807        3       0.00000000      -0.00005030      -0.00009498      -0.06900134
Pt       8.42164142       3.24149141      22.29206809        3       0.00000000       0.00211284       0.01838200      -0.07605699
Pt       4.21082097       5.67261006      22.29206778        3       0.00000000      -0.01708350      -0.00766911      -0.07549843
Pt       7.01803483       5.67260987      22.29206781        3       0.00000000       0.01410125      -0.00971504      -0.07351130
Pt       9.82524821       5.67261060      22.29206810        3       0.00000000       0.00005539      -0.00137913      -0.04277997
Pt      -0.00000049       1.62074561      24.58417352        2       0.00000000       0.02972668      -0.01758441       0.02342492
Pt       2.80721437       1.62074550      24.58417378        2       0.00000000      -0.02855076      -0.01975705       0.02362616
Pt       5.61442785       1.62074544      24.58417371        2       0.00000000       0.00034339      -0.02061762      -0.07630460
Pt       1.40360647       4.05186444      24.58417385        2       0.00000000      -0.00658478      -0.16436727       0.23115809
Pt       4.21082100       4.05186404      24.58417381        2       0.00000000      -0.01846033       0.01058025      -0.07639976
Pt       7.01803473       4.05186412      24.58417379        2       0.00000000       0.01793171       0.01160056      -0.07648462
Pt       2.80721284       6.48298340      24.58417356        2       0.00000000       0.15041074       0.08007698       0.23806123
Pt       5.61442787       6.48298334      24.58417388        2       0.00000000      -0.00103951       0.03552592       0.02529657
Pt       8.42164233       6.48298347      24.58417367        2       0.00000000      -0.14426304       0.09193605       0.23846698
Pt      -0.03726803      -0.01800856      26.94196242        1       0.00000000       0.03469501       0.00270625      -0.01453554
Pt       2.84186747      -0.02239948      26.94214848        1       0.00000000      -0.01958247       0.02885145      -0.01495280
Pt       5.61492079       0.00026079      26.92121608        1       0.00000000      -0.00406898      -0.01147971      -0.01440280
Pt       1.40607227       2.47520582      26.93975495        1       0.00000000      -0.01515457      -0.02904624      -0.01644188
Pt       4.23083437       2.44092179      26.90439207        1       0.00000000      -0.02677836       0.00044002       0.00414581
Pt       6.99997870       2.44429484      26.90440002        1       0.00000000       0.01323790      -0.02282145       0.00414946
Pt       2.80680913       4.86279461      26.92133375        1       0.00000000      -0.00792848       0.01058999      -0.01395280
Pt       5.61245613       4.84069026      26.90438001        1       0.00000000       0.01323517       0.02318523       0.00429570
Pt       8.42142798       4.86376858      26.92132460        1       0.00000000       0.01231978       0.00297187      -0.01390957
C        1.40381059       0.80706138      28.72623623        0       1.00000000       0.00036280      -0.00302824       0.02555930
H        2.31400819       0.30899018      29.12640541        0       0.00000000      -0.02525024       0.00612664      -0.00636561
H        0.51656604       0.26954074      29.12679085        0       0.00000000       0.01988285       0.01550158      -0.00700785
H        1.38120839       1.84599754      29.12231582        0       0.00000000       0.00535842      -0.02791167      -0.01117989
