40
Lattice="8.421641763931781 0.0 0.0 4.2108208819658905 7.293355709136913 0.0 0.0 0.0 46.87624170604845" Properties=species:S:1:pos:R:3:tags:I:1:initial_magmoms:R:1:forces:R:3 charge=0 spin=0 energy=-206.89809920139038 free_energy=-206.89809920139038 stress="0.010362055152654648 -1.3280427424433583e-07 1.8793606670897134e-08 -1.3280427424433583e-07 0.010363493114709854 -4.725245162262581e-06 1.8793606670897134e-08 -4.725245162262581e-06 -0.0003362473798915744" pbc="T T T"
Pt       0.00000003       0.00000007      19.95723551        4       0.00000000       0.00000242       0.00002283       0.01325213
Pt       2.80721399      -0.00000008      19.95723555        4       0.00000000      -0.00201311      -0.00500841       0.01732703
Pt       5.61442774      -0.00000012      19.95723554        4       0.00000000       0.00202075      -0.00345348       0.01944085
Pt       1.40360717       2.43111834      19.95723540        4       0.00000000      -0.00400037       0.00001512       0.01935686
Pt       4.21082076       2.43111843      19.95723549        4       0.00000000       0.00001528      -0.00000883       0.02545330
Pt       7.01803486       2.43111843      19.95723547        4       0.00000000       0.00533962       0.00078586       0.01729575
Pt       2.80721421       4.86223732      19.95723529        4       0.00000000      -0.00333426       0.00421521       0.01742008
Pt       5.61442794       4.86223731      19.95723540        4       0.00000000       0.00197836       0.00340891       0.01940864
Pt       8.42164146       4.86223722      19.95723551        4       0.00000000       0.00000144      -0.00007583      -0.03686330
Pt       1.40360717       0.81037261      22.29206807        3       0.00000000      -0.00044444      -0.00335933      -0.00321538
Pt       4.21082122       0.81037254      22.29206808        3       0.00000000       0.00422711      -0.01116695      -0.06663409
Pt       7.01803484       0.81037259      22.29206812        3       0.00000000       0.00314619       0.00146722      -0.00319637
Pt       2.80721436       3.24149112      22.29206782        3       0.00000000      -0.01178650       0.00187920      -0.06647089
Pt       5.61442774       3.24149129      22.29206807        3       0.00000000       0.00754661       0.00923575      -0.06649386
Pt       8.42164142       3.24149141      22.29206809        3       0.00000000      -0.00174458       0.07545571      -0.15044178
Pt       4.21082097       5.67261006      22.29206778        3       0.00000000      -0.00270157       0.00194868      -0.00285505
Pt       7.01803483       5.67260987      22.29206781        3       0.00000000       0.06642560      -0.03638950      -0.15064000
Pt       9.82524821       5.67261060      22.29206810        3       0.00000000      -0.06466331      -0.03937033      -0.15057237
Pt      -0.00000049       1.62074561      24.58417352        2       0.00000000      -0.00282354      -0.24464670       0.25057402
Pt       2.80721437       1.62074550      24.58417378        2       0.00000000      -0.01015104      -0.00559199      -0.01562092
Pt       5.61442785       1.62074544      24.58417371        2       0.00000000       0.00994693      -0.00583697      -0.01565550
Pt       1.40360647       4.05186444      24.58417385        2       0.00000000      -0.01158851       0.00337217      -0.04873428
Pt       4.21082100       4.05186404      24.58417381        2       0.00000000       0.00010241       0.01213548      -0.01404900
Pt       7.01803473       4.05186412      24.58417379        2       0.00000000       0.00857490       0.00893732      -0.04883736
Pt       2.80721284       6.48298340      24.58417356        2       0.00000000       0.21173084       0.11894760       0.25116125
Pt       5.61442787       6.48298334      24.58417388        2       0.00000000      -0.20893697       0.12391581       0.25101641
Pt       8.42164233       6.48298347      24.58417367        2       0.00000000       0.00312433      -0.01155837      -0.04798648
Pt      -0.00000714      -0.00208828      27.14289884        1       0.00000000      -0.00002558       0.00400747       0.00571884
Pt       2.80627609      -0.00415035      26.89817346        1       0.00000000       0.00637046      -0.00033153      -0.00235801
Pt       5.61580482      -0.00199618      26.89830288        1       0.00000000      -0.00711825      -0.00239594      -0.00362016
Pt       1.40031550       2.43104691      26.89793973        1       0.00000000       0.00435329       0.00559641      -0.00284800
Pt       4.21082952       2.43130566      26.90565213        1       0.00000000      -0.00006523      -0.00014190      -0.00071115
Pt       7.02293757       2.43252833      26.89781959        1       0.00000000      -0.00567729       0.00384350      -0.00173746
Pt       2.80305211       4.86530192      26.89833065        1       0.00000000      -0.00022051      -0.00701485      -0.00305587
Pt       5.61652258       4.86464123      26.89838077        1       0.00000000       0.00237804      -0.00670908      -0.00418671
Pt       8.42164950       4.86235503      26.91250935        1       0.00000000      -0.00000575      -0.00004741       0.00135841
C       -0.00000444      -0.00079113      29.22671234        0       1.00000000       0.00011562       0.00225720      -0.02307595
H        0.90590057       0.52283726      29.56524484        0       0.00000000       0.00074492       0.00010252       0.01091165
H       -0.00043917      -1.04535213      29.57113884        0       0.00000000      -0.00050239       0.00093460      -0.00077890
H       -0.90543733       0.52365855      29.56523791        0       0.00000000      -0.00034211       0.00062269       0.01094388
