40
Lattice="8.421641763931781 0.0 0.0 4.2108208819658905 7.293355709136913 0.0 0.0 0.0 46.87624170604845" Properties=species:S:1:pos:R:3:tags:I:1:initial_magmoms:R:1:forces:R:3 charge=0 spin=0 energy=-206.89218069858276 free_energy=-206.89218069858276 stress="0.010452968068420887 -1.1271252333244774e-05 1.8176523326474125e-06 -1.1271252333244774e-05 0.010326055809855461 5.714537110179663e-05 1.8176523326474125e-06 5.714537110179663e-05 -0.00034532861900515854" pbc="T T T"
Pt       0.00000003       0.00000007      19.95723551        4       0.00000000       0.00233368      -0.00580054       0.01881560
Pt       2.80721399      -0.00000008      19.95723555        4       0.00000000       0.00047880      -0.00201617       0.01296752
Pt       5.61442774      -0.00000012      19.95723554        4       0.00000000      -0.00121074      -0.00734715       0.01678473
Pt       1.40360717       2.43111834      19.95723540        4       0.00000000       0.00544869      -0.00215396       0.01721569
Pt       4.21082076       2.43111843      19.95723549        4       0.00000000      -0.00335033      -0.00249511       0.01936065
Pt       7.01803486       2.43111843      19.95723547        4       0.00000000       0.00004758      -0.00254464       0.02514198
Pt       2.80721421       4.86223732      19.95723529        4       0.00000000       0.00003137       0.00073002      -0.03673713
Pt       5.61442794       4.86223731      19.95723540        4       0.00000000      -0.00262106       0.00199911       0.01764015
Pt       8.42164146       4.86223722      19.95723551        4       0.00000000       0.00240465       0.00119612       0.01934507
Pt       1.40360717       0.81037261      22.29206807        3       0.00000000       0.00365033      -0.00740638      -0.00004591
Pt       4.21082122       0.81037254      22.29206808        3       0.00000000      -0.00069207      -0.01127391      -0.00125934
Pt       7.01803484       0.81037259      22.29206812        3       0.00000000       0.00489796      -0.01999284      -0.06638973
Pt       2.80721436       3.24149112      22.29206782        3       0.00000000      -0.00163451       0.07226997      -0.15693544
Pt       5.61442774       3.24149129      22.29206807        3       0.00000000      -0.01236121      -0.00732517      -0.06580926
Pt       8.42164142       3.24149141      22.29206809        3       0.00000000       0.00796924       0.00000198      -0.06750669
Pt       4.21082097       5.67261006      22.29206778        3       0.00000000      -0.06338308      -0.04780880      -0.14905344
Pt       7.01803483       5.67260987      22.29206781        3       0.00000000      -0.00178718      -0.00843340      -0.00807370
Pt       9.82524821       5.67261060      22.29206810        3       0.00000000       0.06459570      -0.04418176      -0.14785559
Pt      -0.00000049       1.62074561      24.58417352        2       0.00000000       0.00874016       0.03007276      -0.01650966
Pt       2.80721437       1.62074550      24.58417378        2       0.00000000      -0.00288534      -0.22309506       0.27410209
Pt       5.61442785       1.62074544      24.58417371        2       0.00000000      -0.01370880       0.02250019      -0.00495676
Pt       1.40360647       4.05186444      24.58417385        2       0.00000000       0.00645637       0.04014940      -0.04084489
Pt       4.21082100       4.05186404      24.58417381        2       0.00000000      -0.01014426       0.03245110      -0.04770748
Pt       7.01803473       4.05186412      24.58417379        2       0.00000000      -0.00125326       0.03698222      -0.01673556
Pt       2.80721284       6.48298340      24.58417356        2       0.00000000      -0.00467967       0.02447419      -0.04652240
Pt       5.61442787       6.48298334      24.58417388        2       0.00000000       0.20729938       0.14935942       0.23869747
Pt       8.42164233       6.48298347      24.58417367        2       0.00000000      -0.20291559       0.15515019       0.24839020
Pt       0.00089537       0.03620484      26.89842163        1       0.00000000      -0.03431517      -0.01713514      -0.00140328
Pt       2.79882070       0.03822588      27.14411835        1       0.00000000       0.03817580      -0.00983821      -0.02004604
Pt       5.60857187       0.03276882      26.90156612        1       0.00000000       0.01271090      -0.01269346      -0.00556277
Pt       1.40793068       2.47069923      26.89871237        1       0.00000000      -0.01035984      -0.01036034       0.00046957
Pt       4.20357003       2.47016702      26.90103656        1       0.00000000       0.01775605      -0.02004124      -0.01689005
Pt       7.01600676       2.46635756      26.90774382        1       0.00000000      -0.00412755      -0.01256029      -0.00565490
Pt       2.81012573       4.90655895      26.91137684        1       0.00000000      -0.02566506      -0.04210360       0.00498387
Pt       5.61189751       4.90254454      26.89891821        1       0.00000000      -0.00926927      -0.02901029      -0.00172478
Pt       8.41814957       4.89984111      26.90067122        1       0.00000000       0.02596399      -0.01939301      -0.02049238
C        2.79511269       0.01950079      29.22549001        0       1.00000000       0.02091453      -0.00222321       0.02295119
H        3.32307239       0.91535611      29.58663610        0       0.00000000      -0.01407895      -0.01185933      -0.02882110
H        3.31149924      -0.89508650      29.55405532        0       0.00000000      -0.01927966       0.01555315       0.01757915
H        1.74721781       0.02150878      29.56004838        0       0.00000000       0.00984756      -0.00379702       0.01909337
