40
Lattice="8.421641763931781 0.0 0.0 4.2108208819658905 7.293355709136913 0.0 0.0 0.0 46.87624170604845" Properties=species:S:1:pos:R:3:tags:I:1:initial_magmoms:R:1:forces:R:3 charge=0 spin=0 energy=-206.8963387186023 free_energy=-206.8963387186023 stress="0.010375065729022026 1.633869288752976e-07 -4.5172501295098755e-09 1.633869288752976e-07 0.010374917648732662 1.2301428853334073e-07 -4.5172501295098755e-09 1.2301428853334073e-07 -0.00028539879713207483" pbc="T T T"
Pt       0.00000003       0.00000007      19.95723551        4       0.00000000       0.00000141      -0.00000332       0.01343234
Pt       2.80721399      -0.00000008      19.95723555        4       0.00000000      -0.00170570      -0.00512598       0.01724946
Pt       5.61442774      -0.00000012      19.95723554        4       0.00000000       0.00187959      -0.00345278       0.01955296
Pt       1.40360717       2.43111834      19.95723540        4       0.00000000      -0.00394166       0.00010820       0.01950175
Pt       4.21082076       2.43111843      19.95723549        4       0.00000000       0.00000080      -0.00000444       0.02537304
Pt       7.01803486       2.43111843      19.95723547        4       0.00000000       0.00530761       0.00106589       0.01724533
Pt       2.80721421       4.86223732      19.95723529        4       0.00000000      -0.00360360       0.00405338       0.01733392
Pt       5.61442794       4.86223731      19.95723540        4       0.00000000       0.00206167       0.00334215       0.01954660
Pt       8.42164146       4.86223722      19.95723551        4       0.00000000       0.00000344       0.00000815      -0.03671150
Pt       1.40360717       0.81037261      22.29206807        3       0.00000000      -0.00031706      -0.00410335      -0.00433272
Pt       4.21082122       0.81037254      22.29206808        3       0.00000000       0.00402471      -0.01100180      -0.06739571
Pt       7.01803484       0.81037259      22.29206812        3       0.00000000       0.00366840       0.00179850      -0.00436365
Pt       2.80721436       3.24149112      22.29206782        3       0.00000000      -0.01155383       0.00198781      -0.06716245
Pt       5.61442774       3.24149129      22.29206807        3       0.00000000       0.00752853       0.00901226      -0.06719366
Pt       8.42164142       3.24149141      22.29206809        3       0.00000000      -0.00161603       0.07512967      -0.14874157
Pt       4.21082097       5.67261006      22.29206778        3       0.00000000      -0.00335308       0.00225738      -0.00417785
Pt       7.01803483       5.67260987      22.29206781        3       0.00000000       0.06583048      -0.03618197      -0.14872675
Pt       9.82524821       5.67261060      22.29206810        3       0.00000000      -0.06421233      -0.03894895      -0.14872663
Pt      -0.00000049       1.62074561      24.58417352        2       0.00000000      -0.00166336      -0.24032672       0.25727388
Pt       2.80721437       1.62074550      24.58417378        2       0.00000000      -0.01023203      -0.00212024      -0.01094078
Pt       5.61442785       1.62074544      24.58417371        2       0.00000000       0.00681022      -0.00780404      -0.01097370
Pt       1.40360647       4.05186444      24.58417385        2       0.00000000      -0.01816150       0.00310856      -0.04769010
Pt       4.21082100       4.05186404      24.58417381        2       0.00000000       0.00333663       0.00982584      -0.01109358
Pt       7.01803473       4.05186412      24.58417379        2       0.00000000       0.01199367       0.01407514      -0.04786122
Pt       2.80721284       6.48298340      24.58417356        2       0.00000000       0.20884314       0.11880947       0.25742084
Pt       5.61442787       6.48298334      24.58417388        2       0.00000000      -0.20715587       0.12180144       0.25727639
Pt       8.42164233       6.48298347      24.58417367        2       0.00000000       0.00621590      -0.01711256      -0.04761062
Pt       0.00000032       0.00019145      27.13941984        1       0.00000000      -0.00001301      -0.00021290       0.03358400
Pt       2.81150457      -0.00450946      26.89765513        1       0.00000000      -0.01623513       0.00285474      -0.00525927
Pt       5.61362255      -0.00327875      26.89933873        1       0.00000000       0.01408477       0.00314382      -0.00353990
Pt       1.40116746       2.43349043      26.89929176        1       0.00000000      -0.00439459      -0.01381036      -0.00371148
Pt       4.21082343       2.43114591      26.90936856        1       0.00000000      -0.00004462      -0.00002057      -0.01074081
Pt       7.01977521       2.43712816      26.89757960        1       0.00000000       0.00582611      -0.01553627      -0.00528334
Pt       2.80119260       4.86083690      26.89758502        1       0.00000000       0.01042742       0.01282455      -0.00526770
Pt       5.61765992       4.86325039      26.89919596        1       0.00000000      -0.00970529       0.01082669      -0.00370955
Pt       8.42164015       4.86225589      26.91873632        1       0.00000000       0.00006068       0.00009040      -0.01367339
C        0.00000044      -0.00005563      29.22571108        0       1.00000000       0.00002360       0.00010776      -0.02853955
H        1.04518759       0.00019032      29.56788419        0       0.00000000       0.00456587      -0.00060200      -0.00045587
H       -0.52246141      -0.90546321      29.56743109        0       0.00000000      -0.00192918      -0.00389772      -0.00024593
H       -0.52272317       0.90485149      29.56834302        0       0.00000000      -0.00265641       0.00403415      -0.00066141
