40
Lattice="8.421641763931781 0.0 0.0 4.2108208819658905 7.293355709136913 0.0 0.0 0.0 46.87624170604845" Properties=species:S:1:pos:R:3:tags:I:1:initial_magmoms:R:1:forces:R:3 charge=0 spin=0 energy=-206.1541054422351 free_energy=-206.1541054422351 stress="0.010495246388018131 1.3045299056102522e-05 1.081555092241615e-05 1.3045299056102522e-05 0.009710734710097313 5.174239777261391e-05 1.081555092241615e-05 5.174239777261391e-05 -0.0002518848341424018" pbc="T T T"
Pt       0.00000003       0.00000007      19.95723551        4       0.00000000       0.00174923       0.00074281       0.01679198
Pt       2.80721399      -0.00000008      19.95723555        4       0.00000000      -0.00053981      -0.00052559       0.01613893
Pt       5.61442774      -0.00000012      19.95723554        4       0.00000000       0.00065171      -0.00770043       0.02619486
Pt       1.40360717       2.43111834      19.95723540        4       0.00000000      -0.00075942       0.00245610       0.02315437
Pt       4.21082076       2.43111843      19.95723549        4       0.00000000      -0.00030634       0.00211825       0.02247960
Pt       7.01803486       2.43111843      19.95723547        4       0.00000000       0.00171037       0.00306218       0.01942306
Pt       2.80721421       4.86223732      19.95723529        4       0.00000000       0.01501368      -0.00047166      -0.00142010
Pt       5.61442794       4.86223731      19.95723540        4       0.00000000      -0.00105568       0.00413549       0.01339829
Pt       8.42164146       4.86223722      19.95723551        4       0.00000000      -0.01591005       0.00143849      -0.00235417
Pt       1.40360717       0.81037261      22.29206807        3       0.00000000       0.00285942       0.01708350      -0.02952266
Pt       4.21082122       0.81037254      22.29206808        3       0.00000000       0.00164795      -0.00697637      -0.03920937
Pt       7.01803484       0.81037259      22.29206812        3       0.00000000       0.00271364       0.00059694      -0.03528972
Pt       2.80721436       3.24149112      22.29206782        3       0.00000000      -0.00308734       0.03863211      -0.08807268
Pt       5.61442774       3.24149129      22.29206807        3       0.00000000      -0.00082138       0.00786369      -0.07090205
Pt       8.42164142       3.24149141      22.29206809        3       0.00000000       0.00169731       0.04174635      -0.09048343
Pt       4.21082097       5.67261006      22.29206778        3       0.00000000      -0.02325580      -0.00970234      -0.06537332
Pt       7.01803483       5.67260987      22.29206781        3       0.00000000       0.02196652      -0.00661172      -0.06918523
Pt       9.82524821       5.67261060      22.29206810        3       0.00000000      -0.00038503      -0.04378737      -0.11147630
Pt      -0.00000049       1.62074561      24.58417352        2       0.00000000      -0.04369403      -0.15337332       0.07909748
Pt       2.80721437       1.62074550      24.58417378        2       0.00000000       0.04141241      -0.14962371       0.06812012
Pt       5.61442785       1.62074544      24.58417371        2       0.00000000      -0.00573711      -0.01931590      -0.01143442
Pt       1.40360647       4.05186444      24.58417385        2       0.00000000      -0.00094482       0.05703774      -0.18250430
Pt       4.21082100       4.05186404      24.58417381        2       0.00000000      -0.05480374      -0.03401633      -0.10866371
Pt       7.01803473       4.05186412      24.58417379        2       0.00000000       0.05991767      -0.02822018      -0.11034676
Pt       2.80721284       6.48298340      24.58417356        2       0.00000000       0.19010384       0.12200852       0.33355564
Pt       5.61442787       6.48298334      24.58417388        2       0.00000000       0.00106161       0.05514045       0.08498333
Pt       8.42164233       6.48298347      24.58417367        2       0.00000000      -0.19056246       0.13578267       0.33072793
Pt       0.02429497      -0.03327672      27.00982718        1       0.00000000      -0.03489583      -0.00382533      -0.00900293
Pt       2.78604314      -0.03448982      27.00665060        1       0.00000000       0.03564006      -0.00201539      -0.00775681
Pt       5.61583721      -0.01442309      26.91190048        1       0.00000000      -0.00122338      -0.00548794      -0.03761304
Pt       1.40224068       2.46574692      26.87195666        1       0.00000000       0.00152597       0.01727991      -0.00780951
Pt       4.20902826       2.40760590      26.91138877        1       0.00000000      -0.00116542      -0.02511067       0.00613730
Pt       7.01724381       2.40749478      26.91070691        1       0.00000000       0.00465157      -0.02728746       0.00757330
Pt       2.80421035       4.84904935      26.91352748        1       0.00000000      -0.00062458       0.00991156       0.01203907
Pt       5.61373383       4.79078113      26.88016837        1       0.00000000       0.00207856      -0.02308060       0.00213964
Pt       8.42420014       4.84922484      26.91266319        1       0.00000000       0.00213676       0.01142790       0.01260832
C        1.40261704       0.04756252      28.89603486        0       1.00000000      -0.00405160       0.04275642      -0.01443039
H        1.40312774       1.06543914      29.30114620        0       0.00000000      -0.00187408       0.01237581      -0.02231092
H        2.28237217      -0.52556054      29.24961108        0       0.00000000       0.03218789      -0.01758365       0.01469508
H        0.52502897      -0.52646391      29.25266808        0       0.00000000      -0.03502850      -0.01888094       0.02590370
