40
Lattice="8.421641763931781 0.0 0.0 4.2108208819658905 7.293355709136913 0.0 0.0 0.0 46.87624170604845" Properties=species:S:1:pos:R:3:tags:I:1:initial_magmoms:R:1:forces:R:3 charge=0 spin=0 energy=-206.89639975375854 free_energy=-206.89639975375854 stress="0.01035778596997261 9.159122527080399e-08 1.1242033082226044e-08 9.159122527080399e-08 0.010357975028455257 -2.0425262903245311e-07 1.1242033082226044e-08 -2.0425262903245311e-07 -0.0003387353790458292" pbc="T T T"
Pt       0.00000003       0.00000007      19.95723551        4       0.00000000       0.00000148       0.00000346       0.01324002
Pt       2.80721399      -0.00000008      19.95723555        4       0.00000000      -0.00199687      -0.00478687       0.01739902
Pt       5.61442774      -0.00000012      19.95723554        4       0.00000000       0.00195985      -0.00351597       0.01924776
Pt       1.40360717       2.43111834      19.95723540        4       0.00000000      -0.00403895       0.00008053       0.01918875
Pt       4.21082076       2.43111843      19.95723549        4       0.00000000       0.00000235       0.00000023       0.02534308
Pt       7.01803486       2.43111843      19.95723547        4       0.00000000       0.00515945       0.00065710       0.01738956
Pt       2.80721421       4.86223732      19.95723529        4       0.00000000      -0.00316844       0.00413815       0.01748466
Pt       5.61442794       4.86223731      19.95723540        4       0.00000000       0.00207802       0.00344325       0.01923587
Pt       8.42164146       4.86223722      19.95723551        4       0.00000000       0.00000306      -0.00000922      -0.03679996
Pt       1.40360717       0.81037261      22.29206807        3       0.00000000      -0.00051049      -0.00279781      -0.00272803
Pt       4.21082122       0.81037254      22.29206808        3       0.00000000       0.00453601      -0.01114719      -0.06708165
Pt       7.01803484       0.81037259      22.29206812        3       0.00000000       0.00265709       0.00101792      -0.00275029
Pt       2.80721436       3.24149112      22.29206782        3       0.00000000      -0.01194303       0.00164169      -0.06686580
Pt       5.61442774       3.24149129      22.29206807        3       0.00000000       0.00740956       0.00954544      -0.06688615
Pt       8.42164142       3.24149141      22.29206809        3       0.00000000      -0.00188004       0.07582855      -0.15043838
Pt       4.21082097       5.67261006      22.29206778        3       0.00000000      -0.00215168       0.00180123      -0.00251291
Pt       7.01803483       5.67260987      22.29206781        3       0.00000000       0.06660798      -0.03630593      -0.15046856
Pt       9.82524821       5.67261060      22.29206810        3       0.00000000      -0.06471843      -0.03953350      -0.15046127
Pt      -0.00000049       1.62074561      24.58417352        2       0.00000000      -0.00457669      -0.24401510       0.25212124
Pt       2.80721437       1.62074550      24.58417378        2       0.00000000      -0.00774417      -0.00833952      -0.01743300
Pt       5.61442785       1.62074544      24.58417371        2       0.00000000       0.01090613      -0.00260796      -0.01746698
Pt       1.40360647       4.05186444      24.58417385        2       0.00000000      -0.00893579       0.00662399      -0.04887035
Pt       4.21082100       4.05186404      24.58417381        2       0.00000000      -0.00323265       0.01074826      -0.01742550
Pt       7.01803473       4.05186412      24.58417379        2       0.00000000       0.01040839       0.00432500      -0.04897713
Pt       2.80721284       6.48298340      24.58417356        2       0.00000000       0.21334894       0.11794100       0.25228339
Pt       5.61442787       6.48298334      24.58417388        2       0.00000000      -0.20870706       0.12596548       0.25219312
Pt       8.42164233       6.48298347      24.58417367        2       0.00000000      -0.00147275      -0.01096451      -0.04878407
Pt       0.00000095      -0.00016880      27.14295786        1       0.00000000       0.00000530       0.00018813       0.00645931
Pt       2.80490393      -0.00437701      26.89929849        1       0.00000000       0.00534689       0.00134383      -0.00272145
Pt       5.61405474      -0.00221898      26.89680837        1       0.00000000      -0.00526425      -0.00070644      -0.00272503
Pt       1.40187862       2.43247956      26.89676245        1       0.00000000       0.00205710       0.00478303      -0.00292408
Pt       4.21081890       2.43108994      26.90577358        1       0.00000000      -0.00001565      -0.00004042       0.00101594
Pt       7.02296821       2.43123128      26.89919333        1       0.00000000      -0.00382685       0.00393635      -0.00256348
Pt       2.80458231       4.86638777      26.89923191        1       0.00000000      -0.00150620      -0.00538390      -0.00275699
Pt       5.61653877       4.86298817      26.89673856        1       0.00000000       0.00319932      -0.00417119      -0.00299253
Pt       8.42164290       4.86220468      26.91168185        1       0.00000000       0.00000839      -0.00001902       0.00235462
C        0.00000075       0.00006878      29.22682856        0       1.00000000       0.00000134      -0.00024254      -0.01418783
H        0.52314647       0.90516287      29.56809425        0       0.00000000       0.00273998       0.00500673       0.00415145
H        0.52212405      -0.90529800      29.56895002        0       0.00000000       0.00289927      -0.00477138       0.00375236
H       -1.04527008       0.00062266      29.56852010        0       0.00000000      -0.00564587       0.00033918       0.00396106
