40
Lattice="8.421641763931781 0.0 0.0 4.2108208819658905 7.293355709136913 0.0 0.0 0.0 46.87624170604845" Properties=species:S:1:pos:R:3:tags:I:1:initial_magmoms:R:1:forces:R:3 charge=0 spin=0 energy=-206.89630247897827 free_energy=-206.89630247897827 stress="0.0103659238666296 -1.3312836017576046e-05 -6.2828125919622835e-06 -1.3312836017576046e-05 0.010378674603998661 -2.6377971153124236e-05 -6.2828125919622835e-06 -2.6377971153124236e-05 -0.00032133987406268716" pbc="T T T"
Pt       0.00000003       0.00000007      19.95723551        4       0.00000000       0.00037301       0.00040018       0.01341784
Pt       2.80721399      -0.00000008      19.95723555        4       0.00000000      -0.00145456      -0.00507972       0.01707752
Pt       5.61442774      -0.00000012      19.95723554        4       0.00000000       0.00240278      -0.00336410       0.01926195
Pt       1.40360717       2.43111834      19.95723540        4       0.00000000      -0.00396711       0.00037726       0.01950535
Pt       4.21082076       2.43111843      19.95723549        4       0.00000000       0.00048609      -0.00006934       0.02538029
Pt       7.01803486       2.43111843      19.95723547        4       0.00000000       0.00590854       0.00103870       0.01730994
Pt       2.80721421       4.86223732      19.95723529        4       0.00000000      -0.00289183       0.00405069       0.01763562
Pt       5.61442794       4.86223731      19.95723540        4       0.00000000       0.00273067       0.00331147       0.01942088
Pt       8.42164146       4.86223722      19.95723551        4       0.00000000      -0.00006283       0.00093651      -0.03676235
Pt       1.40360717       0.81037261      22.29206807        3       0.00000000       0.00116542      -0.00330573      -0.00538226
Pt       4.21082122       0.81037254      22.29206808        3       0.00000000       0.00594860      -0.01166039      -0.06790669
Pt       7.01803484       0.81037259      22.29206812        3       0.00000000       0.00512677       0.00115879      -0.00238501
Pt       2.80721436       3.24149112      22.29206782        3       0.00000000      -0.01001082       0.00184583      -0.06603771
Pt       5.61442774       3.24149129      22.29206807        3       0.00000000       0.00886367       0.00892005      -0.06577528
Pt       8.42164142       3.24149141      22.29206809        3       0.00000000       0.00000276       0.07663632      -0.15001833
Pt       4.21082097       5.67261006      22.29206778        3       0.00000000      -0.00110008       0.00159462      -0.00461860
Pt       7.01803483       5.67260987      22.29206781        3       0.00000000       0.06705241      -0.03524417      -0.14916964
Pt       9.82524821       5.67261060      22.29206810        3       0.00000000      -0.06307237      -0.03937406      -0.15087102
Pt      -0.00000049       1.62074561      24.58417352        2       0.00000000      -0.00863741      -0.24818443       0.27515814
Pt       2.80721437       1.62074550      24.58417378        2       0.00000000      -0.02124097       0.00028266      -0.01748652
Pt       5.61442785       1.62074544      24.58417371        2       0.00000000       0.01173267      -0.00258556      -0.01995604
Pt       1.40360647       4.05186444      24.58417385        2       0.00000000      -0.02036866      -0.00033234      -0.04799551
Pt       4.21082100       4.05186404      24.58417381        2       0.00000000      -0.00649716       0.01383975      -0.01395624
Pt       7.01803473       4.05186412      24.58417379        2       0.00000000       0.00901878       0.00420735      -0.05498880
Pt       2.80721284       6.48298340      24.58417356        2       0.00000000       0.20485780       0.12182071       0.25691342
Pt       5.61442787       6.48298334      24.58417388        2       0.00000000      -0.21229725       0.12238110       0.24959613
Pt       8.42164233       6.48298347      24.58417367        2       0.00000000      -0.00298506      -0.01600399      -0.05040278
Pt      -0.00672853      -0.00862047      27.14515316        1       0.00000000       0.00372271       0.01672679      -0.00969443
Pt       2.80032614       0.00043682      26.89701666        1       0.00000000      -0.00686264      -0.01783919       0.00240608
Pt       5.60359010       0.00277293      26.89693603        1       0.00000000       0.02777079      -0.02317103       0.00572348
Pt       1.39376113       2.43352940      26.90120408        1       0.00000000      -0.00518354      -0.01402105      -0.00813450
Pt       4.20545497       2.42952378      26.90495528        1       0.00000000      -0.00724336       0.01317088       0.00562161
Pt       7.01569587       2.43419373      26.90121159        1       0.00000000       0.01295897      -0.01736810      -0.00533349
Pt       2.79308515       4.86438010      26.89762509        1       0.00000000       0.01084850      -0.00079708      -0.01158052
Pt       5.61497811       4.85868019      26.89726425        1       0.00000000      -0.01641494       0.01939654      -0.00357039
Pt       8.41280678       4.86330746      26.91397382        1       0.00000000       0.01341469      -0.00255020      -0.00035112
C       -0.00328016      -0.05902592      29.22735672        0       1.00000000      -0.02692973       0.00826752       0.00650537
H       -0.85394545       0.53913663      29.58700544        0       0.00000000       0.00742409       0.00251239      -0.01352914
H        0.94838684       0.36232552      29.58223777        0       0.00000000       0.01144440       0.01050834      -0.00726342
H       -0.10601729      -1.10831678      29.54140970        0       0.00000000       0.00396590       0.00756614       0.01223612
