40
Lattice="8.421641763931781 0.0 0.0 4.2108208819658905 7.293355709136913 0.0 0.0 0.0 46.87624170604845" Properties=species:S:1:pos:R:3:tags:I:1:initial_magmoms:R:1:forces:R:3 charge=0 spin=0 energy=-206.89379431552612 free_energy=-206.89379431552612 stress="0.01016928069293499 -1.5547482234978816e-07 -1.8703273596543113e-08 -1.5547482234978816e-07 0.01016921829432249 1.33267619162325e-07 -1.8703273596543113e-08 1.33267619162325e-07 -0.0007338179275393486" pbc="T T T"
Pt       0.00000003       0.00000007      19.95723551        4       0.00000000       0.00000067      -0.00000160       0.01279159
Pt       2.80721399      -0.00000008      19.95723555        4       0.00000000      -0.00181269      -0.00506495       0.01678855
Pt       5.61442774      -0.00000012      19.95723554        4       0.00000000       0.00194471      -0.00337309       0.01922707
Pt       1.40360717       2.43111834      19.95723540        4       0.00000000      -0.00390500       0.00001300       0.01917045
Pt       4.21082076       2.43111843      19.95723549        4       0.00000000       0.00000069      -0.00000552       0.02501738
Pt       7.01803486       2.43111843      19.95723547        4       0.00000000       0.00531164       0.00094482       0.01678358
Pt       2.80721421       4.86223732      19.95723529        4       0.00000000      -0.00350099       0.00411794       0.01687222
Pt       5.61442794       4.86223731      19.95723540        4       0.00000000       0.00196035       0.00336083       0.01921914
Pt       8.42164146       4.86223722      19.95723551        4       0.00000000       0.00000323       0.00000421      -0.03743896
Pt       1.40360717       0.81037261      22.29206807        3       0.00000000      -0.00064533      -0.00434349      -0.00343857
Pt       4.21082122       0.81037254      22.29206808        3       0.00000000       0.00391140      -0.01099799      -0.06657111
Pt       7.01803484       0.81037259      22.29206812        3       0.00000000       0.00404190       0.00164050      -0.00348419
Pt       2.80721436       3.24149112      22.29206782        3       0.00000000      -0.01149564       0.00209651      -0.06636016
Pt       5.61442774       3.24149129      22.29206807        3       0.00000000       0.00758565       0.00892408      -0.06640699
Pt       8.42164142       3.24149141      22.29206809        3       0.00000000      -0.00159582       0.07593402      -0.14750122
Pt       4.21082097       5.67261006      22.29206778        3       0.00000000      -0.00339843       0.00266131      -0.00330980
Pt       7.01803483       5.67260987      22.29206781        3       0.00000000       0.06651684      -0.03661149      -0.14750366
Pt       9.82524821       5.67261060      22.29206810        3       0.00000000      -0.06492516      -0.03933154      -0.14749482
Pt      -0.00000049       1.62074561      24.58417352        2       0.00000000      -0.00079249      -0.24258144       0.20518897
Pt       2.80721437       1.62074550      24.58417378        2       0.00000000      -0.00555074       0.00197574      -0.05535019
Pt       5.61442785       1.62074544      24.58417371        2       0.00000000       0.00084396      -0.00593539      -0.05534708
Pt       1.40360647       4.05186444      24.58417385        2       0.00000000      -0.02682913       0.00566096      -0.09065381
Pt       4.21082100       4.05186404      24.58417381        2       0.00000000       0.00454269       0.00369431      -0.05544016
Pt       7.01803473       4.05186412      24.58417379        2       0.00000000       0.01858338       0.02033630      -0.09090324
Pt       2.80721284       6.48298340      24.58417356        2       0.00000000       0.21029107       0.12063524       0.20558183
Pt       5.61442787       6.48298334      24.58417388        2       0.00000000      -0.20948441       0.12222144       0.20532285
Pt       8.42164233       6.48298347      24.58417367        2       0.00000000       0.00838527      -0.02588606      -0.09050450
Pt      -0.00000020       0.00012386      27.12253403        1       0.00000000      -0.00001808       0.00005788      -0.02432260
Pt       2.81030987      -0.00457121      26.88481124        1       0.00000000      -0.00175517       0.00319467       0.04713188
Pt       5.61556736      -0.00289236      26.88825936        1       0.00000000      -0.00260656       0.00230296       0.04048862
Pt       1.40053282       2.43155980      26.88814324        1       0.00000000       0.00327426       0.00118744       0.04064456
Pt       4.21081268       2.43112776      26.90235437        1       0.00000000       0.00001322       0.00001901       0.01622771
Pt       7.02043426       2.43607008      26.88467923        1       0.00000000      -0.00178174      -0.00307762       0.04738748
Pt       2.80172777       4.86189454      26.88474824        1       0.00000000       0.00357095       0.00004971       0.04713740
Pt       5.61635792       4.86473921      26.88804524        1       0.00000000      -0.00070427      -0.00334923       0.04071518
Pt       8.42165555       4.86224770      26.91384235        1       0.00000000       0.00001680       0.00004853       0.00461067
C        0.00000108       0.00003016      29.20169594        0       1.00000000      -0.00006119      -0.00030586      -0.00872820
H        1.04661196       0.00002647      29.53797445        0       0.00000000       0.00291329       0.00006893       0.03815908
H       -0.52325643      -0.90653938      29.53755538        0       0.00000000      -0.00157031      -0.00261874       0.03835882
H       -0.52335491       0.90624350      29.53839530        0       0.00000000      -0.00127869       0.00233365       0.03793437
