40
Lattice="8.421641763931781 0.0 0.0 4.2108208819658905 7.293355709136913 0.0 0.0 0.0 46.87624170604845" Properties=species:S:1:pos:R:3:tags:I:1:initial_magmoms:R:1:forces:R:3 charge=0 spin=0 energy=-206.89340712375366 free_energy=-206.89340712375366 stress="0.010474053211510181 -8.779681593296118e-06 5.023447101848433e-06 -8.779681593296118e-06 0.010344382375478745 3.240441583329812e-05 5.023447101848433e-06 3.240441583329812e-05 -0.00027567060897126794" pbc="T T T"
Pt       0.00000003       0.00000007      19.95723551        4       0.00000000       0.00027619      -0.00152294       0.01310255
Pt       2.80721399      -0.00000008      19.95723555        4       0.00000000      -0.00114943      -0.00717274       0.01685532
Pt       5.61442774      -0.00000012      19.95723554        4       0.00000000       0.00212899      -0.00540760       0.01935641
Pt       1.40360717       2.43111834      19.95723540        4       0.00000000      -0.00338252      -0.00212091       0.01968065
Pt       4.21082076       2.43111843      19.95723549        4       0.00000000       0.00062454      -0.00200129       0.02512841
Pt       7.01803486       2.43111843      19.95723547        4       0.00000000       0.00541477      -0.00130549       0.01713066
Pt       2.80721421       4.86223732      19.95723529        4       0.00000000      -0.00303976       0.00216949       0.01761378
Pt       5.61442794       4.86223731      19.95723540        4       0.00000000       0.00223053       0.00129396       0.01965245
Pt       8.42164146       4.86223722      19.95723551        4       0.00000000      -0.00003191       0.00042645      -0.03664691
Pt       1.40360717       0.81037261      22.29206807        3       0.00000000      -0.00016162      -0.01104126      -0.00325832
Pt       4.21082122       0.81037254      22.29206808        3       0.00000000       0.00438114      -0.01875623      -0.06600426
Pt       7.01803484       0.81037259      22.29206812        3       0.00000000       0.00471872      -0.00518332      -0.00187933
Pt       2.80721436       3.24149112      22.29206782        3       0.00000000      -0.01196816      -0.00549776      -0.06629545
Pt       5.61442774       3.24149129      22.29206807        3       0.00000000       0.00850000       0.00174431      -0.06577703
Pt       8.42164142       3.24149141      22.29206809        3       0.00000000      -0.00106946       0.07189342      -0.15529099
Pt       4.21082097       5.67261006      22.29206778        3       0.00000000      -0.00272479      -0.00619336      -0.00886035
Pt       7.01803483       5.67260987      22.29206781        3       0.00000000       0.06490291      -0.04267541      -0.14863694
Pt       9.82524821       5.67261060      22.29206810        3       0.00000000      -0.06329253      -0.04634559      -0.14809345
Pt      -0.00000049       1.62074561      24.58417352        2       0.00000000      -0.00513793      -0.22372679       0.28687984
Pt       2.80721437       1.62074550      24.58417378        2       0.00000000      -0.01751709       0.02501073      -0.01646288
Pt       5.61442785       1.62074544      24.58417371        2       0.00000000       0.01077841       0.01393980      -0.00801032
Pt       1.40360647       4.05186444      24.58417385        2       0.00000000      -0.01540029       0.02924296      -0.04095330
Pt       4.21082100       4.05186404      24.58417381        2       0.00000000       0.00232014       0.03431902      -0.01354961
Pt       7.01803473       4.05186412      24.58417379        2       0.00000000       0.00348796       0.03450508      -0.04012552
Pt       2.80721284       6.48298340      24.58417356        2       0.00000000       0.20026578       0.14660574       0.26362750
Pt       5.61442787       6.48298334      24.58417388        2       0.00000000      -0.20361073       0.14274625       0.25006422
Pt       8.42164233       6.48298347      24.58417367        2       0.00000000       0.01045247       0.01571402      -0.04031660
Pt       0.00230580       0.02718188      27.14410894        1       0.00000000      -0.02016304       0.00464438      -0.00075754
Pt       2.80676387       0.02983038      26.89788650        1       0.00000000       0.00373633      -0.02684539      -0.00203100
Pt       5.61463263       0.03224929      26.90564849        1       0.00000000       0.00379267      -0.03512323      -0.01851882
Pt       1.39831275       2.46641532      26.90219687        1       0.00000000      -0.01196132      -0.03007798      -0.01583492
Pt       4.20810441       2.45882291      26.90667066        1       0.00000000       0.00282530      -0.00201588       0.00236098
Pt       7.01666481       2.46632693      26.90152463        1       0.00000000       0.01886645      -0.02545367      -0.01732667
Pt       2.80354350       4.89173482      26.89993122        1       0.00000000      -0.01958499       0.00319255      -0.01563763
Pt       5.61086177       4.89297397      26.90346695        1       0.00000000       0.01666694      -0.00541854      -0.01885818
Pt       8.41569249       4.89872876      26.91299405        1       0.00000000       0.01811245      -0.03140823      -0.00104402
C        0.01874223       0.01436204      29.22760803        0       1.00000000      -0.01199796       0.00022452       0.00187593
H       -0.49682775      -0.89450951      29.57115399        0       0.00000000       0.01699034      -0.01604161      -0.00778056
H       -0.50925679       0.91165380      29.58263931        0       0.00000000       0.01957999       0.01901875      -0.01239333
H        1.06911851       0.01834496      29.55584785        0       0.00000000      -0.02885946       0.00464371       0.01701533
