40
Lattice="8.421641763931781 0.0 0.0 4.2108208819658905 7.293355709136913 0.0 0.0 0.0 46.87624170604845" Properties=species:S:1:pos:R:3:tags:I:1:initial_magmoms:R:1:forces:R:3 charge=0 spin=0 energy=-206.89748884982788 free_energy=-206.89748884982788 stress="0.01036167610436678 -8.120900929498021e-07 4.1724726429492875e-07 -8.120900929498021e-07 0.010353482328355312 -7.140469733712962e-06 4.1724726429492875e-07 -7.140469733712962e-06 -0.00037490748218260705" pbc="T T T"
Pt       0.00000003       0.00000007      19.95723551        4       0.00000000       0.00002133      -0.00014797       0.01359831
Pt       2.80721399      -0.00000008      19.95723555        4       0.00000000      -0.00158781      -0.00548422       0.01704338
Pt       5.61442774      -0.00000012      19.95723554        4       0.00000000       0.00176666      -0.00394276       0.01914675
Pt       1.40360717       2.43111834      19.95723540        4       0.00000000      -0.00405647      -0.00008669       0.01923498
Pt       4.21082076       2.43111843      19.95723549        4       0.00000000       0.00002697      -0.00016794       0.02544213
Pt       7.01803486       2.43111843      19.95723547        4       0.00000000       0.00531054       0.00070079       0.01718460
Pt       2.80721421       4.86223732      19.95723529        4       0.00000000      -0.00366012       0.00389449       0.01720404
Pt       5.61442794       4.86223731      19.95723540        4       0.00000000       0.00235192       0.00323114       0.01923739
Pt       8.42164146       4.86223722      19.95723551        4       0.00000000       0.00006057       0.00038351      -0.03661311
Pt       1.40360717       0.81037261      22.29206807        3       0.00000000      -0.00060551      -0.00446224      -0.00409692
Pt       4.21082122       0.81037254      22.29206808        3       0.00000000       0.00413886      -0.01140980      -0.06762113
Pt       7.01803484       0.81037259      22.29206812        3       0.00000000       0.00328754       0.00038125      -0.00414383
Pt       2.80721436       3.24149112      22.29206782        3       0.00000000      -0.01144990       0.00096880      -0.06713520
Pt       5.61442774       3.24149129      22.29206807        3       0.00000000       0.00717350       0.00815255      -0.06712399
Pt       8.42164142       3.24149141      22.29206809        3       0.00000000      -0.00171938       0.07505581      -0.14964759
Pt       4.21082097       5.67261006      22.29206778        3       0.00000000      -0.00272858       0.00114936      -0.00544451
Pt       7.01803483       5.67260987      22.29206781        3       0.00000000       0.06576426      -0.03672119      -0.14800608
Pt       9.82524821       5.67261060      22.29206810        3       0.00000000      -0.06403719      -0.03988042      -0.14805840
Pt      -0.00000049       1.62074561      24.58417352        2       0.00000000      -0.00366098      -0.24353245       0.26056209
Pt       2.80721437       1.62074550      24.58417378        2       0.00000000      -0.00838748      -0.00163555      -0.01745149
Pt       5.61442785       1.62074544      24.58417371        2       0.00000000       0.00844549      -0.00149849      -0.01736503
Pt       1.40360647       4.05186444      24.58417385        2       0.00000000      -0.02260723       0.01207629      -0.05659518
Pt       4.21082100       4.05186404      24.58417381        2       0.00000000       0.00021706       0.00820164      -0.02297467
Pt       7.01803473       4.05186412      24.58417379        2       0.00000000       0.01994881       0.01649881      -0.05661107
Pt       2.80721284       6.48298340      24.58417356        2       0.00000000       0.21318923       0.12512876       0.24505569
Pt       5.61442787       6.48298334      24.58417388        2       0.00000000      -0.20948908       0.13115899       0.24507885
Pt       8.42164233       6.48298347      24.58417367        2       0.00000000       0.00246006      -0.02210400      -0.05601946
Pt       0.00001319       0.00330684      27.14204365        1       0.00000000      -0.00013409      -0.00172469      -0.01724469
Pt       2.81103460      -0.00189860      26.89487539        1       0.00000000      -0.02196119       0.00524956       0.01166511
Pt       5.61112638      -0.00073460      26.89422306        1       0.00000000       0.02100427       0.00569160       0.01283383
Pt       1.40359102       2.44050211      26.89509565        1       0.00000000      -0.01605322      -0.02852332       0.00852727
Pt       4.21083534       2.43346671      26.91094803        1       0.00000000       0.00009700       0.00111380      -0.01407167
Pt       7.01890791       2.44155309      26.89563060        1       0.00000000       0.01662778      -0.02900482       0.00749642
Pt       2.80309327       4.86643315      26.89345713        1       0.00000000       0.00324390       0.00943550       0.01499836
Pt       5.61729376       4.86630611      26.89297468        1       0.00000000      -0.00321453       0.00847249       0.01541028
Pt       8.42159993       4.86508005      26.92288996        1       0.00000000       0.00022377      -0.00032860      -0.02437864
C       -0.00002939      -0.00998200      29.22411665        0       1.00000000       0.00023322       0.00483625       0.01374104
H       -0.90562131       0.51287002      29.56707215        0       0.00000000       0.01558704      -0.00903406       0.00269660
H        0.90640482       0.51139255      29.56706648        0       0.00000000      -0.01493884      -0.00886931       0.00269412
H       -0.00074521      -1.05724880      29.56315238        0       0.00000000      -0.00088826       0.02677717      -0.00824862
