40
Lattice="8.421641763931781 0.0 0.0 4.2108208819658905 7.293355709136913 0.0 0.0 0.0 46.87624170604845" Properties=species:S:1:pos:R:3:tags:I:1:initial_magmoms:R:1:forces:R:3 charge=0 spin=0 energy=-206.89795042819702 free_energy=-206.89795042819702 stress="0.010357307270169258 -5.565448901734271e-08 -1.0166804287337072e-08 -5.565448901734271e-08 0.010355480946600437 -2.8761194243998034e-06 -1.0166804287337072e-08 -2.8761194243998034e-06 -0.00035197907709516585" pbc="T T T"
Pt       0.00000003       0.00000007      19.95723551        4       0.00000000       0.00000864       0.00003035       0.01322316
Pt       2.80721399      -0.00000008      19.95723555        4       0.00000000      -0.00193244      -0.00484250       0.01727466
Pt       5.61442774      -0.00000012      19.95723554        4       0.00000000       0.00198450      -0.00339388       0.01937473
Pt       1.40360717       2.43111834      19.95723540        4       0.00000000      -0.00387208      -0.00004912       0.01924976
Pt       4.21082076       2.43111843      19.95723549        4       0.00000000       0.00002792      -0.00001463       0.02528180
Pt       7.01803486       2.43111843      19.95723547        4       0.00000000       0.00510160       0.00069722       0.01720067
Pt       2.80721421       4.86223732      19.95723529        4       0.00000000      -0.00317403       0.00404769       0.01732158
Pt       5.61442794       4.86223731      19.95723540        4       0.00000000       0.00190005       0.00331652       0.01930313
Pt       8.42164146       4.86223722      19.95723551        4       0.00000000      -0.00000271      -0.00017580      -0.03670516
Pt       1.40360717       0.81037261      22.29206807        3       0.00000000      -0.00035005      -0.00342673      -0.00273437
Pt       4.21082122       0.81037254      22.29206808        3       0.00000000       0.00445734      -0.01138532      -0.06719117
Pt       7.01803484       0.81037259      22.29206812        3       0.00000000       0.00308718       0.00148255      -0.00275695
Pt       2.80721436       3.24149112      22.29206782        3       0.00000000      -0.01208238       0.00175031      -0.06724691
Pt       5.61442774       3.24149129      22.29206807        3       0.00000000       0.00758165       0.00947626      -0.06725720
Pt       8.42164142       3.24149141      22.29206809        3       0.00000000      -0.00184433       0.07541838      -0.15036382
Pt       4.21082097       5.67261006      22.29206778        3       0.00000000      -0.00275789       0.00180077      -0.00234906
Pt       7.01803483       5.67260987      22.29206781        3       0.00000000       0.06681789      -0.03663002      -0.15041314
Pt       9.82524821       5.67261060      22.29206810        3       0.00000000      -0.06495210      -0.03976374      -0.15032977
Pt      -0.00000049       1.62074561      24.58417352        2       0.00000000      -0.00280894      -0.24462855       0.25447136
Pt       2.80721437       1.62074550      24.58417378        2       0.00000000      -0.00858886      -0.00464512      -0.02165545
Pt       5.61442785       1.62074544      24.58417371        2       0.00000000       0.00835984      -0.00490017      -0.02165059
Pt       1.40360647       4.05186444      24.58417385        2       0.00000000      -0.01192155       0.00513209      -0.04681886
Pt       4.21082100       4.05186404      24.58417381        2       0.00000000       0.00013628       0.00953301      -0.02139202
Pt       7.01803473       4.05186412      24.58417379        2       0.00000000       0.01004940       0.00873420      -0.04697802
Pt       2.80721284       6.48298340      24.58417356        2       0.00000000       0.21195115       0.11999814       0.25290525
Pt       5.61442787       6.48298334      24.58417388        2       0.00000000      -0.20913382       0.12495071       0.25271165
Pt       8.42164233       6.48298347      24.58417367        2       0.00000000       0.00195804      -0.01235622      -0.04577287
Pt      -0.00002548      -0.00371698      27.14350300        1       0.00000000       0.00008741       0.01766843      -0.01280078
Pt       2.80654283      -0.00282915      26.89802739        1       0.00000000       0.00422744      -0.00422907      -0.00175720
Pt       5.61504972      -0.00110752      26.89773732        1       0.00000000      -0.00424324      -0.00496940      -0.00111011
Pt       1.40189660       2.43191985      26.89729642        1       0.00000000      -0.00378484       0.00206181      -0.00063282
Pt       4.21080044       2.43145206      26.90537425        1       0.00000000       0.00014443      -0.00093037       0.00430440
Pt       7.02129016       2.43277063      26.89753137        1       0.00000000       0.00288313       0.00154078      -0.00129145
Pt       2.80446787       4.86509489      26.89788507        1       0.00000000      -0.00710877      -0.00567457      -0.00112945
Pt       5.61572504       4.86422746      26.89752620        1       0.00000000       0.00771927      -0.00537135      -0.00051457
Pt       8.42164235       4.86257508      26.91409820        1       0.00000000       0.00009934      -0.00093801      -0.00599201
C        0.00001547      -0.00121908      29.22529110        0       1.00000000      -0.00049266       0.00634708       0.01187588
H        0.00055536       1.04430857      29.56636033        0       0.00000000       0.00050646       0.00797156       0.00173933
H        0.90480288      -0.52317107      29.56917181        0       0.00000000       0.00637800      -0.00690002       0.00039273
H       -0.90538679      -0.52210882      29.56918631        0       0.00000000      -0.00641644      -0.00673337       0.00021363
