40
Lattice="8.421641763931781 0.0 0.0 4.2108208819658905 7.293355709136913 0.0 0.0 0.0 46.87624170604845" Properties=species:S:1:pos:R:3:tags:I:1:initial_magmoms:R:1:forces:R:3 charge=0 spin=0 energy=-206.15442587680542 free_energy=-206.15442587680542 stress="0.010451624169945717 1.0559427209955174e-05 -1.4507787454931531e-05 1.0559427209955174e-05 0.009673064574599266 7.585722050862387e-05 -1.4507787454931531e-05 7.585722050862387e-05 -0.00031908409437164664" pbc="T T T"
Pt       0.00000003       0.00000007      19.95723551        4       0.00000000       0.00168841       0.00169341       0.01682122
Pt       2.80721399      -0.00000008      19.95723555        4       0.00000000      -0.00037447       0.00071727       0.01624508
Pt       5.61442774      -0.00000012      19.95723554        4       0.00000000       0.00051805      -0.00712846       0.02622009
Pt       1.40360717       2.43111834      19.95723540        4       0.00000000      -0.00100185       0.00318717       0.02291486
Pt       4.21082076       2.43111843      19.95723549        4       0.00000000      -0.00013158       0.00352460       0.02219491
Pt       7.01803486       2.43111843      19.95723547        4       0.00000000       0.00129310       0.00447720       0.01942558
Pt       2.80721421       4.86223732      19.95723529        4       0.00000000       0.01561010      -0.00059342      -0.00201641
Pt       5.61442794       4.86223731      19.95723540        4       0.00000000      -0.00110414       0.00512373       0.01304311
Pt       8.42164146       4.86223722      19.95723551        4       0.00000000      -0.01581221       0.00166024      -0.00188382
Pt       1.40360717       0.81037261      22.29206807        3       0.00000000       0.00283814       0.02051242      -0.03324496
Pt       4.21082122       0.81037254      22.29206808        3       0.00000000       0.00196294      -0.00280929      -0.03991006
Pt       7.01803484       0.81037259      22.29206812        3       0.00000000       0.00213334       0.00514169      -0.03814377
Pt       2.80721436       3.24149112      22.29206782        3       0.00000000      -0.00220527       0.04161251      -0.08968453
Pt       5.61442774       3.24149129      22.29206807        3       0.00000000      -0.00086557       0.01226699      -0.06847968
Pt       8.42164142       3.24149141      22.29206809        3       0.00000000       0.00233696       0.04294856      -0.08915207
Pt       4.21082097       5.67261006      22.29206778        3       0.00000000      -0.02307375      -0.00440982      -0.06647044
Pt       7.01803483       5.67260987      22.29206781        3       0.00000000       0.02207967      -0.00105812      -0.06683875
Pt       9.82524821       5.67261060      22.29206810        3       0.00000000       0.00296503      -0.04095871      -0.10674597
Pt      -0.00000049       1.62074561      24.58417352        2       0.00000000      -0.04761512      -0.14938524       0.05014656
Pt       2.80721437       1.62074550      24.58417378        2       0.00000000       0.04663295      -0.15161239       0.04668704
Pt       5.61442785       1.62074544      24.58417371        2       0.00000000      -0.00572936      -0.02341910      -0.02787656
Pt       1.40360647       4.05186444      24.58417385        2       0.00000000      -0.00296106       0.05209600      -0.18329088
Pt       4.21082100       4.05186404      24.58417381        2       0.00000000      -0.04367687      -0.04879877      -0.09779769
Pt       7.01803473       4.05186412      24.58417379        2       0.00000000       0.04912603      -0.04351621      -0.09893723
Pt       2.80721284       6.48298340      24.58417356        2       0.00000000       0.19553696       0.09871932       0.30341017
Pt       5.61442787       6.48298334      24.58417388        2       0.00000000       0.00610995       0.03655139       0.08080957
Pt       8.42164233       6.48298347      24.58417367        2       0.00000000      -0.20738284       0.11743831       0.31554508
Pt       0.01455371      -0.04768129      26.99717771        1       0.00000000       0.01841196      -0.00807713       0.02110472
Pt       2.78873719      -0.04737193      27.00188617        1       0.00000000      -0.03293602      -0.00555922       0.03284363
Pt       5.61424320      -0.03769958      26.90342526        1       0.00000000      -0.00494731       0.03158230       0.01231201
Pt       1.40225327       2.45551132      26.86779249        1       0.00000000      -0.00137472       0.02329415      -0.00451772
Pt       4.21327332       2.38814505      26.91311066        1       0.00000000      -0.01727458       0.01793016      -0.00103789
Pt       7.01357423       2.38817775      26.91282091        1       0.00000000       0.01231638       0.01704394      -0.00242798
Pt       2.80801554       4.83193409      26.91347529        1       0.00000000      -0.01317412       0.00497768       0.01758859
Pt       5.61377022       4.77922509      26.88506638        1       0.00000000      -0.00004117      -0.03284987      -0.00431956
Pt       8.41949018       4.83340622      26.91274327        1       0.00000000       0.01154869       0.00471393       0.01693233
C        1.40865245       0.09001084      28.88429821        0       1.00000000       0.01264344      -0.01654860      -0.01140105
H        1.40578164       1.11743761      29.26368991        0       0.00000000       0.00681895       0.02181319      -0.00281015
H        2.28596409      -0.47361722      29.26003494        0       0.00000000       0.01476506      -0.01793232       0.01458310
H        0.52507433      -0.47132949      29.25065757        0       0.00000000      -0.00565431      -0.01436960      -0.01184028
