40
Lattice="8.421641763931781 0.0 0.0 4.2108208819658905 7.293355709136913 0.0 0.0 0.0 46.87624170604845" Properties=species:S:1:pos:R:3:tags:I:1:initial_magmoms:R:1:forces:R:3 charge=0 spin=0 energy=-206.8933746988269 free_energy=-206.8933746988269 stress="0.010471680201590061 -8.509158760716673e-06 5.008459993405268e-06 -8.509158760716673e-06 0.010342881083488464 3.292581459390931e-05 5.008459993405268e-06 3.292581459390931e-05 -0.0002769594721030444" pbc="T T T"
Pt       0.00000003       0.00000007      19.95723551        4       0.00000000       0.00027876      -0.00153510       0.01309316
Pt       2.80721399      -0.00000008      19.95723555        4       0.00000000      -0.00117401      -0.00717891       0.01685506
Pt       5.61442774      -0.00000012      19.95723554        4       0.00000000       0.00211954      -0.00541651       0.01934231
Pt       1.40360717       2.43111834      19.95723540        4       0.00000000      -0.00337961      -0.00213690       0.01966680
Pt       4.21082076       2.43111843      19.95723549        4       0.00000000       0.00062290      -0.00202650       0.02512868
Pt       7.01803486       2.43111843      19.95723547        4       0.00000000       0.00539380      -0.00132320       0.01714196
Pt       2.80721421       4.86223732      19.95723529        4       0.00000000      -0.00303797       0.00215118       0.01761846
Pt       5.61442794       4.86223731      19.95723540        4       0.00000000       0.00221926       0.00128908       0.01964320
Pt       8.42164146       4.86223722      19.95723551        4       0.00000000      -0.00002201       0.00042853      -0.03665064
Pt       1.40360717       0.81037261      22.29206807        3       0.00000000      -0.00021180      -0.01106342      -0.00315658
Pt       4.21082122       0.81037254      22.29206808        3       0.00000000       0.00435667      -0.01882824      -0.06597060
Pt       7.01803484       0.81037259      22.29206812        3       0.00000000       0.00466962      -0.00522837      -0.00190911
Pt       2.80721436       3.24149112      22.29206782        3       0.00000000      -0.01200914      -0.00555948      -0.06631114
Pt       5.61442774       3.24149129      22.29206807        3       0.00000000       0.00847221       0.00168499      -0.06573334
Pt       8.42164142       3.24149141      22.29206809        3       0.00000000      -0.00109447       0.07189237      -0.15538035
Pt       4.21082097       5.67261006      22.29206778        3       0.00000000      -0.00276954      -0.00625137      -0.00885435
Pt       7.01803483       5.67260987      22.29206781        3       0.00000000       0.06489223      -0.04274032      -0.14863771
Pt       9.82524821       5.67261060      22.29206810        3       0.00000000      -0.06327009      -0.04639114      -0.14810508
Pt      -0.00000049       1.62074561      24.58417352        2       0.00000000      -0.00511824      -0.22365095       0.28650421
Pt       2.80721437       1.62074550      24.58417378        2       0.00000000      -0.01727312       0.02506357      -0.01692741
Pt       5.61442785       1.62074544      24.58417371        2       0.00000000       0.01093453       0.01450079      -0.00805002
Pt       1.40360647       4.05186444      24.58417385        2       0.00000000      -0.01531240       0.02973955      -0.04050440
Pt       4.21082100       4.05186404      24.58417381        2       0.00000000       0.00238573       0.03441890      -0.01376775
Pt       7.01803473       4.05186412      24.58417379        2       0.00000000       0.00361140       0.03455770      -0.03970629
Pt       2.80721284       6.48298340      24.58417356        2       0.00000000       0.20047171       0.14660180       0.26334554
Pt       5.61442787       6.48298334      24.58417388        2       0.00000000      -0.20337316       0.14287199       0.24978207
Pt       8.42164233       6.48298347      24.58417367        2       0.00000000       0.01022643       0.01597959      -0.04042190
Pt       0.00269594       0.02745081      27.14406337        1       0.00000000      -0.02101921       0.00440011      -0.00079642
Pt       2.80667455       0.03015169      26.89801349        1       0.00000000       0.00510118      -0.02757891      -0.00224171
Pt       5.61482712       0.03245813      26.90536967        1       0.00000000       0.00351921      -0.03529292      -0.01763515
Pt       1.39845241       2.46653598      26.90199310        1       0.00000000      -0.01200634      -0.02885183      -0.01499406
Pt       4.20810397       2.45897541      26.90664835        1       0.00000000       0.00375077      -0.00186566       0.00245640
Pt       7.01709004       2.46635813      26.90159067        1       0.00000000       0.01759364      -0.02441506      -0.01778660
Pt       2.80391679       4.89197814      26.90006222        1       0.00000000      -0.02098348       0.00285537      -0.01619639
Pt       5.61086679       4.89314307      26.90340405        1       0.00000000       0.01755842      -0.00601528      -0.01868487
Pt       8.41569920       4.89925777      26.91305151        1       0.00000000       0.01871500      -0.03284389      -0.00142419
C        0.01909459       0.01438177      29.22750622        0       1.00000000      -0.01909160       0.00004856       0.00155120
H       -0.50910050       0.91147657      29.58270117        0       0.00000000       0.01946898       0.02004926      -0.01273147
H        1.06910849       0.01831764      29.55620642        0       0.00000000      -0.02245878       0.00449085       0.01782616
H       -0.49668122      -0.89449384      29.57069659        0       0.00000000       0.01724305      -0.01683012      -0.00737793
