40
Lattice="8.421641763931781 0.0 0.0 4.2108208819658905 7.293355709136913 0.0 0.0 0.0 46.87624170604845" Properties=species:S:1:pos:R:3:tags:I:1:initial_magmoms:R:1:forces:R:3 charge=0 spin=0 energy=-206.15310217685425 free_energy=-206.15310217685425 stress="0.01053162757307291 1.0102234227815643e-05 -1.6084245046954493e-08 1.0102234227815643e-05 0.009699737653136253 0.00012294498446863145 -1.6084245046954493e-08 0.00012294498446863145 -0.0002528703189454973" pbc="T T T"
Pt       0.00000003       0.00000007      19.95723551        4       0.00000000       0.00093726      -0.00064235       0.01642964
Pt       2.80721399      -0.00000008      19.95723555        4       0.00000000      -0.00002985      -0.00214314       0.01559625
Pt       5.61442774      -0.00000012      19.95723554        4       0.00000000       0.00046119      -0.00835211       0.02645381
Pt       1.40360717       2.43111834      19.95723540        4       0.00000000      -0.00074018       0.00151348       0.02273997
Pt       4.21082076       2.43111843      19.95723549        4       0.00000000      -0.00005858       0.00093352       0.02325174
Pt       7.01803486       2.43111843      19.95723547        4       0.00000000       0.00086064       0.00229691       0.02003029
Pt       2.80721421       4.86223732      19.95723529        4       0.00000000       0.01495191       0.00178362      -0.00115422
Pt       5.61442794       4.86223731      19.95723540        4       0.00000000      -0.00088464       0.00410454       0.01336612
Pt       8.42164146       4.86223722      19.95723551        4       0.00000000      -0.01495360       0.00359233      -0.00277149
Pt       1.40360717       0.81037261      22.29206807        3       0.00000000       0.00296994       0.01782423      -0.02975020
Pt       4.21082122       0.81037254      22.29206808        3       0.00000000       0.00006065      -0.00705463      -0.03631638
Pt       7.01803484       0.81037259      22.29206812        3       0.00000000       0.00446932       0.00034573      -0.03377464
Pt       2.80721436       3.24149112      22.29206782        3       0.00000000      -0.00436744       0.04323011      -0.09398331
Pt       5.61442774       3.24149129      22.29206807        3       0.00000000      -0.00041313       0.00595219      -0.07056353
Pt       8.42164142       3.24149141      22.29206809        3       0.00000000       0.00318885       0.04561633      -0.09487918
Pt       4.21082097       5.67261006      22.29206778        3       0.00000000      -0.02135901      -0.01080505      -0.06553300
Pt       7.01803483       5.67260987      22.29206781        3       0.00000000       0.02084224      -0.00657095      -0.06686409
Pt       9.82524821       5.67261060      22.29206810        3       0.00000000       0.00127610      -0.04046390      -0.10852788
Pt      -0.00000049       1.62074561      24.58417352        2       0.00000000      -0.03937469      -0.14644590       0.07407899
Pt       2.80721437       1.62074550      24.58417378        2       0.00000000       0.03947189      -0.14255886       0.06552602
Pt       5.61442785       1.62074544      24.58417371        2       0.00000000      -0.00597196      -0.02038603      -0.01313190
Pt       1.40360647       4.05186444      24.58417385        2       0.00000000      -0.00269247       0.07249112      -0.19159941
Pt       4.21082100       4.05186404      24.58417381        2       0.00000000      -0.05339250      -0.02848098      -0.10509016
Pt       7.01803473       4.05186412      24.58417379        2       0.00000000       0.05675599      -0.01976231      -0.10649571
Pt       2.80721284       6.48298340      24.58417356        2       0.00000000       0.18488631       0.12331459       0.33431324
Pt       5.61442787       6.48298334      24.58417388        2       0.00000000       0.00569628       0.06895623       0.09024082
Pt       8.42164233       6.48298347      24.58417367        2       0.00000000      -0.19178309       0.13710147       0.33677265
Pt       0.02276021      -0.03218143      27.00845042        1       0.00000000      -0.04173115      -0.00853312      -0.00719559
Pt       2.78128889      -0.03281516      27.01142454        1       0.00000000       0.03764443      -0.00547468      -0.00931665
Pt       5.61400098      -0.01192562      26.91333372        1       0.00000000      -0.00060435      -0.00050733      -0.03819010
Pt       1.40283413       2.47131539      26.87009589        1       0.00000000      -0.00123232       0.00737952      -0.01362623
Pt       4.21004095       2.41175713      26.90948718        1       0.00000000      -0.00197002      -0.02836300       0.00470741
Pt       7.01716275       2.41313085      26.90902968        1       0.00000000       0.00123517      -0.03274216       0.00536892
Pt       2.80454625       4.85353984      26.91438165        1       0.00000000      -0.00334594       0.00841960       0.01323421
Pt       5.61418415       4.79899826      26.87992074        1       0.00000000      -0.00049010      -0.03533313       0.00792279
Pt       8.42474321       4.85497485      26.91398317        1       0.00000000       0.00063558       0.00830016       0.01334046
C        1.40430497      -0.04901797      28.90206366        0       1.00000000       0.00375423      -0.03273116      -0.01455594
H        1.40304158      -1.06126368      29.32066919        0       0.00000000       0.00079180      -0.01220419      -0.01941017
H        0.52518587       0.53038539      29.24611166        0       0.00000000      -0.02442200       0.01875083       0.01507867
H        2.28361986       0.52871644      29.24790699        0       0.00000000       0.02892735       0.01764830       0.02427763
