40
Lattice="8.421641763931781 0.0 0.0 4.2108208819658905 7.293355709136913 0.0 0.0 0.0 46.87624170604845" Properties=species:S:1:pos:R:3:tags:I:1:initial_magmoms:R:1:forces:R:3 charge=0 spin=0 energy=-206.89530684299194 free_energy=-206.89530684299194 stress="0.010378500446677208 -1.1278063539066352e-05 -3.0509095267916564e-06 -1.1278063539066352e-05 0.01033394318073988 2.787216544675175e-05 -3.0509095267916564e-06 2.787216544675175e-05 -0.0003547411470208317" pbc="T T T"
Pt       0.00000003       0.00000007      19.95723551        4       0.00000000       0.00274917      -0.00397970       0.01925989
Pt       2.80721399      -0.00000008      19.95723555        4       0.00000000       0.00050403      -0.00070217       0.01327967
Pt       5.61442774      -0.00000012      19.95723554        4       0.00000000      -0.00125322      -0.00551263       0.01721819
Pt       1.40360717       2.43111834      19.95723540        4       0.00000000       0.00561763       0.00030839       0.01713814
Pt       4.21082076       2.43111843      19.95723549        4       0.00000000      -0.00337730      -0.00047320       0.01926303
Pt       7.01803486       2.43111843      19.95723547        4       0.00000000       0.00031352      -0.00044958       0.02519686
Pt       2.80721421       4.86223732      19.95723529        4       0.00000000       0.00006588      -0.00002629      -0.03673677
Pt       5.61442794       4.86223731      19.95723540        4       0.00000000      -0.00292459       0.00365823       0.01733577
Pt       8.42164146       4.86223722      19.95723551        4       0.00000000       0.00274248       0.00274429       0.01933534
Pt       1.40360717       0.81037261      22.29206807        3       0.00000000       0.00511051      -0.00112336      -0.00240381
Pt       4.21082122       0.81037254      22.29206808        3       0.00000000       0.00141639      -0.00537987      -0.00452984
Pt       7.01803484       0.81037259      22.29206812        3       0.00000000       0.00624382      -0.01334532      -0.06791580
Pt       2.80721436       3.24149112      22.29206782        3       0.00000000      -0.00045362       0.07472759      -0.15160921
Pt       5.61442774       3.24149129      22.29206807        3       0.00000000      -0.01090864      -0.00085882      -0.06564678
Pt       8.42164142       3.24149141      22.29206809        3       0.00000000       0.00913753       0.00707291      -0.06572216
Pt       4.21082097       5.67261006      22.29206778        3       0.00000000      -0.06361883      -0.04131106      -0.14971514
Pt       7.01803483       5.67260987      22.29206781        3       0.00000000      -0.00089278      -0.00036814      -0.00387690
Pt       9.82524821       5.67261060      22.29206810        3       0.00000000       0.06751222      -0.03803659      -0.14904015
Pt      -0.00000049       1.62074561      24.58417352        2       0.00000000       0.00414141       0.00348213      -0.01776661
Pt       2.80721437       1.62074550      24.58417378        2       0.00000000      -0.01190088      -0.23894399       0.25801709
Pt       5.61442785       1.62074544      24.58417371        2       0.00000000      -0.01684885       0.00452801      -0.01709843
Pt       1.40360647       4.05186444      24.58417385        2       0.00000000       0.00315588       0.01449485      -0.05617481
Pt       4.21082100       4.05186404      24.58417381        2       0.00000000      -0.01318069       0.00983314      -0.05947312
Pt       7.01803473       4.05186412      24.58417379        2       0.00000000      -0.00400569       0.01842029      -0.02936546
Pt       2.80721284       6.48298340      24.58417356        2       0.00000000      -0.00152078      -0.00660240      -0.06257102
Pt       5.61442787       6.48298334      24.58417388        2       0.00000000       0.21065857       0.12805358       0.26110286
Pt       8.42164233       6.48298347      24.58417367        2       0.00000000      -0.21660373       0.13214605       0.25090787
Pt      -0.00870137       0.00719620      26.89698748        1       0.00000000       0.01467212      -0.00580798      -0.00474245
Pt       2.80171419       0.01229373      27.14480010        1       0.00000000       0.00263150      -0.00042643      -0.00381573
Pt       5.61163281       0.00452808      26.89354457        1       0.00000000      -0.02038630      -0.00048443       0.02002897
Pt       1.39628476       2.44487296      26.89836002        1       0.00000000       0.01517820      -0.02305873       0.00347970
Pt       4.19709803       2.44264373      26.89898652        1       0.00000000       0.01819175      -0.01482982      -0.00951449
Pt       7.00890231       2.44466226      26.90676846        1       0.00000000       0.00803922      -0.02491705       0.00188967
Pt       2.80368021       4.86943397      26.90865854        1       0.00000000      -0.00779745       0.00728765       0.01572542
Pt       5.60761622       4.86905449      26.89652113        1       0.00000000      -0.00536494       0.02940539       0.00888411
Pt       8.41662056       4.87170052      26.89787941        1       0.00000000       0.00839652       0.00888444      -0.00307993
C        2.79643202       0.01808805      29.22795676        0       1.00000000      -0.02737825      -0.01590791       0.01972673
H        1.74754173       0.02253985      29.56220918        0       0.00000000       0.02806154      -0.00009032       0.00304083
H        3.32195955       0.91711220      29.58325560        0       0.00000000      -0.00407129       0.00175974      -0.03407045
H        3.31079212      -0.89201005      29.57017942        0       0.00000000      -0.00205199      -0.00417095       0.00403920
