40
Lattice="8.421641763931781 0.0 0.0 4.2108208819658905 7.293355709136913 0.0 0.0 0.0 46.87624170604845" Properties=species:S:1:pos:R:3:tags:I:1:initial_magmoms:R:1:forces:R:3 charge=0 spin=0 energy=-206.89362265414917 free_energy=-206.89362265414917 stress="0.010168865323066711 -1.5831739119676058e-07 6.011339426237328e-09 -1.5831739119676058e-07 0.010168959386646748 -3.6664292224486417e-07 6.011339426237328e-09 -3.6664292224486417e-07 -0.000734299945179373" pbc="T T T"
Pt       0.00000003       0.00000007      19.95723551        4       0.00000000       0.00000337       0.00000151       0.01283512
Pt       2.80721399      -0.00000008      19.95723555        4       0.00000000      -0.00186196      -0.00479674       0.01709270
Pt       5.61442774      -0.00000012      19.95723554        4       0.00000000       0.00186640      -0.00371254       0.01884545
Pt       1.40360717       2.43111834      19.95723540        4       0.00000000      -0.00415862       0.00025123       0.01878525
Pt       4.21082076       2.43111843      19.95723549        4       0.00000000       0.00000138      -0.00000181       0.02499442
Pt       7.01803486       2.43111843      19.95723547        4       0.00000000       0.00510007       0.00077387       0.01708717
Pt       2.80721421       4.86223732      19.95723529        4       0.00000000      -0.00324233       0.00402679       0.01717820
Pt       5.61442794       4.86223731      19.95723540        4       0.00000000       0.00229131       0.00346345       0.01883231
Pt       8.42164146       4.86223722      19.95723551        4       0.00000000       0.00000399      -0.00000364      -0.03730458
Pt       1.40360717       0.81037261      22.29206807        3       0.00000000      -0.00107736      -0.00300068      -0.00333752
Pt       4.21082122       0.81037254      22.29206808        3       0.00000000       0.00436310      -0.01069842      -0.06680971
Pt       7.01803484       0.81037259      22.29206812        3       0.00000000       0.00311351       0.00062094      -0.00337418
Pt       2.80721436       3.24149112      22.29206782        3       0.00000000      -0.01146721       0.00156517      -0.06661870
Pt       5.61442774       3.24149129      22.29206807        3       0.00000000       0.00710177       0.00916621      -0.06663178
Pt       8.42164142       3.24149141      22.29206809        3       0.00000000      -0.00197494       0.07603246      -0.14740939
Pt       4.21082097       5.67261006      22.29206778        3       0.00000000      -0.00204919       0.00238291      -0.00316841
Pt       7.01803483       5.67260987      22.29206781        3       0.00000000       0.06682399      -0.03632734      -0.14741950
Pt       9.82524821       5.67261060      22.29206810        3       0.00000000      -0.06483506      -0.03972221      -0.14743105
Pt      -0.00000049       1.62074561      24.58417352        2       0.00000000      -0.00555518      -0.24305537       0.20536436
Pt       2.80721437       1.62074550      24.58417378        2       0.00000000      -0.00061672      -0.00571182      -0.05533384
Pt       5.61442785       1.62074544      24.58417371        2       0.00000000       0.00495707       0.00220141      -0.05550441
Pt       1.40360647       4.05186444      24.58417385        2       0.00000000      -0.02071177       0.01581029      -0.09085073
Pt       4.21082100       4.05186404      24.58417381        2       0.00000000      -0.00443125       0.00323579      -0.05541469
Pt       7.01803473       4.05186412      24.58417379        2       0.00000000       0.02421577       0.00999955      -0.09095010
Pt       2.80721284       6.48298340      24.58417356        2       0.00000000       0.21300766       0.11661134       0.20545758
Pt       5.61442787       6.48298334      24.58417388        2       0.00000000      -0.20726363       0.12641725       0.20549159
Pt       8.42164233       6.48298347      24.58417367        2       0.00000000      -0.00359987      -0.02567567      -0.09065681
Pt       0.00000477      -0.00010707      27.12248329        1       0.00000000       0.00000976      -0.00007911      -0.02419847
Pt       2.80620733      -0.00439336      26.88837554        1       0.00000000       0.00271746       0.00336414       0.04117151
Pt       5.61143356      -0.00282416      26.88455971        1       0.00000000       0.00180391       0.00297966       0.04696900
Pt       1.40266493       2.43508605      26.88451528        1       0.00000000       0.00164445      -0.00321563       0.04680041
Pt       4.21080903       2.43110897      26.90329461        1       0.00000000       0.00000799      -0.00003974       0.01479423
Pt       7.02233378       2.43239667      26.88816934        1       0.00000000      -0.00422493       0.00062664       0.04147778
Pt       2.80391589       4.86531638      26.88823163        1       0.00000000       0.00154322      -0.00409721       0.04134649
Pt       5.61837277       4.86107246      26.88450349        1       0.00000000      -0.00346897       0.00009735       0.04667559
Pt       8.42164720       4.86222763      26.91311149        1       0.00000000      -0.00002886      -0.00001246       0.00564784
C        0.00000004      -0.00002905      29.20171312        0       1.00000000      -0.00006918       0.00024424      -0.00847746
H        0.52337499      -0.90623629      29.53842304        0       0.00000000       0.00108087      -0.00209128       0.03780104
H       -1.04661445      -0.00005141      29.53801085        0       0.00000000      -0.00251982      -0.00001085       0.03798929
H        0.52323767       0.90654918      29.53759814        0       0.00000000       0.00149992       0.00238044       0.03825394
