40
Lattice="8.421641763931781 0.0 0.0 4.2108208819658905 7.293355709136913 0.0 0.0 0.0 46.87624170604845" Properties=species:S:1:pos:R:3:tags:I:1:initial_magmoms:R:1:forces:R:3 charge=0 spin=0 energy=-206.15261389560425 free_energy=-206.15261389560425 stress="0.010550734587013721 1.4751163689652458e-05 3.753756755031645e-05 1.4751163689652458e-05 0.009660616517066956 0.00012730936578009278 3.753756755031645e-05 0.00012730936578009278 -0.00029394245939329267" pbc="T T T"
Pt       0.00000003       0.00000007      19.95723551        4       0.00000000       0.00040246      -0.00103058       0.01651902
Pt       2.80721399      -0.00000008      19.95723555        4       0.00000000       0.00024025      -0.00261604       0.01566923
Pt       5.61442774      -0.00000012      19.95723554        4       0.00000000       0.00053423      -0.00916578       0.02574626
Pt       1.40360717       2.43111834      19.95723540        4       0.00000000      -0.00096695       0.00112958       0.02273601
Pt       4.21082076       2.43111843      19.95723549        4       0.00000000      -0.00020844      -0.00000907       0.02358554
Pt       7.01803486       2.43111843      19.95723547        4       0.00000000       0.00107109       0.00133990       0.01984469
Pt       2.80721421       4.86223732      19.95723529        4       0.00000000       0.01391756       0.00151091      -0.00008709
Pt       5.61442794       4.86223731      19.95723540        4       0.00000000      -0.00084353       0.00322673       0.01316767
Pt       8.42164146       4.86223722      19.95723551        4       0.00000000      -0.01547061       0.00313285      -0.00330275
Pt       1.40360717       0.81037261      22.29206807        3       0.00000000       0.00233763       0.01566790      -0.03131327
Pt       4.21082122       0.81037254      22.29206808        3       0.00000000      -0.00074341      -0.00939059      -0.03775276
Pt       7.01803484       0.81037259      22.29206812        3       0.00000000       0.00422722      -0.00171498      -0.03173062
Pt       2.80721436       3.24149112      22.29206782        3       0.00000000      -0.00516502       0.03949582      -0.09146881
Pt       5.61442774       3.24149129      22.29206807        3       0.00000000      -0.00041493       0.00343234      -0.07177582
Pt       8.42164142       3.24149141      22.29206809        3       0.00000000       0.00216115       0.04436472      -0.09634023
Pt       4.21082097       5.67261006      22.29206778        3       0.00000000      -0.02131223      -0.01250490      -0.06338894
Pt       7.01803483       5.67260987      22.29206781        3       0.00000000       0.02010537      -0.00905432      -0.06961154
Pt       9.82524821       5.67261060      22.29206810        3       0.00000000      -0.00380557      -0.04312425      -0.10587624
Pt      -0.00000049       1.62074561      24.58417352        2       0.00000000      -0.04146161      -0.14614573       0.08343127
Pt       2.80721437       1.62074550      24.58417378        2       0.00000000       0.04028806      -0.13090310       0.05961822
Pt       5.61442785       1.62074544      24.58417371        2       0.00000000      -0.00332227       0.00034082      -0.04682412
Pt       1.40360647       4.05186444      24.58417385        2       0.00000000      -0.00107070       0.08973888      -0.20267552
Pt       4.21082100       4.05186404      24.58417381        2       0.00000000      -0.06026074      -0.01883883      -0.09271361
Pt       7.01803473       4.05186412      24.58417379        2       0.00000000       0.06611350      -0.01342531      -0.09335788
Pt       2.80721284       6.48298340      24.58417356        2       0.00000000       0.20067769       0.12549803       0.31919658
Pt       5.61442787       6.48298334      24.58417388        2       0.00000000       0.00041843       0.07405740       0.09511974
Pt       8.42164233       6.48298347      24.58417367        2       0.00000000      -0.19092296       0.13242693       0.30205825
Pt       0.02550338      -0.02363009      27.01331529        1       0.00000000       0.02731772      -0.01505780       0.00536173
Pt       2.79106557      -0.02275453      27.00456244        1       0.00000000      -0.00163200      -0.01629633      -0.01600858
Pt       5.61710906       0.00054007      26.90339295        1       0.00000000       0.00568846      -0.02512899       0.02558377
Pt       1.40375179       2.48318900      26.86522791        1       0.00000000       0.00020012      -0.01847616       0.01490091
Pt       4.21528218       2.41789021      26.91010714        1       0.00000000      -0.03676471       0.00478318       0.00267561
Pt       7.01529178       2.41779696      26.91018774        1       0.00000000       0.04168079       0.00191354       0.00194083
Pt       2.80205043       4.86759448      26.91675590        1       0.00000000       0.03261233      -0.02927480       0.00095106
Pt       5.61588117       4.80397455      26.87906059        1       0.00000000       0.00444318      -0.01188303       0.00482717
Pt       8.43032404       4.86810366      26.91668265        1       0.00000000      -0.03072662      -0.03066360       0.00126976
C        1.39531734      -0.04884663      28.89922245        0       1.00000000      -0.02383673       0.00497993       0.00366354
H        2.28111619       0.52797134      29.23717536        0       0.00000000      -0.01737672      -0.00889456      -0.01378062
H        1.40020695      -1.06238574      29.31569272        0       0.00000000      -0.00969178       0.00157485      -0.02306756
H        0.52001883       0.53154875      29.25369404        0       0.00000000       0.00156033       0.00498433       0.03320922
