40
Lattice="8.421641763931781 0.0 0.0 4.2108208819658905 7.293355709136913 0.0 0.0 0.0 46.87624170604845" Properties=species:S:1:pos:R:3:tags:I:1:initial_magmoms:R:1:forces:R:3 charge=0 spin=0 energy=-206.897856968114 free_energy=-206.897856968114 stress="0.010363462381064892 -6.635096383433847e-08 1.5518553109217237e-09 -6.635096383433847e-08 0.010363352485001087 -3.986300782798935e-07 1.5518553109217237e-09 -3.986300782798935e-07 -0.0003264731785748154" pbc="T T T"
Pt       0.00000003       0.00000007      19.95723551        4       0.00000000       0.00000209      -0.00000170       0.01361470
Pt       2.80721399      -0.00000008      19.95723555        4       0.00000000      -0.00177819      -0.00512630       0.01715027
Pt       5.61442774      -0.00000012      19.95723554        4       0.00000000       0.00188036      -0.00359569       0.01926909
Pt       1.40360717       2.43111834      19.95723540        4       0.00000000      -0.00406486       0.00017684       0.01921589
Pt       4.21082076       2.43111843      19.95723549        4       0.00000000       0.00000241      -0.00000584       0.02552455
Pt       7.01803486       2.43111843      19.95723547        4       0.00000000       0.00533977       0.00100157       0.01714671
Pt       2.80721421       4.86223732      19.95723529        4       0.00000000      -0.00356399       0.00411258       0.01723602
Pt       5.61442794       4.86223731      19.95723540        4       0.00000000       0.00218355       0.00341049       0.01926032
Pt       8.42164146       4.86223722      19.95723551        4       0.00000000       0.00000344       0.00000654      -0.03654744
Pt       1.40360717       0.81037261      22.29206807        3       0.00000000      -0.00044045      -0.00347989      -0.00426995
Pt       4.21082122       0.81037254      22.29206808        3       0.00000000       0.00419856      -0.01086823      -0.06722721
Pt       7.01803484       0.81037259      22.29206812        3       0.00000000       0.00318983       0.00138106      -0.00428625
Pt       2.80721436       3.24149112      22.29206782        3       0.00000000      -0.01152088       0.00175958      -0.06699710
Pt       5.61442774       3.24149129      22.29206807        3       0.00000000       0.00731629       0.00908676      -0.06701886
Pt       8.42164142       3.24149141      22.29206809        3       0.00000000      -0.00177693       0.07530628      -0.14933962
Pt       4.21082097       5.67261006      22.29206778        3       0.00000000      -0.00275206       0.00204511      -0.00409983
Pt       7.01803483       5.67260987      22.29206781        3       0.00000000       0.06608327      -0.03613820      -0.14932644
Pt       9.82524821       5.67261060      22.29206810        3       0.00000000      -0.06429991      -0.03919245      -0.14932233
Pt      -0.00000049       1.62074561      24.58417352        2       0.00000000      -0.00347014      -0.24677913       0.25533038
Pt       2.80721437       1.62074550      24.58417378        2       0.00000000      -0.00757765      -0.00425455      -0.01550356
Pt       5.61442785       1.62074544      24.58417371        2       0.00000000       0.00739479      -0.00435124      -0.01549853
Pt       1.40360647       4.05186444      24.58417385        2       0.00000000      -0.01987474       0.00831314      -0.05034660
Pt       4.21082100       4.05186404      24.58417381        2       0.00000000       0.00013221       0.00861460      -0.01562371
Pt       7.01803473       4.05186412      24.58417379        2       0.00000000       0.01732965       0.01295947      -0.05045553
Pt       2.80721284       6.48298340      24.58417356        2       0.00000000       0.21523532       0.12046296       0.25517040
Pt       5.61442787       6.48298334      24.58417388        2       0.00000000      -0.21173252       0.12654223       0.25506303
Pt       8.42164233       6.48298347      24.58417367        2       0.00000000       0.00256018      -0.02118586      -0.05028464
Pt      -0.00000077       0.00000300      27.14563621        1       0.00000000      -0.00000417       0.00007960      -0.00990318
Pt       2.80981439      -0.00410866      26.89608091        1       0.00000000      -0.01601614      -0.00097954       0.00619733
Pt       5.61245927      -0.00297013      26.89558453        1       0.00000000       0.01472829      -0.00032618       0.00696485
Pt       1.40197466       2.43438154      26.89556039        1       0.00000000      -0.00778825      -0.01279152       0.00670102
Pt       4.21082086       2.43116969      26.91103817        1       0.00000000      -0.00000613      -0.00004769      -0.01516582
Pt       7.02033493       2.43550417      26.89603663        1       0.00000000       0.00896119      -0.01354454       0.00597749
Pt       2.80232159       4.86215376      26.89600497        1       0.00000000       0.00703011       0.01427459       0.00622083
Pt       5.61802244       4.86213919      26.89548051        1       0.00000000      -0.00692152       0.01287363       0.00671998
Pt       8.42164187       4.86229623      26.92163940        1       0.00000000       0.00001871      -0.00006166      -0.02307774
C        0.00000231      -0.00035759      29.22892733        0       1.00000000      -0.00002683       0.00016048      -0.02244003
H       -0.90517690       0.52196740      29.57063936        0       0.00000000      -0.01059220       0.00658923       0.00469876
H        0.90497847       0.52231893      29.57063437        0       0.00000000       0.01099946       0.00596365       0.00471375
H        0.00020740      -1.04548613      29.57046673        0       0.00000000      -0.00038162      -0.01239008       0.00455919
