40
Lattice="8.421641763931781 0.0 0.0 4.2108208819658905 7.293355709136913 0.0 0.0 0.0 46.87624170604845" Properties=species:S:1:pos:R:3:tags:I:1:initial_magmoms:R:1:forces:R:3 charge=0 spin=0 energy=-206.894007938573 free_energy=-206.894007938573 stress="0.01036644633859396 1.2725057558782282e-06 1.608250204299111e-05 1.2725057558782282e-06 0.01026306301355362 2.2564172468264587e-05 1.608250204299111e-05 2.2564172468264587e-05 -0.0004223071155138314" pbc="T T T"
Pt       0.00000003       0.00000007      19.95723551        4       0.00000000       0.00175018      -0.00542431       0.01914781
Pt       2.80721399      -0.00000008      19.95723555        4       0.00000000       0.00021682      -0.00169355       0.01309831
Pt       5.61442774      -0.00000012      19.95723554        4       0.00000000      -0.00173747      -0.00647829       0.01700089
Pt       1.40360717       2.43111834      19.95723540        4       0.00000000       0.00523917      -0.00091656       0.01742491
Pt       4.21082076       2.43111843      19.95723549        4       0.00000000      -0.00401902      -0.00155544       0.01907226
Pt       7.01803486       2.43111843      19.95723547        4       0.00000000      -0.00011951      -0.00156952       0.02516276
Pt       2.80721421       4.86223732      19.95723529        4       0.00000000       0.00048634       0.00026943      -0.03684305
Pt       5.61442794       4.86223731      19.95723540        4       0.00000000      -0.00324505       0.00216749       0.01752644
Pt       8.42164146       4.86223722      19.95723551        4       0.00000000       0.00248983       0.00184002       0.01936307
Pt       1.40360717       0.81037261      22.29206807        3       0.00000000       0.00276202      -0.00560754      -0.00436720
Pt       4.21082122       0.81037254      22.29206808        3       0.00000000      -0.00248076      -0.00894910      -0.00156897
Pt       7.01803484       0.81037259      22.29206812        3       0.00000000       0.00411178      -0.01659948      -0.06753273
Pt       2.80721436       3.24149112      22.29206782        3       0.00000000      -0.00226906       0.07265606      -0.15183288
Pt       5.61442774       3.24149129      22.29206807        3       0.00000000      -0.01276611      -0.00485661      -0.06720354
Pt       8.42164142       3.24149141      22.29206809        3       0.00000000       0.00703390       0.00246959      -0.06583954
Pt       4.21082097       5.67261006      22.29206778        3       0.00000000      -0.06325613      -0.04423890      -0.14770806
Pt       7.01803483       5.67260987      22.29206781        3       0.00000000      -0.00316312      -0.00534722      -0.00677847
Pt       9.82524821       5.67261060      22.29206810        3       0.00000000       0.06564983      -0.04156763      -0.14682756
Pt      -0.00000049       1.62074561      24.58417352        2       0.00000000       0.00714861       0.02440492      -0.02816914
Pt       2.80721437       1.62074550      24.58417378        2       0.00000000       0.00230180      -0.22675419       0.26190123
Pt       5.61442785       1.62074544      24.58417371        2       0.00000000      -0.00753516       0.01350017      -0.01436476
Pt       1.40360647       4.05186444      24.58417385        2       0.00000000       0.01464294       0.02916437      -0.06035704
Pt       4.21082100       4.05186404      24.58417381        2       0.00000000      -0.01428265       0.02536913      -0.05908010
Pt       7.01803473       4.05186412      24.58417379        2       0.00000000       0.00260991       0.03197484      -0.02827022
Pt       2.80721284       6.48298340      24.58417356        2       0.00000000      -0.00645061       0.00117413      -0.05888597
Pt       5.61442787       6.48298334      24.58417388        2       0.00000000       0.21120383       0.13906617       0.23334524
Pt       8.42164233       6.48298347      24.58417367        2       0.00000000      -0.19640946       0.14456648       0.24016126
Pt      -0.00386919       0.02529890      26.89079408        1       0.00000000       0.01589025      -0.01670335       0.02016818
Pt       2.81455375       0.02234689      27.13464619        1       0.00000000      -0.00831507      -0.00726822       0.00024961
Pt       5.61777082       0.02318544      26.89945063        1       0.00000000      -0.00410486      -0.01207604       0.00270864
Pt       1.40975065       2.45654249      26.89516009        1       0.00000000       0.00332536      -0.01921667       0.00958895
Pt       4.21255762       2.46079230      26.89953987        1       0.00000000      -0.00609668      -0.02408688      -0.01082431
Pt       7.01849913       2.46419036      26.90812139        1       0.00000000       0.00565779      -0.03917549      -0.00110812
Pt       2.80868998       4.88660306      26.91411445        1       0.00000000       0.00241059      -0.00551527      -0.00028452
Pt       5.61174137       4.89045541      26.89444504        1       0.00000000       0.00474357      -0.00158395       0.01498117
Pt       8.42961017       4.88675070      26.89667829        1       0.00000000      -0.00805244      -0.00349289      -0.00115773
C        2.80908198       0.01606060      29.21685449        0       1.00000000      -0.04178685       0.00931988       0.00334609
H        3.31176143       0.92996836      29.56316771        0       0.00000000       0.00647787       0.02947413       0.00947750
H        3.34257044      -0.87740010      29.57039407        0       0.00000000       0.01524769      -0.03097865      -0.01515619
H        1.75917664      -0.00198523      29.54415351        0       0.00000000       0.00469000       0.00423897       0.03043545
