40
Lattice="8.421641763931781 0.0 0.0 4.2108208819658905 7.293355709136913 0.0 0.0 0.0 46.87624170604845" Properties=species:S:1:pos:R:3:tags:I:1:initial_magmoms:R:1:forces:R:3 charge=0 spin=0 energy=-206.15410925693237 free_energy=-206.15410925693237 stress="0.010495241731405258 1.3050799680058844e-05 1.0817524525918998e-05 1.3050799680058844e-05 0.009710744954645634 5.175123442313634e-05 1.0817524525918998e-05 5.175123442313634e-05 -0.0002518808760214597" pbc="T T T"
Pt       0.00000003       0.00000007      19.95723551        4       0.00000000       0.00174951       0.00074288       0.01679179
Pt       2.80721399      -0.00000008      19.95723555        4       0.00000000      -0.00053958      -0.00052561       0.01613914
Pt       5.61442774      -0.00000012      19.95723554        4       0.00000000       0.00065134      -0.00770050       0.02619516
Pt       1.40360717       2.43111834      19.95723540        4       0.00000000      -0.00075940       0.00245612       0.02315426
Pt       4.21082076       2.43111843      19.95723549        4       0.00000000      -0.00030635       0.00211825       0.02247962
Pt       7.01803486       2.43111843      19.95723547        4       0.00000000       0.00171015       0.00306211       0.01942319
Pt       2.80721421       4.86223732      19.95723529        4       0.00000000       0.01501357      -0.00047177      -0.00142006
Pt       5.61442794       4.86223731      19.95723540        4       0.00000000      -0.00105581       0.00413538       0.01339837
Pt       8.42164146       4.86223722      19.95723551        4       0.00000000      -0.01591006       0.00143860      -0.00235432
Pt       1.40360717       0.81037261      22.29206807        3       0.00000000       0.00285945       0.01708340      -0.02952334
Pt       4.21082122       0.81037254      22.29206808        3       0.00000000       0.00164750      -0.00697638      -0.03920973
Pt       7.01803484       0.81037259      22.29206812        3       0.00000000       0.00271359       0.00059712      -0.03528982
Pt       2.80721436       3.24149112      22.29206782        3       0.00000000      -0.00308731       0.03863197      -0.08807237
Pt       5.61442774       3.24149129      22.29206807        3       0.00000000      -0.00082131       0.00786380      -0.07090201
Pt       8.42164142       3.24149141      22.29206809        3       0.00000000       0.00169708       0.04174646      -0.09048364
Pt       4.21082097       5.67261006      22.29206778        3       0.00000000      -0.02325547      -0.00970198      -0.06537155
Pt       7.01803483       5.67260987      22.29206781        3       0.00000000       0.02196648      -0.00661144      -0.06918620
Pt       9.82524821       5.67261060      22.29206810        3       0.00000000      -0.00038562      -0.04378704      -0.11147569
Pt      -0.00000049       1.62074561      24.58417352        2       0.00000000      -0.04369475      -0.15337379       0.07910112
Pt       2.80721437       1.62074550      24.58417378        2       0.00000000       0.04141355      -0.14962140       0.06811512
Pt       5.61442785       1.62074544      24.58417371        2       0.00000000      -0.00573679      -0.01931607      -0.01143478
Pt       1.40360647       4.05186444      24.58417385        2       0.00000000      -0.00094429       0.05703763      -0.18250653
Pt       4.21082100       4.05186404      24.58417381        2       0.00000000      -0.05480370      -0.03401580      -0.10866544
Pt       7.01803473       4.05186412      24.58417379        2       0.00000000       0.05991794      -0.02822024      -0.11034608
Pt       2.80721284       6.48298340      24.58417356        2       0.00000000       0.19010599       0.12200937       0.33355883
Pt       5.61442787       6.48298334      24.58417388        2       0.00000000       0.00105774       0.05513937       0.08498071
Pt       8.42164233       6.48298347      24.58417367        2       0.00000000      -0.19055896       0.13578062       0.33072492
Pt       0.02429599      -0.03327666      27.00982766        1       0.00000000      -0.03489451      -0.00382408      -0.00900569
Pt       2.78604325      -0.03448991      27.00664806        1       0.00000000       0.03564570      -0.00201757      -0.00774433
Pt       5.61583798      -0.01442332      26.91189973        1       0.00000000      -0.00122321      -0.00548969      -0.03761414
Pt       1.40224086       2.46574667      26.87195610        1       0.00000000       0.00151994       0.01727994      -0.00780830
Pt       4.20902858       2.40760636      26.91138855        1       0.00000000      -0.00116565      -0.02511508       0.00613730
Pt       7.01724357       2.40749504      26.91070753        1       0.00000000       0.00465795      -0.02729023       0.00757360
Pt       2.80421060       4.84904896      26.91352746        1       0.00000000      -0.00062318       0.00991595       0.01204055
Pt       5.61373369       4.79078124      26.88016923        1       0.00000000       0.00208173      -0.02307973       0.00214037
Pt       8.42420085       4.84922415      26.91266304        1       0.00000000       0.00213280       0.01143251       0.01260760
C        1.40261588       0.04756198      28.89603402        0       1.00000000      -0.00407579       0.04280868      -0.01441111
H        0.52502827      -0.52646377      29.25267095        0       0.00000000      -0.03502895      -0.01888366       0.02590724
H        1.40312700       1.06543951      29.30114803        0       0.00000000      -0.00187443       0.01233824      -0.02233342
H        2.28237145      -0.52555963      29.24961126        0       0.00000000       0.03220344      -0.01759634       0.01468963
