40
Lattice="8.421641763931781 0.0 0.0 4.2108208819658905 7.293355709136913 0.0 0.0 0.0 46.87624170604845" Properties=species:S:1:pos:R:3:tags:I:1:initial_magmoms:R:1:forces:R:3 charge=0 spin=0 energy=-206.89809538669311 free_energy=-206.89809538669311 stress="0.010362058877944946 -1.3617116678688035e-07 1.4128028524851288e-08 -1.3617116678688035e-07 0.010363488458096981 -4.722936864709482e-06 1.4128028524851288e-08 -4.722936864709482e-06 -0.0003362738061696291" pbc="T T T"
Pt       0.00000003       0.00000007      19.95723551        4       0.00000000       0.00000246       0.00002285       0.01325177
Pt       2.80721399      -0.00000008      19.95723555        4       0.00000000      -0.00201300      -0.00500845       0.01732701
Pt       5.61442774      -0.00000012      19.95723554        4       0.00000000       0.00202078      -0.00345357       0.01944117
Pt       1.40360717       2.43111834      19.95723540        4       0.00000000      -0.00400034       0.00001517       0.01935692
Pt       4.21082076       2.43111843      19.95723549        4       0.00000000       0.00001514      -0.00000878       0.02545332
Pt       7.01803486       2.43111843      19.95723547        4       0.00000000       0.00533992       0.00078573       0.01729586
Pt       2.80721421       4.86223732      19.95723529        4       0.00000000      -0.00333418       0.00421530       0.01741999
Pt       5.61442794       4.86223731      19.95723540        4       0.00000000       0.00197826       0.00340901       0.01940866
Pt       8.42164146       4.86223722      19.95723551        4       0.00000000       0.00000146      -0.00007575      -0.03686349
Pt       1.40360717       0.81037261      22.29206807        3       0.00000000      -0.00044470      -0.00335946      -0.00321593
Pt       4.21082122       0.81037254      22.29206808        3       0.00000000       0.00422714      -0.01116695      -0.06663401
Pt       7.01803484       0.81037259      22.29206812        3       0.00000000       0.00314587       0.00146757      -0.00319587
Pt       2.80721436       3.24149112      22.29206782        3       0.00000000      -0.01178641       0.00187942      -0.06647088
Pt       5.61442774       3.24149129      22.29206807        3       0.00000000       0.00754651       0.00923572      -0.06649367
Pt       8.42164142       3.24149141      22.29206809        3       0.00000000      -0.00174463       0.07545593      -0.15044169
Pt       4.21082097       5.67261006      22.29206778        3       0.00000000      -0.00270156       0.00194867      -0.00285504
Pt       7.01803483       5.67260987      22.29206781        3       0.00000000       0.06642562      -0.03638993      -0.15064050
Pt       9.82524821       5.67261060      22.29206810        3       0.00000000      -0.06466362      -0.03937039      -0.15057227
Pt      -0.00000049       1.62074561      24.58417352        2       0.00000000      -0.00282396      -0.24464665       0.25057316
Pt       2.80721437       1.62074550      24.58417378        2       0.00000000      -0.01015205      -0.00559142      -0.01562431
Pt       5.61442785       1.62074544      24.58417371        2       0.00000000       0.00994829      -0.00583950      -0.01565513
Pt       1.40360647       4.05186444      24.58417385        2       0.00000000      -0.01158782       0.00337101      -0.04873822
Pt       4.21082100       4.05186404      24.58417381        2       0.00000000       0.00010219       0.01213706      -0.01405014
Pt       7.01803473       4.05186412      24.58417379        2       0.00000000       0.00857369       0.00893665      -0.04884005
Pt       2.80721284       6.48298340      24.58417356        2       0.00000000       0.21172951       0.11894812       0.25116348
Pt       5.61442787       6.48298334      24.58417388        2       0.00000000      -0.20893884       0.12391511       0.25101393
Pt       8.42164233       6.48298347      24.58417367        2       0.00000000       0.00312711      -0.01155668      -0.04798999
Pt      -0.00000730      -0.00208824      27.14289827        1       0.00000000      -0.00002812       0.00400675       0.00570085
Pt       2.80627619      -0.00415042      26.89817310        1       0.00000000       0.00636945      -0.00033037      -0.00235158
Pt       5.61580479      -0.00199636      26.89830310        1       0.00000000      -0.00711695      -0.00239511      -0.00362713
Pt       1.40031585       2.43104675      26.89794014        1       0.00000000       0.00435213       0.00559632      -0.00284808
Pt       4.21082915       2.43130557      26.90565081        1       0.00000000      -0.00006249      -0.00014155      -0.00070475
Pt       7.02293782       2.43252842      26.89781986        1       0.00000000      -0.00567872       0.00384137      -0.00173738
Pt       2.80305187       4.86530172      26.89833094        1       0.00000000      -0.00021650      -0.00701196      -0.00305618
Pt       5.61652224       4.86464136      26.89838036        1       0.00000000       0.00237761      -0.00670990      -0.00418769
Pt       8.42164948       4.86235508      26.91250865        1       0.00000000      -0.00000639      -0.00004775       0.00136628
C       -0.00000410      -0.00079108      29.22671126        0       1.00000000       0.00009903       0.00227623      -0.02304595
H       -0.00043881      -1.04535213      29.57113739        0       0.00000000      -0.00050029       0.00093407      -0.00077644
H       -0.90543717       0.52365885      29.56523720        0       0.00000000      -0.00031970       0.00060987       0.01093366
H        0.90590096       0.52283765      29.56524323        0       0.00000000       0.00073802       0.00009618       0.01091040
