40
Lattice="8.421641763931781 0.0 0.0 4.2108208819658905 7.293355709136913 0.0 0.0 0.0 46.87624170604845" Properties=species:S:1:pos:R:3:tags:I:1:initial_magmoms:R:1:forces:R:3 charge=0 spin=0 energy=-206.89795042819702 free_energy=-206.89795042819702 stress="0.010357290506362915 -5.0654971772701174e-08 -1.3469819037936759e-08 -5.0654971772701174e-08 0.010355468839406967 -2.8718036446662154e-06 -1.3469819037936759e-08 -2.8718036446662154e-06 -0.0003520066093187779" pbc="T T T"
Pt       0.00000003       0.00000007      19.95723551        4       0.00000000       0.00000856       0.00003042       0.01322314
Pt       2.80721399      -0.00000008      19.95723555        4       0.00000000      -0.00193226      -0.00484241       0.01727463
Pt       5.61442774      -0.00000012      19.95723554        4       0.00000000       0.00198450      -0.00339380       0.01937471
Pt       1.40360717       2.43111834      19.95723540        4       0.00000000      -0.00387228      -0.00004927       0.01924963
Pt       4.21082076       2.43111843      19.95723549        4       0.00000000       0.00002792      -0.00001474       0.02528172
Pt       7.01803486       2.43111843      19.95723547        4       0.00000000       0.00510179       0.00069699       0.01720061
Pt       2.80721421       4.86223732      19.95723529        4       0.00000000      -0.00317406       0.00404759       0.01732156
Pt       5.61442794       4.86223731      19.95723540        4       0.00000000       0.00190020       0.00331668       0.01930302
Pt       8.42164146       4.86223722      19.95723551        4       0.00000000      -0.00000277      -0.00017587      -0.03670518
Pt       1.40360717       0.81037261      22.29206807        3       0.00000000      -0.00034997      -0.00342670      -0.00273424
Pt       4.21082122       0.81037254      22.29206808        3       0.00000000       0.00445710      -0.01138499      -0.06719071
Pt       7.01803484       0.81037259      22.29206812        3       0.00000000       0.00308737       0.00148271      -0.00275598
Pt       2.80721436       3.24149112      22.29206782        3       0.00000000      -0.01208218       0.00175037      -0.06724644
Pt       5.61442774       3.24149129      22.29206807        3       0.00000000       0.00758138       0.00947611      -0.06725758
Pt       8.42164142       3.24149141      22.29206809        3       0.00000000      -0.00184422       0.07541911      -0.15036529
Pt       4.21082097       5.67261006      22.29206778        3       0.00000000      -0.00275792       0.00180089      -0.00234880
Pt       7.01803483       5.67260987      22.29206781        3       0.00000000       0.06681807      -0.03662984      -0.15041332
Pt       9.82524821       5.67261060      22.29206810        3       0.00000000      -0.06495211      -0.03976336      -0.15032968
Pt      -0.00000049       1.62074561      24.58417352        2       0.00000000      -0.00281091      -0.24462995       0.25446820
Pt       2.80721437       1.62074550      24.58417378        2       0.00000000      -0.00858730      -0.00464588      -0.02165682
Pt       5.61442785       1.62074544      24.58417371        2       0.00000000       0.00835954      -0.00490018      -0.02165111
Pt       1.40360647       4.05186444      24.58417385        2       0.00000000      -0.01192140       0.00513372      -0.04682248
Pt       4.21082100       4.05186404      24.58417381        2       0.00000000       0.00013640       0.00953312      -0.02139184
Pt       7.01803473       4.05186412      24.58417379        2       0.00000000       0.01004897       0.00873445      -0.04697860
Pt       2.80721284       6.48298340      24.58417356        2       0.00000000       0.21195100       0.11999830       0.25290474
Pt       5.61442787       6.48298334      24.58417388        2       0.00000000      -0.20913368       0.12495063       0.25271085
Pt       8.42164233       6.48298347      24.58417367        2       0.00000000       0.00195822      -0.01235655      -0.04577307
Pt      -0.00002555      -0.00371667      27.14350246        1       0.00000000       0.00008708       0.01766374      -0.01282037
Pt       2.80654274      -0.00282928      26.89802654        1       0.00000000       0.00422830      -0.00422919      -0.00175776
Pt       5.61504938      -0.00110723      26.89773658        1       0.00000000      -0.00424417      -0.00496932      -0.00111051
Pt       1.40189624       2.43192001      26.89729586        1       0.00000000      -0.00378025       0.00206082      -0.00062644
Pt       4.21080041       2.43145205      26.90537390        1       0.00000000       0.00014445      -0.00092995       0.00430402
Pt       7.02129052       2.43277081      26.89753126        1       0.00000000       0.00288037       0.00154103      -0.00129111
Pt       2.80446787       4.86509472      26.89788524        1       0.00000000      -0.00710851      -0.00567416      -0.00112964
Pt       5.61572508       4.86422761      26.89752562        1       0.00000000       0.00771899      -0.00537321      -0.00051491
Pt       8.42164225       4.86257475      26.91409804        1       0.00000000       0.00009893      -0.00093444      -0.00599125
C        0.00001584      -0.00121983      29.22528888        0       1.00000000      -0.00052607       0.00638063       0.01188076
H        0.90480263      -0.52317072      29.56917071        0       0.00000000       0.00641190      -0.00692532       0.00040748
H       -0.90538669      -0.52210837      29.56918465        0       0.00000000      -0.00641960      -0.00674315       0.00021747
H        0.00055531       1.04430776      29.56635771        0       0.00000000       0.00050849       0.00797498       0.00174035
