40
Lattice="8.421641763931781 0.0 0.0 4.2108208819658905 7.293355709136913 0.0 0.0 0.0 46.87624170604845" Properties=species:S:1:pos:R:3:tags:I:1:initial_magmoms:R:1:forces:R:3 charge=0 spin=0 energy=-206.89809347934448 free_energy=-206.89809347934448 stress="0.010355999693274498 -5.477764020156428e-08 1.8496836062809052e-08 -5.477764020156428e-08 0.01035489421337843 2.759725930445711e-06 1.8496836062809052e-08 2.759725930445711e-06 -0.0003516611468512565" pbc="T T T"
Pt       0.00000003       0.00000007      19.95723551        4       0.00000000      -0.00000620      -0.00002907       0.01328497
Pt       2.80721399      -0.00000008      19.95723555        4       0.00000000      -0.00192421      -0.00497112       0.01727510
Pt       5.61442774      -0.00000012      19.95723554        4       0.00000000       0.00194693      -0.00340395       0.01934306
Pt       1.40360717       2.43111834      19.95723540        4       0.00000000      -0.00401409       0.00006503       0.01935355
Pt       4.21082076       2.43111843      19.95723549        4       0.00000000      -0.00002457       0.00000731       0.02543000
Pt       7.01803486       2.43111843      19.95723547        4       0.00000000       0.00536822       0.00083530       0.01733668
Pt       2.80721421       4.86223732      19.95723529        4       0.00000000      -0.00342807       0.00423392       0.01740640
Pt       5.61442794       4.86223731      19.95723540        4       0.00000000       0.00203559       0.00347215       0.01940251
Pt       8.42164146       4.86223722      19.95723551        4       0.00000000       0.00000914       0.00017821      -0.03683399
Pt       1.40360717       0.81037261      22.29206807        3       0.00000000      -0.00026164      -0.00333297      -0.00310862
Pt       4.21082122       0.81037254      22.29206808        3       0.00000000       0.00425284      -0.01101630      -0.06698248
Pt       7.01803484       0.81037259      22.29206812        3       0.00000000       0.00300601       0.00143647      -0.00315203
Pt       2.80721436       3.24149112      22.29206782        3       0.00000000      -0.01170573       0.00189697      -0.06655972
Pt       5.61442774       3.24149129      22.29206807        3       0.00000000       0.00749421       0.00935088      -0.06662212
Pt       8.42164142       3.24149141      22.29206809        3       0.00000000      -0.00178727       0.07622457      -0.15047076
Pt       4.21082097       5.67261006      22.29206778        3       0.00000000      -0.00272041       0.00199021      -0.00317550
Pt       7.01803483       5.67260987      22.29206781        3       0.00000000       0.06625450      -0.03609730      -0.15047906
Pt       9.82524821       5.67261060      22.29206810        3       0.00000000      -0.06449499      -0.03917670      -0.15054956
Pt      -0.00000049       1.62074561      24.58417352        2       0.00000000      -0.00312582      -0.24350242       0.25029150
Pt       2.80721437       1.62074550      24.58417378        2       0.00000000      -0.01090374      -0.00694271      -0.01875578
Pt       5.61442785       1.62074544      24.58417371        2       0.00000000       0.01085225      -0.00669076      -0.01872896
Pt       1.40360647       4.05186444      24.58417385        2       0.00000000      -0.01409353       0.00416462      -0.04719281
Pt       4.21082100       4.05186404      24.58417381        2       0.00000000      -0.00007351       0.01281932      -0.01924259
Pt       7.01803473       4.05186412      24.58417379        2       0.00000000       0.01151984       0.00891724      -0.04737381
Pt       2.80721284       6.48298340      24.58417356        2       0.00000000       0.21316274       0.11898682       0.25235152
Pt       5.61442787       6.48298334      24.58417388        2       0.00000000      -0.20996539       0.12462294       0.25217408
Pt       8.42164233       6.48298347      24.58417367        2       0.00000000       0.00262442      -0.01428746      -0.04740649
Pt       0.00002761       0.00374355      27.14358377        1       0.00000000      -0.00011531      -0.01778132      -0.01330564
Pt       2.80667928      -0.00455801      26.89793840        1       0.00000000       0.00397486      -0.00297978      -0.00142741
Pt       5.61533569      -0.00287320      26.89751700        1       0.00000000      -0.00436275      -0.00376614      -0.00077843
Pt       1.40121113       2.43095508      26.89759513        1       0.00000000       0.00002508       0.00955522      -0.00070776
Pt       4.21081910       2.43077592      26.90435679        1       0.00000000      -0.00006883       0.00080740       0.00515590
Pt       7.02168270       2.43211246      26.89800856        1       0.00000000      -0.00039156       0.00883233      -0.00153301
Pt       2.80411373       4.86412937      26.89774138        1       0.00000000      -0.00287314       0.00255354      -0.00178731
Pt       5.61586711       4.86360372      26.89718958        1       0.00000000       0.00393515       0.00257135      -0.00075513
Pt       8.42167242       4.86188683      26.91484769        1       0.00000000      -0.00014244       0.00110348      -0.00657977
C       -0.00001487       0.00123084      29.22518528        0       1.00000000       0.00050033      -0.00647708       0.01242690
H       -0.90466194       0.52341850      29.56907936        0       0.00000000      -0.00680012       0.00737944       0.00041571
H        0.90553521       0.52185794      29.56909515        0       0.00000000       0.00696820       0.00692490       0.00022065
H       -0.00084758      -1.04429261      29.56628024        0       0.00000000      -0.00064694      -0.00847466       0.00164005
