40
Lattice="8.421641763931781 0.0 0.0 4.2108208819658905 7.293355709136913 0.0 0.0 0.0 46.87624170604845" Properties=species:S:1:pos:R:3:tags:I:1:initial_magmoms:R:1:forces:R:3 charge=0 spin=0 energy=-206.89720084018433 free_energy=-206.89720084018433 stress="0.010328991338610649 3.294513362561702e-06 5.975326757834409e-07 3.294513362561702e-06 0.010298688896000385 -8.140760655805934e-06 5.975326757834409e-07 -8.140760655805934e-06 -0.00041137661901302636" pbc="T T T"
Pt       0.00000003       0.00000007      19.95723551        4       0.00000000      -0.00367959       0.00441742       0.01728678
Pt       2.80721399      -0.00000008      19.95723555        4       0.00000000       0.00206639       0.00368943       0.01933262
Pt       5.61442774      -0.00000012      19.95723554        4       0.00000000      -0.00001136      -0.00025247      -0.03716909
Pt       1.40360717       2.43111834      19.95723540        4       0.00000000      -0.00023862      -0.00011525       0.01299986
Pt       4.21082076       2.43111843      19.95723549        4       0.00000000      -0.00218066      -0.00458182       0.01728979
Pt       7.01803486       2.43111843      19.95723547        4       0.00000000       0.00179185      -0.00316791       0.01948784
Pt       2.80721421       4.86223732      19.95723529        4       0.00000000      -0.00423061      -0.00000554       0.01911787
Pt       5.61442794       4.86223731      19.95723540        4       0.00000000      -0.00007548       0.00011752       0.02534278
Pt       8.42164146       4.86223722      19.95723551        4       0.00000000       0.00512435       0.00082699       0.01726026
Pt       1.40360717       0.81037261      22.29206807        3       0.00000000      -0.00305102       0.00200730      -0.00365676
Pt       4.21082122       0.81037254      22.29206808        3       0.00000000       0.06651911      -0.03598529      -0.15097453
Pt       7.01803484       0.81037259      22.29206812        3       0.00000000      -0.06567380      -0.03889976      -0.15001269
Pt       2.80721436       3.24149112      22.29206782        3       0.00000000      -0.00120152      -0.00336008      -0.00255378
Pt       5.61442774       3.24149129      22.29206807        3       0.00000000       0.00344749      -0.00975059      -0.06527853
Pt       8.42164142       3.24149141      22.29206809        3       0.00000000       0.00265281       0.00145103      -0.00270112
Pt       4.21082097       5.67261006      22.29206778        3       0.00000000      -0.01238676       0.00279151      -0.06730883
Pt       7.01803483       5.67260987      22.29206781        3       0.00000000       0.00699656       0.01039128      -0.06664781
Pt       9.82524821       5.67261060      22.29206810        3       0.00000000      -0.00243720       0.07537251      -0.14881028
Pt      -0.00000049       1.62074561      24.58417352        2       0.00000000       0.20804447       0.12329326       0.23695885
Pt       2.80721437       1.62074550      24.58417378        2       0.00000000      -0.20485936       0.12944269       0.23636162
Pt       5.61442785       1.62074544      24.58417371        2       0.00000000       0.00589749      -0.01585342      -0.05286745
Pt       1.40360647       4.05186444      24.58417385        2       0.00000000      -0.00091810      -0.24493042       0.23799455
Pt       4.21082100       4.05186404      24.58417381        2       0.00000000      -0.00314703      -0.01127262      -0.01939492
Pt       7.01803473       4.05186412      24.58417379        2       0.00000000       0.00865687      -0.01272403      -0.01798337
Pt       2.80721284       6.48298340      24.58417356        2       0.00000000      -0.01300965      -0.00020206      -0.05797603
Pt       5.61442787       6.48298334      24.58417388        2       0.00000000       0.00225707       0.00743786      -0.03350902
Pt       8.42164233       6.48298347      24.58417367        2       0.00000000       0.01466436       0.00204261      -0.06010781
Pt      -0.00122876       0.00460585      26.89239572        1       0.00000000      -0.01311078      -0.02784067       0.02120122
Pt       2.81357222       0.00402872      26.89210338        1       0.00000000       0.00162002      -0.02794737       0.02201804
Pt       5.61587430      -0.00799283      26.91197757        1       0.00000000       0.00512150       0.01056112       0.00427410
Pt       1.40487414       2.42189447      27.13611192        1       0.00000000       0.00133262       0.03553047       0.02409297
Pt       4.21493666       2.42227590      26.89856839        1       0.00000000       0.00381475       0.01565840      -0.00263142
Pt       7.01699900       2.42407433      26.90000172        1       0.00000000      -0.00053428       0.01128733      -0.00855939
Pt       2.80934725       4.85635542      26.89468735        1       0.00000000      -0.00577020       0.01570635       0.00591705
Pt       5.61808012       4.86694970      26.90442921        1       0.00000000      -0.00473585      -0.02947079       0.00349393
Pt       8.42718448       4.85639142      26.89570631        1       0.00000000      -0.00092719       0.01726566       0.00357541
C        1.40432064       2.43273361      29.21941512        0       1.00000000       0.00258090       0.01754425       0.01792141
H        1.40664464       1.39128548      29.57047105        0       0.00000000      -0.00260879      -0.04105498      -0.00744741
H        0.49609115       2.95307457      29.55985354        0       0.00000000       0.03481299       0.00879882      -0.00504078
H        2.31152633       2.95564734      29.55832084        0       0.00000000      -0.03261353       0.01178133      -0.00129595
