40
Lattice="8.421641763931781 0.0 0.0 4.2108208819658905 7.293355709136913 0.0 0.0 0.0 46.87624170604845" Properties=species:S:1:pos:R:3:tags:I:1:initial_magmoms:R:1:forces:R:3 charge=0 spin=0 energy=-206.89486433810913 free_energy=-206.89486433810913 stress="0.010369706898927689 -1.9207564605494554e-07 5.12545375386253e-06 -1.9207564605494554e-07 0.010313061065971851 -3.1806262086320203e-06 5.12545375386253e-06 -3.1806262086320203e-06 -0.0003382278955541551" pbc="T T T"
Pt       0.00000003       0.00000007      19.95723551        4       0.00000000      -0.00013346      -0.00069859       0.01318357
Pt       2.80721399      -0.00000008      19.95723555        4       0.00000000      -0.00136806      -0.00603592       0.01718630
Pt       5.61442774      -0.00000012      19.95723554        4       0.00000000       0.00198317      -0.00451666       0.01937306
Pt       1.40360717       2.43111834      19.95723540        4       0.00000000      -0.00389811      -0.00080661       0.01943792
Pt       4.21082076       2.43111843      19.95723549        4       0.00000000      -0.00015503      -0.00096806       0.02532325
Pt       7.01803486       2.43111843      19.95723547        4       0.00000000       0.00542029      -0.00030538       0.01712020
Pt       2.80721421       4.86223732      19.95723529        4       0.00000000      -0.00294055       0.00308168       0.01747858
Pt       5.61442794       4.86223731      19.95723540        4       0.00000000       0.00222710       0.00229901       0.01939821
Pt       8.42164146       4.86223722      19.95723551        4       0.00000000      -0.00006577      -0.00036266      -0.03692990
Pt       1.40360717       0.81037261      22.29206807        3       0.00000000      -0.00116393      -0.00692744      -0.00499843
Pt       4.21082122       0.81037254      22.29206808        3       0.00000000       0.00388270      -0.01472108      -0.06535904
Pt       7.01803484       0.81037259      22.29206812        3       0.00000000       0.00411738      -0.00179533      -0.00274722
Pt       2.80721436       3.24149112      22.29206782        3       0.00000000      -0.01230800      -0.00127416      -0.06652901
Pt       5.61442774       3.24149129      22.29206807        3       0.00000000       0.00756245       0.00532034      -0.06731195
Pt       8.42164142       3.24149141      22.29206809        3       0.00000000      -0.00180083       0.07224648      -0.15073790
Pt       4.21082097       5.67261006      22.29206778        3       0.00000000      -0.00298285      -0.00194182      -0.00531865
Pt       7.01803483       5.67260987      22.29206781        3       0.00000000       0.06622966      -0.03979616      -0.14829192
Pt       9.82524821       5.67261060      22.29206810        3       0.00000000      -0.06404392      -0.04259890      -0.14954932
Pt      -0.00000049       1.62074561      24.58417352        2       0.00000000      -0.00081429      -0.23461664       0.26696223
Pt       2.80721437       1.62074550      24.58417378        2       0.00000000      -0.00804704       0.00952285      -0.00832624
Pt       5.61442785       1.62074544      24.58417371        2       0.00000000       0.00640236       0.00667553      -0.02915535
Pt       1.40360647       4.05186444      24.58417385        2       0.00000000      -0.01314256       0.01296091      -0.05240729
Pt       4.21082100       4.05186404      24.58417381        2       0.00000000       0.00013687       0.02150166      -0.00850193
Pt       7.01803473       4.05186412      24.58417379        2       0.00000000       0.01290431       0.02604673      -0.04872952
Pt       2.80721284       6.48298340      24.58417356        2       0.00000000       0.20701072       0.13235053       0.24492913
Pt       5.61442787       6.48298334      24.58417388        2       0.00000000      -0.20168895       0.12979953       0.24777968
Pt       8.42164233       6.48298347      24.58417367        2       0.00000000      -0.00177353      -0.00262466      -0.04958717
Pt       0.00270475       0.00102802      27.13827663        1       0.00000000      -0.00919134       0.03988624       0.01687756
Pt       2.80475339       0.01104377      26.90008383        1       0.00000000       0.01438346      -0.00621196      -0.01332121
Pt       5.61050737       0.01689788      26.89611131        1       0.00000000       0.01917505      -0.02203601       0.01536463
Pt       1.40256612       2.44771841      26.89838291        1       0.00000000      -0.01024665      -0.02065811      -0.00596199
Pt       4.21531718       2.44657564      26.90896187        1       0.00000000      -0.02756352      -0.00492174      -0.00804444
Pt       7.01822310       2.44787223      26.89628408        1       0.00000000       0.02960208      -0.01256528      -0.00179253
Pt       2.79966974       4.88222366      26.89779494        1       0.00000000       0.01273304      -0.03166143      -0.00547747
Pt       5.61967937       4.87512806      26.89988928        1       0.00000000      -0.00508572       0.00209337      -0.00432940
Pt       8.42649137       4.87953384      26.91493576        1       0.00000000      -0.02059201      -0.02138201      -0.00460690
C        0.00758149       0.00582714      29.22260737        0       1.00000000      -0.02417793       0.02209749      -0.02968804
H       -0.51786720       0.91226679      29.55365865        0       0.00000000      -0.00770557       0.03642210       0.02805717
H        1.05254178       0.01350918      29.56221134        0       0.00000000       0.02900741      -0.00464909       0.01459820
H       -0.51399052      -0.89381070      29.57826843        0       0.00000000      -0.00188864      -0.03822903      -0.01536692
