40
Lattice="8.421641763931781 0.0 0.0 4.2108208819658905 7.293355709136913 0.0 0.0 0.0 46.87624170604845" Properties=species:S:1:pos:R:3:tags:I:1:initial_magmoms:R:1:forces:R:3 charge=0 spin=0 energy=-206.89734579868042 free_energy=-206.89734579868042 stress="0.010351893492043018 3.158722279295034e-07 -3.4453972830306157e-07 3.158722279295034e-07 0.010366163216531277 7.859039214963559e-06 -3.4453972830306157e-07 7.859039214963559e-06 -0.00037492922274395823" pbc="T T T"
Pt       0.00000003       0.00000007      19.95723551        4       0.00000000      -0.00001963       0.00015151       0.01350982
Pt       2.80721399      -0.00000008      19.95723555        4       0.00000000      -0.00180628      -0.00460492       0.01711081
Pt       5.61442774      -0.00000012      19.95723554        4       0.00000000       0.00187300      -0.00328704       0.01924619
Pt       1.40360717       2.43111834      19.95723540        4       0.00000000      -0.00404807       0.00053980       0.01905612
Pt       4.21082076       2.43111843      19.95723549        4       0.00000000      -0.00002373       0.00014263       0.02530693
Pt       7.01803486       2.43111843      19.95723547        4       0.00000000       0.00514969       0.00132013       0.01696550
Pt       2.80721421       4.86223732      19.95723529        4       0.00000000      -0.00338289       0.00411427       0.01712898
Pt       5.61442794       4.86223731      19.95723540        4       0.00000000       0.00208336       0.00351044       0.01914308
Pt       8.42164146       4.86223722      19.95723551        4       0.00000000      -0.00005256      -0.00036971      -0.03646214
Pt       1.40360717       0.81037261      22.29206807        3       0.00000000      -0.00051621      -0.00265805      -0.00477808
Pt       4.21082122       0.81037254      22.29206808        3       0.00000000       0.00434873      -0.01032787      -0.06746638
Pt       7.01803484       0.81037259      22.29206812        3       0.00000000       0.00331946       0.00224098      -0.00478606
Pt       2.80721436       3.24149112      22.29206782        3       0.00000000      -0.01163311       0.00243932      -0.06756043
Pt       5.61442774       3.24149129      22.29206807        3       0.00000000       0.00738861       0.01007057      -0.06762712
Pt       8.42164142       3.24149141      22.29206809        3       0.00000000      -0.00189601       0.07567713      -0.14750390
Pt       4.21082097       5.67261006      22.29206778        3       0.00000000      -0.00279282       0.00323709      -0.00309328
Pt       7.01803483       5.67260987      22.29206781        3       0.00000000       0.06650639      -0.03559974      -0.14910498
Pt       9.82524821       5.67261060      22.29206810        3       0.00000000      -0.06461912      -0.03864155      -0.14903031
Pt      -0.00000049       1.62074561      24.58417352        2       0.00000000      -0.00294905      -0.24784711       0.24227554
Pt       2.80721437       1.62074550      24.58417378        2       0.00000000      -0.00257775      -0.00429820      -0.02426313
Pt       5.61442785       1.62074544      24.58417371        2       0.00000000       0.00204867      -0.00480297      -0.02441263
Pt       1.40360647       4.05186444      24.58417385        2       0.00000000      -0.02050661       0.00770838      -0.05505330
Pt       4.21082100       4.05186404      24.58417381        2       0.00000000       0.00021550       0.00414928      -0.01837968
Pt       7.01803473       4.05186412      24.58417379        2       0.00000000       0.01895713       0.01101074      -0.05521353
Pt       2.80721284       6.48298340      24.58417356        2       0.00000000       0.21575679       0.11511375       0.25760624
Pt       5.61442787       6.48298334      24.58417388        2       0.00000000      -0.21266581       0.12079220       0.25741932
Pt       8.42164233       6.48298347      24.58417367        2       0.00000000       0.00179166      -0.02447989      -0.05554044
Pt       0.00004138      -0.00299480      27.14196579        1       0.00000000       0.00008636       0.00190178      -0.01754324
Pt       2.81031358      -0.00592258      26.89434305        1       0.00000000      -0.02003077      -0.00618585       0.01142995
Pt       5.61132540      -0.00466172      26.89410459        1       0.00000000       0.02001652      -0.00571840       0.01180425
Pt       1.40221100       2.43057638      26.89320928        1       0.00000000      -0.00542597      -0.00850552       0.01594015
Pt       4.21082467       2.42861235      26.91273293        1       0.00000000      -0.00009931      -0.00014269      -0.01622481
Pt       7.02047903       2.43106196      26.89351930        1       0.00000000       0.00602229      -0.00806203       0.01533849
Pt       2.80095449       4.85610099      26.89569788        1       0.00000000       0.01741019       0.02813026       0.00818511
Pt       5.61968496       4.85539428      26.89526989        1       0.00000000      -0.01773925       0.02798253       0.00894476
Pt       8.42169966       4.85980034      26.92171724        1       0.00000000      -0.00017607      -0.00032633      -0.02344033
C        0.00005511       0.01024157      29.22413334        0       1.00000000      -0.00025642      -0.00505222       0.01486429
H        0.90564255      -0.51270779      29.56693777        0       0.00000000      -0.01603307       0.00897241       0.00296367
H       -0.90640190      -0.51122504      29.56686973        0       0.00000000       0.01555557       0.00858718       0.00304967
H        0.00076680       1.05730516      29.56381260        0       0.00000000       0.00072055      -0.02688239      -0.00980502
