40
Lattice="8.421641763931781 0.0 0.0 4.2108208819658905 7.293355709136913 0.0 0.0 0.0 46.87624170604845" Properties=species:S:1:pos:R:3:tags:I:1:initial_magmoms:R:1:forces:R:3 charge=0 spin=0 energy=-206.89611365146362 free_energy=-206.89611365146362 stress="0.010364208370447159 1.2373877211757645e-07 7.128914347731552e-09 1.2373877211757645e-07 0.010364347137510777 -4.1823076912805845e-07 7.128914347731552e-09 -4.1823076912805845e-07 -0.0003273864567745477" pbc="T T T"
Pt       0.00000003       0.00000007      19.95723551        4       0.00000000       0.00000152       0.00000215       0.01359241
Pt       2.80721399      -0.00000008      19.95723555        4       0.00000000      -0.00179098      -0.00489158       0.01722718
Pt       5.61442774      -0.00000012      19.95723554        4       0.00000000       0.00184450      -0.00364316       0.01908597
Pt       1.40360717       2.43111834      19.95723540        4       0.00000000      -0.00409095       0.00024174       0.01902809
Pt       4.21082076       2.43111843      19.95723549        4       0.00000000       0.00000230      -0.00000041       0.02544124
Pt       7.01803486       2.43111843      19.95723547        4       0.00000000       0.00514614       0.00088487       0.01721899
Pt       2.80721421       4.86223732      19.95723529        4       0.00000000      -0.00335942       0.00401214       0.01731155
Pt       5.61442794       4.86223731      19.95723540        4       0.00000000       0.00224405       0.00340677       0.01907350
Pt       8.42164146       4.86223722      19.95723551        4       0.00000000       0.00000323      -0.00000705      -0.03645283
Pt       1.40360717       0.81037261      22.29206807        3       0.00000000      -0.00058780      -0.00292957      -0.00398396
Pt       4.21082122       0.81037254      22.29206808        3       0.00000000       0.00450381      -0.01092759      -0.06746390
Pt       7.01803484       0.81037259      22.29206812        3       0.00000000       0.00280589       0.00101366      -0.00399455
Pt       2.80721436       3.24149112      22.29206782        3       0.00000000      -0.01173824       0.00155209      -0.06724492
Pt       5.61442774       3.24149129      22.29206807        3       0.00000000       0.00723097       0.00940559      -0.06726414
Pt       8.42164142       3.24149141      22.29206809        3       0.00000000      -0.00189987       0.07547431      -0.14932407
Pt       4.21082097       5.67261006      22.29206778        3       0.00000000      -0.00222256       0.00193395      -0.00376893
Pt       7.01803483       5.67260987      22.29206781        3       0.00000000       0.06630638      -0.03611273      -0.14934930
Pt       9.82524821       5.67261060      22.29206810        3       0.00000000      -0.06440196      -0.03937395      -0.14934129
Pt      -0.00000049       1.62074561      24.58417352        2       0.00000000      -0.00533875      -0.24700581       0.25662658
Pt       2.80721437       1.62074550      24.58417378        2       0.00000000      -0.00422380      -0.00634976      -0.01665369
Pt       5.61442785       1.62074544      24.58417371        2       0.00000000       0.00745648      -0.00052122      -0.01666464
Pt       1.40360647       4.05186444      24.58417385        2       0.00000000      -0.01651763       0.01168344      -0.05049276
Pt       4.21082100       4.05186404      24.58417381        2       0.00000000      -0.00328411       0.00674063      -0.01663079
Pt       7.01803473       4.05186412      24.58417379        2       0.00000000       0.01856885       0.00837068      -0.05059386
Pt       2.80721284       6.48298340      24.58417356        2       0.00000000       0.21633291       0.11879182       0.25674102
Pt       5.61442787       6.48298334      24.58417388        2       0.00000000      -0.21094547       0.12811519       0.25664279
Pt       8.42164233       6.48298347      24.58417367        2       0.00000000      -0.00203577      -0.02004343      -0.05044097
Pt       0.00000039      -0.00013505      27.14583912        1       0.00000000       0.00000397       0.00006528      -0.01022892
Pt       2.80842572      -0.00360234      26.89736581        1       0.00000000      -0.01634988      -0.00214806       0.00531398
Pt       5.61097815      -0.00253769      26.89420369        1       0.00000000       0.01543935      -0.00126873       0.00725834
Pt       1.40312988       2.43532973      26.89416303        1       0.00000000      -0.00873591      -0.01281226       0.00723235
Pt       4.21082079       2.43110334      26.91232520        1       0.00000000      -0.00001567      -0.00004446      -0.01693719
Pt       7.02054620       2.43392652      26.89729367        1       0.00000000       0.00995914      -0.01321093       0.00499952
Pt       2.80348413       4.86296103      26.89732518        1       0.00000000       0.00639749       0.01525327       0.00504886
Pt       5.61836435       4.86049818      26.89414572        1       0.00000000      -0.00671701       0.01399397       0.00733014
Pt       8.42164426       4.86222202      26.92030236        1       0.00000000       0.00001336      -0.00003221      -0.02096029
C       -0.00000060       0.00001795      29.22939321        0       1.00000000      -0.00002296       0.00004496      -0.02151330
H        0.52234534       0.90535278      29.57072763        0       0.00000000       0.00567225       0.00993876       0.00483970
H        0.52274148      -0.90479386      29.57151535        0       0.00000000       0.00580787      -0.00993717       0.00458256
H       -1.04509063      -0.00024231      29.57111998        0       0.00000000      -0.01146174       0.00033476       0.00470955
