40
Lattice="8.421641763931781 0.0 0.0 4.2108208819658905 7.293355709136913 0.0 0.0 0.0 46.87624170604845" Properties=species:S:1:pos:R:3:tags:I:1:initial_magmoms:R:1:forces:R:3 charge=0 spin=0 energy=-206.89785887546265 free_energy=-206.89785887546265 stress="0.01036345586180687 -5.882252551714373e-08 6.134696306503429e-09 -5.882252551714373e-08 0.010363370180130005 -4.020049004793691e-07 6.134696306503429e-09 -4.020049004793691e-07 -0.0003264721599407494" pbc="T T T"
Pt       0.00000003       0.00000007      19.95723551        4       0.00000000       0.00000198      -0.00000174       0.01361474
Pt       2.80721399      -0.00000008      19.95723555        4       0.00000000      -0.00177821      -0.00512634       0.01715023
Pt       5.61442774      -0.00000012      19.95723554        4       0.00000000       0.00188046      -0.00359601       0.01926880
Pt       1.40360717       2.43111834      19.95723540        4       0.00000000      -0.00406483       0.00017697       0.01921574
Pt       4.21082076       2.43111843      19.95723549        4       0.00000000       0.00000225      -0.00000586       0.02552436
Pt       7.01803486       2.43111843      19.95723547        4       0.00000000       0.00533977       0.00100174       0.01714656
Pt       2.80721421       4.86223732      19.95723529        4       0.00000000      -0.00356413       0.00411255       0.01723617
Pt       5.61442794       4.86223731      19.95723540        4       0.00000000       0.00218365       0.00341063       0.01926023
Pt       8.42164146       4.86223722      19.95723551        4       0.00000000       0.00000365       0.00000681      -0.03654736
Pt       1.40360717       0.81037261      22.29206807        3       0.00000000      -0.00044049      -0.00348003      -0.00427009
Pt       4.21082122       0.81037254      22.29206808        3       0.00000000       0.00419849      -0.01086809      -0.06722714
Pt       7.01803484       0.81037259      22.29206812        3       0.00000000       0.00318979       0.00138099      -0.00428651
Pt       2.80721436       3.24149112      22.29206782        3       0.00000000      -0.01152036       0.00175980      -0.06699808
Pt       5.61442774       3.24149129      22.29206807        3       0.00000000       0.00731671       0.00908693      -0.06701858
Pt       8.42164142       3.24149141      22.29206809        3       0.00000000      -0.00177731       0.07530605      -0.14933966
Pt       4.21082097       5.67261006      22.29206778        3       0.00000000      -0.00275211       0.00204492      -0.00409961
Pt       7.01803483       5.67260987      22.29206781        3       0.00000000       0.06608326      -0.03613811      -0.14932650
Pt       9.82524821       5.67261060      22.29206810        3       0.00000000      -0.06429978      -0.03919264      -0.14932224
Pt      -0.00000049       1.62074561      24.58417352        2       0.00000000      -0.00346969      -0.24677891       0.25533012
Pt       2.80721437       1.62074550      24.58417378        2       0.00000000      -0.00757667      -0.00425518      -0.01549873
Pt       5.61442785       1.62074544      24.58417371        2       0.00000000       0.00739348      -0.00435043      -0.01549601
Pt       1.40360647       4.05186444      24.58417385        2       0.00000000      -0.01987626       0.00831362      -0.05034471
Pt       4.21082100       4.05186404      24.58417381        2       0.00000000       0.00013180       0.00861348      -0.01562045
Pt       7.01803473       4.05186412      24.58417379        2       0.00000000       0.01733076       0.01296003      -0.05045461
Pt       2.80721284       6.48298340      24.58417356        2       0.00000000       0.21523482       0.12046258       0.25517070
Pt       5.61442787       6.48298334      24.58417388        2       0.00000000      -0.21173076       0.12654252       0.25506568
Pt       8.42164233       6.48298347      24.58417367        2       0.00000000       0.00255894      -0.02118634      -0.05028072
Pt      -0.00000074       0.00000268      27.14563570        1       0.00000000      -0.00000481       0.00007867      -0.00992173
Pt       2.80981439      -0.00410871      26.89608109        1       0.00000000      -0.01601499      -0.00097971       0.00619271
Pt       5.61245941      -0.00297006      26.89558436        1       0.00000000       0.01472632      -0.00032657       0.00696465
Pt       1.40197472       2.43438145      26.89556032        1       0.00000000      -0.00778701      -0.01279151       0.00670074
Pt       4.21082104       2.43116966      26.91103872        1       0.00000000      -0.00000825      -0.00004766      -0.01517299
Pt       7.02033505       2.43550405      26.89603639        1       0.00000000       0.00895898      -0.01354428       0.00597702
Pt       2.80232132       4.86215375      26.89600471        1       0.00000000       0.00703300       0.01427399       0.00621786
Pt       5.61802249       4.86213890      26.89548054        1       0.00000000      -0.00692281       0.01287494       0.00671949
Pt       8.42164180       4.86229612      26.92163971        1       0.00000000       0.00002095      -0.00006127      -0.02308338
C        0.00000151      -0.00035656      29.22892599        0       1.00000000       0.00000511       0.00010949      -0.02241970
H        0.00020744      -1.04548581      29.57046665        0       0.00000000      -0.00038235      -0.01236231       0.00454696
H       -0.90517641       0.52196752      29.57063767        0       0.00000000      -0.01062207       0.00660929       0.00471067
H        0.90497838       0.52231920      29.57063380        0       0.00000000       0.01099888       0.00596702       0.00471519
