40
Lattice="8.421641763931781 0.0 0.0 4.2108208819658905 7.293355709136913 0.0 0.0 0.0 46.87624170604845" Properties=species:S:1:pos:R:3:tags:I:1:initial_magmoms:R:1:forces:R:3 charge=0 spin=0 energy=-206.89379431552612 free_energy=-206.89379431552612 stress="0.01016929280012846 -1.6112437606352614e-07 -1.0020433371948911e-08 -1.6112437606352614e-07 0.010169205255806446 1.3883256144708866e-07 -1.0020433371948911e-08 1.3883256144708866e-07 -0.0007338187424466014" pbc="T T T"
Pt       0.00000003       0.00000007      19.95723551        4       0.00000000       0.00000074      -0.00000144       0.01279146
Pt       2.80721399      -0.00000008      19.95723555        4       0.00000000      -0.00181264      -0.00506500       0.01678823
Pt       5.61442774      -0.00000012      19.95723554        4       0.00000000       0.00194488      -0.00337321       0.01922692
Pt       1.40360717       2.43111834      19.95723540        4       0.00000000      -0.00390520       0.00001292       0.01917018
Pt       4.21082076       2.43111843      19.95723549        4       0.00000000       0.00000067      -0.00000561       0.02501702
Pt       7.01803486       2.43111843      19.95723547        4       0.00000000       0.00531171       0.00094483       0.01678373
Pt       2.80721421       4.86223732      19.95723529        4       0.00000000      -0.00350105       0.00411797       0.01687220
Pt       5.61442794       4.86223731      19.95723540        4       0.00000000       0.00196034       0.00336105       0.01921912
Pt       8.42164146       4.86223722      19.95723551        4       0.00000000       0.00000302       0.00000440      -0.03743921
Pt       1.40360717       0.81037261      22.29206807        3       0.00000000      -0.00064548      -0.00434324      -0.00343934
Pt       4.21082122       0.81037254      22.29206808        3       0.00000000       0.00391179      -0.01099828      -0.06657176
Pt       7.01803484       0.81037259      22.29206812        3       0.00000000       0.00404183       0.00164047      -0.00348375
Pt       2.80721436       3.24149112      22.29206782        3       0.00000000      -0.01149534       0.00209670      -0.06635994
Pt       5.61442774       3.24149129      22.29206807        3       0.00000000       0.00758568       0.00892420      -0.06640685
Pt       8.42164142       3.24149141      22.29206809        3       0.00000000      -0.00159573       0.07593402      -0.14750150
Pt       4.21082097       5.67261006      22.29206778        3       0.00000000      -0.00339856       0.00266083      -0.00330892
Pt       7.01803483       5.67260987      22.29206781        3       0.00000000       0.06651682      -0.03661170      -0.14750329
Pt       9.82524821       5.67261060      22.29206810        3       0.00000000      -0.06492491      -0.03933156      -0.14749473
Pt      -0.00000049       1.62074561      24.58417352        2       0.00000000      -0.00079241      -0.24258181       0.20518799
Pt       2.80721437       1.62074550      24.58417378        2       0.00000000      -0.00555291       0.00197503      -0.05535098
Pt       5.61442785       1.62074544      24.58417371        2       0.00000000       0.00084548      -0.00593619      -0.05534986
Pt       1.40360647       4.05186444      24.58417385        2       0.00000000      -0.02682910       0.00566088      -0.09065383
Pt       4.21082100       4.05186404      24.58417381        2       0.00000000       0.00454426       0.00369756      -0.05543930
Pt       7.01803473       4.05186412      24.58417379        2       0.00000000       0.01858182       0.02033748      -0.09090224
Pt       2.80721284       6.48298340      24.58417356        2       0.00000000       0.21029149       0.12063508       0.20558167
Pt       5.61442787       6.48298334      24.58417388        2       0.00000000      -0.20948394       0.12221936       0.20532602
Pt       8.42164233       6.48298347      24.58417367        2       0.00000000       0.00838502      -0.02588612      -0.09050418
Pt      -0.00000094       0.00012401      27.12253407        1       0.00000000      -0.00001332       0.00005748      -0.02432382
Pt       2.81030995      -0.00457117      26.88481107        1       0.00000000      -0.00176045       0.00319316       0.04713178
Pt       5.61556742      -0.00289243      26.88825946        1       0.00000000      -0.00260649       0.00230247       0.04048898
Pt       1.40053277       2.43155988      26.88814346        1       0.00000000       0.00327796       0.00118671       0.04064447
Pt       4.21081235       2.43112767      26.90235388        1       0.00000000       0.00001241       0.00002103       0.01623490
Pt       7.02043428       2.43607011      26.88467967        1       0.00000000      -0.00178206      -0.00307832       0.04738857
Pt       2.80172757       4.86189467      26.88474903        1       0.00000000       0.00357158       0.00004857       0.04713675
Pt       5.61635824       4.86473917      26.88804539        1       0.00000000      -0.00070719      -0.00334618       0.04070683
Pt       8.42165574       4.86224743      26.91384235        1       0.00000000       0.00001631       0.00004890       0.00461135
C        0.00000030       0.00002978      29.20169567        0       1.00000000       0.00002214      -0.00026738      -0.00873293
H       -0.52325609      -0.90653940      29.53755474        0       0.00000000      -0.00159431      -0.00265239       0.03837888
H       -0.52335464       0.90624385      29.53839485        0       0.00000000      -0.00128583       0.00233168       0.03793707
H        1.04661263       0.00002660      29.53797464        0       0.00000000       0.00286136       0.00006552       0.03814218
