40
Lattice="8.421641763931781 0.0 0.0 4.2108208819658905 7.293355709136913 0.0 0.0 0.0 46.87624170604845" Properties=species:S:1:pos:R:3:tags:I:1:initial_magmoms:R:1:forces:R:3 charge=0 spin=0 energy=-206.89712645358765 free_energy=-206.89712645358765 stress="0.010352087207138538 -1.6573041648371145e-05 -8.919056199374609e-06 -1.6573041648371145e-05 0.010365835390985012 1.608468846825417e-05 -8.919056199374609e-06 1.608468846825417e-05 -0.00035777754965238273" pbc="T T T"
Pt       0.00000003       0.00000007      19.95723551        4       0.00000000       0.00231205      -0.00338814       0.01944547
Pt       2.80721399      -0.00000008      19.95723555        4       0.00000000       0.00052687       0.00018787       0.01316678
Pt       5.61442774      -0.00000012      19.95723554        4       0.00000000      -0.00135783      -0.00479401       0.01746117
Pt       1.40360717       2.43111834      19.95723540        4       0.00000000       0.00560043       0.00066275       0.01687563
Pt       4.21082076       2.43111843      19.95723549        4       0.00000000      -0.00363746       0.00019277       0.01926850
Pt       7.01803486       2.43111843      19.95723547        4       0.00000000       0.00057791       0.00013021       0.02528988
Pt       2.80721421       4.86223732      19.95723529        4       0.00000000      -0.00040646      -0.00091692      -0.03676593
Pt       5.61442794       4.86223731      19.95723540        4       0.00000000      -0.00248729       0.00411470       0.01739756
Pt       8.42164146       4.86223722      19.95723551        4       0.00000000       0.00206686       0.00336580       0.01912073
Pt       1.40360717       0.81037261      22.29206807        3       0.00000000       0.00478843       0.00150442      -0.00261259
Pt       4.21082122       0.81037254      22.29206808        3       0.00000000       0.00149700      -0.00276584      -0.00472873
Pt       7.01803484       0.81037259      22.29206812        3       0.00000000       0.00633421      -0.01119943      -0.06622480
Pt       2.80721436       3.24149112      22.29206782        3       0.00000000      -0.00046000       0.07445766      -0.14906283
Pt       5.61442774       3.24149129      22.29206807        3       0.00000000      -0.01037951       0.00202687      -0.06710116
Pt       8.42164142       3.24149141      22.29206809        3       0.00000000       0.00925619       0.00947269      -0.06775828
Pt       4.21082097       5.67261006      22.29206778        3       0.00000000      -0.06491723      -0.04046848      -0.15145664
Pt       7.01803483       5.67260987      22.29206781        3       0.00000000      -0.00099127       0.00262947      -0.00096284
Pt       9.82524821       5.67261060      22.29206810        3       0.00000000       0.06767089      -0.03631641      -0.15009171
Pt      -0.00000049       1.62074561      24.58417352        2       0.00000000      -0.00168951      -0.00422733      -0.02223777
Pt       2.80721437       1.62074550      24.58417378        2       0.00000000      -0.00870900      -0.24117941       0.24251176
Pt       5.61442785       1.62074544      24.58417371        2       0.00000000      -0.01098554      -0.00510199      -0.02652277
Pt       1.40360647       4.05186444      24.58417385        2       0.00000000       0.00350383       0.00939857      -0.05138766
Pt       4.21082100       4.05186404      24.58417381        2       0.00000000      -0.01516522       0.00742755      -0.04831634
Pt       7.01803473       4.05186412      24.58417379        2       0.00000000      -0.00685637       0.00809964      -0.00823743
Pt       2.80721284       6.48298340      24.58417356        2       0.00000000      -0.00233145      -0.01144660      -0.04783553
Pt       5.61442787       6.48298334      24.58417388        2       0.00000000       0.21212134       0.11731299       0.25455943
Pt       8.42164233       6.48298347      24.58417367        2       0.00000000      -0.21644996       0.11910825       0.25173196
Pt      -0.00201622      -0.00268001      26.89698064        1       0.00000000      -0.02523921      -0.00020621       0.00079595
Pt       2.79748964      -0.00259755      27.14127645        1       0.00000000       0.02143566       0.01968955      -0.00131017
Pt       5.60508023      -0.00427040      26.89613506        1       0.00000000       0.01203926      -0.00467463       0.00396150
Pt       1.39908793       2.43230067      26.89593753        1       0.00000000       0.00437390       0.00598322       0.00493637
Pt       4.20347004       2.43163672      26.89576779        1       0.00000000      -0.00296332       0.00584748      -0.00035070
Pt       7.00864630       2.42776825      26.90808800        1       0.00000000       0.01082092       0.01199734      -0.00549776
Pt       2.79903598       4.86231775      26.91298294        1       0.00000000       0.00646190      -0.00135419      -0.00192029
Pt       5.60275799       4.86649949      26.89971764        1       0.00000000       0.01210168      -0.01579040      -0.00339755
Pt       8.41773145       4.86057516      26.89912398        1       0.00000000      -0.00495870       0.00288820      -0.00429950
C        2.80579983       0.03263990      29.22335112        0       1.00000000      -0.00935644      -0.00333293       0.02493661
H        1.85536026      -0.39369538      29.57707826        0       0.00000000      -0.00017613      -0.00835844      -0.00826673
H        2.90545535       1.07911059      29.54946899        0       0.00000000       0.01160947      -0.02513316      -0.00199660
H        3.65724930      -0.57057539      29.57249862        0       0.00000000      -0.00558057       0.01415668      -0.00311702
