40
Lattice="8.421641763931781 0.0 0.0 4.2108208819658905 7.293355709136913 0.0 0.0 0.0 46.87624170604845" Properties=species:S:1:pos:R:3:tags:I:1:initial_magmoms:R:1:forces:R:3 charge=0 spin=0 energy=-206.89610983676636 free_energy=-206.89610983676636 stress="0.010364197194576263 1.245350773615428e-07 1.2348562172803668e-08 1.245350773615428e-07 0.01036435179412365 -4.1646342197054764e-07 1.2348562172803668e-08 -4.1646342197054764e-07 -0.0003273765032645315" pbc="T T T"
Pt       0.00000003       0.00000007      19.95723551        4       0.00000000       0.00000140       0.00000228       0.01359258
Pt       2.80721399      -0.00000008      19.95723555        4       0.00000000      -0.00179109      -0.00489165       0.01722703
Pt       5.61442774      -0.00000012      19.95723554        4       0.00000000       0.00184454      -0.00364299       0.01908597
Pt       1.40360717       2.43111834      19.95723540        4       0.00000000      -0.00409115       0.00024184       0.01902806
Pt       4.21082076       2.43111843      19.95723549        4       0.00000000       0.00000232      -0.00000036       0.02544130
Pt       7.01803486       2.43111843      19.95723547        4       0.00000000       0.00514637       0.00088489       0.01721897
Pt       2.80721421       4.86223732      19.95723529        4       0.00000000      -0.00335948       0.00401204       0.01731157
Pt       5.61442794       4.86223731      19.95723540        4       0.00000000       0.00224400       0.00340660       0.01907363
Pt       8.42164146       4.86223722      19.95723551        4       0.00000000       0.00000324      -0.00000711      -0.03645259
Pt       1.40360717       0.81037261      22.29206807        3       0.00000000      -0.00058767      -0.00292964      -0.00398365
Pt       4.21082122       0.81037254      22.29206808        3       0.00000000       0.00450377      -0.01092748      -0.06746422
Pt       7.01803484       0.81037259      22.29206812        3       0.00000000       0.00280580       0.00101372      -0.00399478
Pt       2.80721436       3.24149112      22.29206782        3       0.00000000      -0.01173786       0.00155222      -0.06724411
Pt       5.61442774       3.24149129      22.29206807        3       0.00000000       0.00723055       0.00940563      -0.06726401
Pt       8.42164142       3.24149141      22.29206809        3       0.00000000      -0.00190006       0.07547480      -0.14932309
Pt       4.21082097       5.67261006      22.29206778        3       0.00000000      -0.00222243       0.00193397      -0.00376940
Pt       7.01803483       5.67260987      22.29206781        3       0.00000000       0.06630658      -0.03611268      -0.14934941
Pt       9.82524821       5.67261060      22.29206810        3       0.00000000      -0.06440194      -0.03937383      -0.14934137
Pt      -0.00000049       1.62074561      24.58417352        2       0.00000000      -0.00533716      -0.24700545       0.25662830
Pt       2.80721437       1.62074550      24.58417378        2       0.00000000      -0.00422537      -0.00634908      -0.01665125
Pt       5.61442785       1.62074544      24.58417371        2       0.00000000       0.00745628      -0.00052138      -0.01666492
Pt       1.40360647       4.05186444      24.58417385        2       0.00000000      -0.01651792       0.01168164      -0.05049168
Pt       4.21082100       4.05186404      24.58417381        2       0.00000000      -0.00328580       0.00673988      -0.01663197
Pt       7.01803473       4.05186412      24.58417379        2       0.00000000       0.01857035       0.00836906      -0.05059611
Pt       2.80721284       6.48298340      24.58417356        2       0.00000000       0.21633267       0.11879193       0.25674084
Pt       5.61442787       6.48298334      24.58417388        2       0.00000000      -0.21094602       0.12811722       0.25664103
Pt       8.42164233       6.48298347      24.58417367        2       0.00000000      -0.00203552      -0.02004314      -0.05044079
Pt       0.00000023      -0.00013498      27.14584056        1       0.00000000       0.00000103       0.00006448      -0.01022647
Pt       2.80842589      -0.00360205      26.89736586        1       0.00000000      -0.01634955      -0.00214686       0.00531415
Pt       5.61097827      -0.00253768      26.89420342        1       0.00000000       0.01543894      -0.00126822       0.00725846
Pt       1.40313001       2.43532983      26.89416452        1       0.00000000      -0.00873508      -0.01281325       0.00722589
Pt       4.21082057       2.43110328      26.91232445        1       0.00000000      -0.00001602      -0.00004407      -0.01693755
Pt       7.02054627       2.43392627      26.89729375        1       0.00000000       0.00995769      -0.01321112       0.00499980
Pt       2.80348375       4.86296088      26.89732494        1       0.00000000       0.00640197       0.01525315       0.00504833
Pt       5.61836460       4.86049825      26.89414463        1       0.00000000      -0.00672007       0.01399250       0.00733541
Pt       8.42164448       4.86222195      26.92030174        1       0.00000000       0.00001348      -0.00003053      -0.02095946
C       -0.00000134       0.00001814      29.22939312        0       1.00000000       0.00003758       0.00005111      -0.02150774
H       -1.04509002      -0.00024214      29.57112060        0       0.00000000      -0.01149776       0.00033467       0.00471438
H        0.52234562       0.90535275      29.57072832        0       0.00000000       0.00566009       0.00992339       0.00483201
H        0.52274172      -0.90479405      29.57151627        0       0.00000000       0.00579894      -0.00992811       0.00457639
