40
Lattice="8.421641763931781 0.0 0.0 4.2108208819658905 7.293355709136913 0.0 0.0 0.0 46.87624170604845" Properties=species:S:1:pos:R:3:tags:I:1:initial_magmoms:R:1:forces:R:3 charge=0 spin=0 energy=-206.89530302829468 free_energy=-206.89530302829468 stress="0.010379254817962646 -1.1310040463285986e-05 -3.486112746031722e-06 -1.1310040463285986e-05 0.01033315621316433 2.7873353246832266e-05 -3.486112746031722e-06 2.7873353246832266e-05 -0.0003531781258061528" pbc="T T T"
Pt       0.00000003       0.00000007      19.95723551        4       0.00000000       0.00274935      -0.00397796       0.01925947
Pt       2.80721399      -0.00000008      19.95723555        4       0.00000000       0.00050879      -0.00070586       0.01328381
Pt       5.61442774      -0.00000012      19.95723554        4       0.00000000      -0.00125667      -0.00551560       0.01721719
Pt       1.40360717       2.43111834      19.95723540        4       0.00000000       0.00561508       0.00030964       0.01713831
Pt       4.21082076       2.43111843      19.95723549        4       0.00000000      -0.00338396      -0.00047390       0.01925890
Pt       7.01803486       2.43111843      19.95723547        4       0.00000000       0.00030841      -0.00044632       0.02519847
Pt       2.80721421       4.86223732      19.95723529        4       0.00000000       0.00005817      -0.00002716      -0.03673637
Pt       5.61442794       4.86223731      19.95723540        4       0.00000000      -0.00291706       0.00365977       0.01733727
Pt       8.42164146       4.86223722      19.95723551        4       0.00000000       0.00274683       0.00274304       0.01933021
Pt       1.40360717       0.81037261      22.29206807        3       0.00000000       0.00510243      -0.00112798      -0.00239846
Pt       4.21082122       0.81037254      22.29206808        3       0.00000000       0.00141757      -0.00537632      -0.00453250
Pt       7.01803484       0.81037259      22.29206812        3       0.00000000       0.00624489      -0.01335238      -0.06792437
Pt       2.80721436       3.24149112      22.29206782        3       0.00000000      -0.00045442       0.07472787      -0.15161060
Pt       5.61442774       3.24149129      22.29206807        3       0.00000000      -0.01092739      -0.00085828      -0.06564204
Pt       8.42164142       3.24149141      22.29206809        3       0.00000000       0.00913465       0.00706829      -0.06568866
Pt       4.21082097       5.67261006      22.29206778        3       0.00000000      -0.06362403      -0.04131183      -0.14976464
Pt       7.01803483       5.67260987      22.29206781        3       0.00000000      -0.00089180      -0.00037507      -0.00385069
Pt       9.82524821       5.67261060      22.29206810        3       0.00000000       0.06751183      -0.03802472      -0.14901862
Pt      -0.00000049       1.62074561      24.58417352        2       0.00000000       0.00420726       0.00356750      -0.01780523
Pt       2.80721437       1.62074550      24.58417378        2       0.00000000      -0.01189597      -0.23909488       0.25818709
Pt       5.61442785       1.62074544      24.58417371        2       0.00000000      -0.01681769       0.00443438      -0.01709097
Pt       1.40360647       4.05186444      24.58417385        2       0.00000000       0.00310173       0.01444403      -0.05637339
Pt       4.21082100       4.05186404      24.58417381        2       0.00000000      -0.01306498       0.00979071      -0.05959224
Pt       7.01803473       4.05186412      24.58417379        2       0.00000000      -0.00393479       0.01852104      -0.02949067
Pt       2.80721284       6.48298340      24.58417356        2       0.00000000      -0.00169569      -0.00656213      -0.06254129
Pt       5.61442787       6.48298334      24.58417388        2       0.00000000       0.21074560       0.12810220       0.26126087
Pt       8.42164233       6.48298347      24.58417367        2       0.00000000      -0.21673019       0.13223061       0.25111040
Pt      -0.00883908       0.00723138      26.89689847        1       0.00000000       0.01509824      -0.00593747      -0.00443739
Pt       2.80153548       0.01228014      27.14496951        1       0.00000000       0.00298488      -0.00041177      -0.00278196
Pt       5.61152098       0.00453550      26.89360808        1       0.00000000      -0.02014392      -0.00051525       0.01976977
Pt       1.39635185       2.44492101      26.89837846        1       0.00000000       0.01496610      -0.02344523       0.00349959
Pt       4.19716672       2.44260870      26.89898132        1       0.00000000       0.01794692      -0.01496728      -0.00940777
Pt       7.00892855       2.44476664      26.90673435        1       0.00000000       0.00799634      -0.02537773       0.00202376
Pt       2.80373528       4.86932977      26.90857434        1       0.00000000      -0.00791038       0.00780698       0.01602742
Pt       5.60767185       4.86902912      26.89651252        1       0.00000000      -0.00552391       0.02974112       0.00897158
Pt       8.41673071       4.87169659      26.89787581        1       0.00000000       0.00796145       0.00913331      -0.00297849
C        2.79635812       0.01807615      29.22826732        0       1.00000000      -0.02873821      -0.01574552       0.01754671
H        3.32200411       0.91703540      29.58340030        0       0.00000000      -0.00394447       0.00342621      -0.03357998
H        3.31090423      -0.89190412      29.57035371        0       0.00000000      -0.00194961      -0.00592967       0.00449363
H        1.74749230       0.02250565      29.56272328        0       0.00000000       0.02939829      -0.00014669       0.00233178
