40
Lattice="8.421641763931781 0.0 0.0 4.2108208819658905 7.293355709136913 0.0 0.0 0.0 46.87624170604845" Properties=species:S:1:pos:R:3:tags:I:1:initial_magmoms:R:1:forces:R:3 charge=0 spin=0 energy=-205.99748732394897 free_energy=-205.99748732394897 stress="0.009919475764036179 3.833936546016048e-07 6.56493511996814e-07 3.833936546016048e-07 0.009884960949420929 1.3665499864146113e-05 6.56493511996814e-07 1.3665499864146113e-05 -0.00018788062152452767" pbc="T T T"
Pt       0.00000003       0.00000007      19.95723551        4       0.00000000      -0.00067218      -0.00234245       0.01797145
Pt       2.80721399      -0.00000008      19.95723555        4       0.00000000       0.00231925       0.00031210       0.01794251
Pt       5.61442774      -0.00000012      19.95723554        4       0.00000000       0.00181674       0.00626276       0.00719502
Pt       1.40360717       2.43111834      19.95723540        4       0.00000000      -0.00155521       0.00157484       0.01811910
Pt       4.21082076       2.43111843      19.95723549        4       0.00000000       0.00100501      -0.00061722       0.01742094
Pt       7.01803486       2.43111843      19.95723547        4       0.00000000       0.00006129       0.00107329       0.01734830
Pt       2.80721421       4.86223732      19.95723529        4       0.00000000       0.00548913      -0.00521523       0.00655490
Pt       5.61442794       4.86223731      19.95723540        4       0.00000000      -0.00096394      -0.00056371       0.01710644
Pt       8.42164146       4.86223722      19.95723551        4       0.00000000      -0.00733739      -0.00209966       0.00649557
Pt       1.40360717       0.81037261      22.29206807        3       0.00000000       0.00001690      -0.00010353      -0.04293045
Pt       4.21082122       0.81037254      22.29206808        3       0.00000000       0.01549191      -0.01161354      -0.07451975
Pt       7.01803484       0.81037259      22.29206812        3       0.00000000      -0.01404371      -0.00786389      -0.07328276
Pt       2.80721436       3.24149112      22.29206782        3       0.00000000       0.00074040       0.01594455      -0.07513189
Pt       5.61442774       3.24149129      22.29206807        3       0.00000000      -0.00011748      -0.00019890      -0.06921326
Pt       8.42164142       3.24149141      22.29206809        3       0.00000000       0.00146378       0.01902529      -0.07617581
Pt       4.21082097       5.67261006      22.29206778        3       0.00000000      -0.01757604      -0.00877215      -0.07481008
Pt       7.01803483       5.67260987      22.29206781        3       0.00000000       0.01381532      -0.00921180      -0.07401771
Pt       9.82524821       5.67261060      22.29206810        3       0.00000000      -0.00001562      -0.00289087      -0.04303137
Pt      -0.00000049       1.62074561      24.58417352        2       0.00000000       0.02768720      -0.02240655       0.02781817
Pt       2.80721437       1.62074550      24.58417378        2       0.00000000      -0.02977621      -0.01870505       0.02778753
Pt       5.61442785       1.62074544      24.58417371        2       0.00000000      -0.00732788      -0.02065041      -0.07352879
Pt       1.40360647       4.05186444      24.58417385        2       0.00000000      -0.00766496      -0.16098286       0.22824265
Pt       4.21082100       4.05186404      24.58417381        2       0.00000000      -0.01499128       0.01796377      -0.07355257
Pt       7.01803473       4.05186412      24.58417379        2       0.00000000       0.02213107       0.00603643      -0.07360478
Pt       2.80721284       6.48298340      24.58417356        2       0.00000000       0.15415969       0.08185067       0.24348228
Pt       5.61442787       6.48298334      24.58417388        2       0.00000000       0.00206890       0.03715922       0.03164143
Pt       8.42164233       6.48298347      24.58417367        2       0.00000000      -0.14575084       0.09531239       0.24275680
Pt      -0.03289326      -0.02326806      26.94409568        1       0.00000000       0.02042710       0.03299406      -0.01988034
Pt       2.84505587      -0.01523537      26.94392579        1       0.00000000      -0.03862545       0.00170935      -0.01844678
Pt       5.61506753       0.00052053      26.92143397        1       0.00000000      -0.00089056      -0.00826435      -0.01585299
Pt       1.39895156       2.47736431      26.93913051        1       0.00000000       0.01818145      -0.02937279      -0.02266779
Pt       4.22706548       2.44858243      26.90505569        1       0.00000000      -0.01319715      -0.02965964       0.00124236
Pt       6.99573313       2.43801895      26.90501646        1       0.00000000       0.03323203       0.00439114       0.00112953
Pt       2.80680429       4.86401788      26.92171174        1       0.00000000      -0.00754219       0.00647707      -0.01498287
Pt       5.62054633       4.84087919      26.90504172        1       0.00000000      -0.01946775       0.02699890       0.00134185
Pt       8.42166569       4.86490673      26.92172310        1       0.00000000       0.00770073       0.00602912      -0.01515961
C        1.40334060       0.80338860      28.72746591        0       1.00000000      -0.00045576      -0.00620822       0.02856379
H        1.41074077       1.84378218      29.12070223        0       0.00000000      -0.00455754      -0.03174887      -0.01606395
H        2.29796471       0.27985727      29.13026892        0       0.00000000      -0.02139392       0.01335298      -0.00740235
H        0.50027749       0.29349312      29.12914973        0       0.00000000       0.02611490       0.00502361      -0.00590486
