40
Lattice="8.421641763931781 0.0 0.0 4.2108208819658905 7.293355709136913 0.0 0.0 0.0 46.87624170604845" Properties=species:S:1:pos:R:3:tags:I:1:initial_magmoms:R:1:forces:R:3 charge=0 spin=0 energy=-206.8965714151355 free_energy=-206.8965714151355 stress="0.010358304716646671 -5.4175699482073014e-09 1.2617368483347491e-08 -5.4175699482073014e-09 0.010358116589486599 1.6204104724693025e-07 1.2617368483347491e-08 1.6204104724693025e-07 -0.00033806805731728673" pbc="T T T"
Pt       0.00000003       0.00000007      19.95723551        4       0.00000000       0.00000116      -0.00000346       0.01320980
Pt       2.80721399      -0.00000008      19.95723555        4       0.00000000      -0.00195664      -0.00498556       0.01716446
Pt       5.61442774      -0.00000012      19.95723554        4       0.00000000       0.00202352      -0.00324613       0.01953557
Pt       1.40360717       2.43111834      19.95723540        4       0.00000000      -0.00383496      -0.00011869       0.01948472
Pt       4.21082076       2.43111843      19.95723549        4       0.00000000       0.00000158      -0.00000652       0.02540226
Pt       7.01803486       2.43111843      19.95723547        4       0.00000000       0.00531377       0.00077867       0.01716056
Pt       2.80721421       4.86223732      19.95723529        4       0.00000000      -0.00335940       0.00419919       0.01725269
Pt       5.61442794       4.86223731      19.95723540        4       0.00000000       0.00181270       0.00336058       0.01953273
Pt       8.42164146       4.86223722      19.95723551        4       0.00000000       0.00000389       0.00000779      -0.03694430
Pt       1.40360717       0.81037261      22.29206807        3       0.00000000      -0.00016955      -0.00402953      -0.00290113
Pt       4.21082122       0.81037254      22.29206808        3       0.00000000       0.00410159      -0.01150565      -0.06672789
Pt       7.01803484       0.81037259      22.29206812        3       0.00000000       0.00352724       0.00188332      -0.00293100
Pt       2.80721436       3.24149112      22.29206782        3       0.00000000      -0.01202418       0.00216860      -0.06649814
Pt       5.61442774       3.24149129      22.29206807        3       0.00000000       0.00792210       0.00932833      -0.06653167
Pt       8.42164142       3.24149141      22.29206809        3       0.00000000      -0.00163319       0.07570557      -0.15057987
Pt       4.21082097       5.67261006      22.29206778        3       0.00000000      -0.00335930       0.00208141      -0.00275221
Pt       7.01803483       5.67260987      22.29206781        3       0.00000000       0.06633604      -0.03645726      -0.15057011
Pt       9.82524821       5.67261060      22.29206810        3       0.00000000      -0.06470247      -0.03925321      -0.15056640
Pt      -0.00000049       1.62074561      24.58417352        2       0.00000000      -0.00074685      -0.24348281       0.25200996
Pt       2.80721437       1.62074550      24.58417378        2       0.00000000      -0.01100818      -0.00221021      -0.01676954
Pt       5.61442785       1.62074544      24.58417371        2       0.00000000       0.00730237      -0.00842212      -0.01675694
Pt       1.40360647       4.05186444      24.58417385        2       0.00000000      -0.01306415      -0.00070314      -0.04926983
Pt       4.21082100       4.05186404      24.58417381        2       0.00000000       0.00363504       0.01054769      -0.01688793
Pt       7.01803473       4.05186412      24.58417379        2       0.00000000       0.00615920       0.01154390      -0.04941948
Pt       2.80721284       6.48298340      24.58417356        2       0.00000000       0.21108122       0.12120108       0.25216684
Pt       5.61442787       6.48298334      24.58417388        2       0.00000000      -0.21032698       0.12259860       0.25199631
Pt       8.42164233       6.48298347      24.58417367        2       0.00000000       0.00697036      -0.01078954      -0.04917659
Pt       0.00000023       0.00017507      27.14298986        1       0.00000000      -0.00001735      -0.00017785       0.00658089
Pt       2.80784740      -0.00445500      26.89672536        1       0.00000000       0.00465159       0.00138972      -0.00166301
Pt       5.61703654      -0.00226814      26.89947626        1       0.00000000      -0.00613063      -0.00066093      -0.00365750
Pt       1.40031254       2.43002364      26.89940807        1       0.00000000       0.00245867       0.00568230      -0.00376080
Pt       4.21082057       2.43115193      26.90550332        1       0.00000000      -0.00001251       0.00003006       0.00012161
Pt       7.02159642       2.43392757      26.89665549        1       0.00000000      -0.00345962       0.00332851      -0.00186475
Pt       2.80303130       4.86401007      26.89664446        1       0.00000000      -0.00117974      -0.00459222      -0.00191636
Pt       5.61510304       4.86573347      26.89930295        1       0.00000000       0.00365731      -0.00489259      -0.00374925
Pt       8.42164498       4.86227127      26.91194466        1       0.00000000       0.00002504       0.00004333       0.00271462
C        0.00000153      -0.00007200      29.22681557        0       1.00000000      -0.00000540       0.00017173      -0.01433762
H       -0.52250746       0.90507260      29.56893895        0       0.00000000      -0.00298238       0.00485818       0.00379094
H        1.04527370      -0.00018892      29.56850467        0       0.00000000       0.00573014      -0.00030654       0.00396479
H       -0.52276348      -0.90539029      29.56806799        0       0.00000000      -0.00274105      -0.00506466       0.00414350
