40
Lattice="8.421641763931781 0.0 0.0 4.2108208819658905 7.293355709136913 0.0 0.0 0.0 46.87624170604845" Properties=species:S:1:pos:R:3:tags:I:1:initial_magmoms:R:1:forces:R:3 charge=0 spin=0 energy=-206.89400603122436 free_energy=-206.89400603122436 stress="0.01036651898175478 1.3008022961003007e-06 1.6154437616933137e-05 1.3008022961003007e-06 0.010263183154165745 2.2596899725613184e-05 1.6154437616933137e-05 2.2596899725613184e-05 -0.0004224669246468693" pbc="T T T"
Pt       0.00000003       0.00000007      19.95723551        4       0.00000000       0.00175155      -0.00542527       0.01914518
Pt       2.80721399      -0.00000008      19.95723555        4       0.00000000       0.00021658      -0.00169497       0.01309852
Pt       5.61442774      -0.00000012      19.95723554        4       0.00000000      -0.00173735      -0.00647900       0.01700089
Pt       1.40360717       2.43111834      19.95723540        4       0.00000000       0.00523957      -0.00092109       0.01742510
Pt       4.21082076       2.43111843      19.95723549        4       0.00000000      -0.00401817      -0.00155716       0.01907209
Pt       7.01803486       2.43111843      19.95723547        4       0.00000000      -0.00011985      -0.00157153       0.02516361
Pt       2.80721421       4.86223732      19.95723529        4       0.00000000       0.00048380       0.00027038      -0.03684309
Pt       5.61442794       4.86223731      19.95723540        4       0.00000000      -0.00324462       0.00216641       0.01752737
Pt       8.42164146       4.86223722      19.95723551        4       0.00000000       0.00248965       0.00183876       0.01936129
Pt       1.40360717       0.81037261      22.29206807        3       0.00000000       0.00276191      -0.00561324      -0.00435769
Pt       4.21082122       0.81037254      22.29206808        3       0.00000000      -0.00247923      -0.00895326      -0.00156761
Pt       7.01803484       0.81037259      22.29206812        3       0.00000000       0.00411311      -0.01660667      -0.06753302
Pt       2.80721436       3.24149112      22.29206782        3       0.00000000      -0.00227033       0.07265543      -0.15184635
Pt       5.61442774       3.24149129      22.29206807        3       0.00000000      -0.01276754      -0.00486327      -0.06719590
Pt       8.42164142       3.24149141      22.29206809        3       0.00000000       0.00703771       0.00246477      -0.06584529
Pt       4.21082097       5.67261006      22.29206778        3       0.00000000      -0.06326110      -0.04424636      -0.14771608
Pt       7.01803483       5.67260987      22.29206781        3       0.00000000      -0.00316181      -0.00535490      -0.00677706
Pt       9.82524821       5.67261060      22.29206810        3       0.00000000       0.06564817      -0.04156999      -0.14683191
Pt      -0.00000049       1.62074561      24.58417352        2       0.00000000       0.00715361       0.02446931      -0.02818963
Pt       2.80721437       1.62074550      24.58417378        2       0.00000000       0.00228790      -0.22674598       0.26195961
Pt       5.61442785       1.62074544      24.58417371        2       0.00000000      -0.00753947       0.01353372      -0.01433360
Pt       1.40360647       4.05186444      24.58417385        2       0.00000000       0.01465024       0.02914496      -0.06028299
Pt       4.21082100       4.05186404      24.58417381        2       0.00000000      -0.01425161       0.02538936      -0.05903219
Pt       7.01803473       4.05186412      24.58417379        2       0.00000000       0.00256341       0.03198671      -0.02824024
Pt       2.80721284       6.48298340      24.58417356        2       0.00000000      -0.00648052       0.00118700      -0.05895180
Pt       5.61442787       6.48298334      24.58417388        2       0.00000000       0.21125196       0.13908421       0.23331186
Pt       8.42164233       6.48298347      24.58417367        2       0.00000000      -0.19641764       0.14459980       0.24013865
Pt      -0.00386817       0.02531308      26.89076252        1       0.00000000       0.01586462      -0.01664680       0.02035297
Pt       2.81454622       0.02237419      27.13468063        1       0.00000000      -0.00820484      -0.00728124      -0.00012356
Pt       5.61776925       0.02320390      26.89944992        1       0.00000000      -0.00413119      -0.01204643       0.00270493
Pt       1.40974337       2.45654060      26.89518466        1       0.00000000       0.00335764      -0.01907031       0.00949098
Pt       4.21254687       2.46081585      26.89953720        1       0.00000000      -0.00604761      -0.02405958      -0.01084244
Pt       7.01850343       2.46421110      26.90812790        1       0.00000000       0.00559013      -0.03914110      -0.00114883
Pt       2.80869828       4.88664387      26.91411226        1       0.00000000       0.00233131      -0.00566002      -0.00029194
Pt       5.61174165       4.89051962      26.89447073        1       0.00000000       0.00474093      -0.00182571       0.01489419
Pt       8.42959105       4.88677385      26.89666363        1       0.00000000      -0.00796126      -0.00353963      -0.00112176
C        2.80916499       0.01605893      29.21685474        0       1.00000000      -0.04154839       0.00942848       0.00382200
H        1.75927964      -0.00200087      29.54420303        0       0.00000000       0.00451689       0.00427726       0.03045108
H        3.31185408       0.92997145      29.56317121        0       0.00000000       0.00635711       0.02924276       0.00939058
H        3.34266528      -0.87740420      29.57038638        0       0.00000000       0.01523455      -0.03086588      -0.01523789
