40
Lattice="8.421641763931781 0.0 0.0 4.2108208819658905 7.293355709136913 0.0 0.0 0.0 46.87624170604845" Properties=species:S:1:pos:R:3:tags:I:1:initial_magmoms:R:1:forces:R:3 charge=0 spin=0 energy=-206.8937924081775 free_energy=-206.8937924081775 stress="0.010169293731451035 -1.5652658191811497e-07 -1.2225204848448357e-08 -1.5652658191811497e-07 0.010169211775064468 1.3288283184920147e-07 -1.2225204848448357e-08 1.3288283184920147e-07 -0.0007338326540775597" pbc="T T T"
Pt       0.00000003       0.00000007      19.95723551        4       0.00000000       0.00000069      -0.00000159       0.01279159
Pt       2.80721399      -0.00000008      19.95723555        4       0.00000000      -0.00181288      -0.00506480       0.01678825
Pt       5.61442774      -0.00000012      19.95723554        4       0.00000000       0.00194496      -0.00337321       0.01922685
Pt       1.40360717       2.43111834      19.95723540        4       0.00000000      -0.00390520       0.00001288       0.01917024
Pt       4.21082076       2.43111843      19.95723549        4       0.00000000       0.00000075      -0.00000556       0.02501704
Pt       7.01803486       2.43111843      19.95723547        4       0.00000000       0.00531163       0.00094476       0.01678371
Pt       2.80721421       4.86223732      19.95723529        4       0.00000000      -0.00350109       0.00411801       0.01687201
Pt       5.61442794       4.86223731      19.95723540        4       0.00000000       0.00196024       0.00336088       0.01921916
Pt       8.42164146       4.86223722      19.95723551        4       0.00000000       0.00000338       0.00000428      -0.03743936
Pt       1.40360717       0.81037261      22.29206807        3       0.00000000      -0.00064533      -0.00434339      -0.00343845
Pt       4.21082122       0.81037254      22.29206808        3       0.00000000       0.00391146      -0.01099827      -0.06657087
Pt       7.01803484       0.81037259      22.29206812        3       0.00000000       0.00404197       0.00164046      -0.00348407
Pt       2.80721436       3.24149112      22.29206782        3       0.00000000      -0.01149568       0.00209656      -0.06635994
Pt       5.61442774       3.24149129      22.29206807        3       0.00000000       0.00758576       0.00892419      -0.06640689
Pt       8.42164142       3.24149141      22.29206809        3       0.00000000      -0.00159597       0.07593402      -0.14750139
Pt       4.21082097       5.67261006      22.29206778        3       0.00000000      -0.00339854       0.00266130      -0.00330946
Pt       7.01803483       5.67260987      22.29206781        3       0.00000000       0.06651709      -0.03661196      -0.14750442
Pt       9.82524821       5.67261060      22.29206810        3       0.00000000      -0.06492554      -0.03933179      -0.14749584
Pt      -0.00000049       1.62074561      24.58417352        2       0.00000000      -0.00079235      -0.24258266       0.20519011
Pt       2.80721437       1.62074550      24.58417378        2       0.00000000      -0.00555102       0.00197544      -0.05535013
Pt       5.61442785       1.62074544      24.58417371        2       0.00000000       0.00084429      -0.00593563      -0.05534717
Pt       1.40360647       4.05186444      24.58417385        2       0.00000000      -0.02682905       0.00566094      -0.09065375
Pt       4.21082100       4.05186404      24.58417381        2       0.00000000       0.00454253       0.00369454      -0.05544025
Pt       7.01803473       4.05186412      24.58417379        2       0.00000000       0.01858341       0.02033662      -0.09090343
Pt       2.80721284       6.48298340      24.58417356        2       0.00000000       0.21029229       0.12063576       0.20558308
Pt       5.61442787       6.48298334      24.58417388        2       0.00000000      -0.20948534       0.12222201       0.20532516
Pt       8.42164233       6.48298347      24.58417367        2       0.00000000       0.00838524      -0.02588588      -0.09050446
Pt      -0.00000036       0.00012376      27.12253486        1       0.00000000      -0.00001806       0.00005874      -0.02434639
Pt       2.81030998      -0.00457127      26.88481191        1       0.00000000      -0.00175889       0.00319394       0.04713212
Pt       5.61556747      -0.00289232      26.88825956        1       0.00000000      -0.00260486       0.00230323       0.04048907
Pt       1.40053288       2.43155975      26.88814306        1       0.00000000       0.00327385       0.00118636       0.04064457
Pt       4.21081271       2.43112777      26.90235455        1       0.00000000       0.00001304       0.00001860       0.01622795
Pt       7.02043421       2.43607009      26.88467982        1       0.00000000      -0.00178110      -0.00308012       0.04738829
Pt       2.80172768       4.86189475      26.88474864        1       0.00000000       0.00357151       0.00005032       0.04713753
Pt       5.61635778       4.86473917      26.88804478        1       0.00000000      -0.00070468      -0.00334552       0.04071525
Pt       8.42165559       4.86224745      26.91384242        1       0.00000000       0.00001720       0.00004866       0.00461076
C        0.00000031       0.00002994      29.20169561        0       1.00000000       0.00001066      -0.00029978      -0.00870784
H       -0.52335486       0.90624340      29.53839587        0       0.00000000      -0.00128689       0.00234137       0.03793980
H        1.04661268       0.00002649      29.53797530        0       0.00000000       0.00286242       0.00006853       0.03814485
H       -0.52325619      -0.90653916      29.53755556        0       0.00000000      -0.00158169      -0.00263220       0.03836684
