40
Lattice="8.421641763931781 0.0 0.0 4.2108208819658905 7.293355709136913 0.0 0.0 0.0 46.87624170604845" Properties=species:S:1:pos:R:3:tags:I:1:initial_magmoms:R:1:forces:R:3 charge=0 spin=0 energy=-206.15410925693237 free_energy=-206.15410925693237 stress="0.010495246388018131 1.3044701518083457e-05 1.0824998753378168e-05 1.3044701518083457e-05 0.009710749611258507 5.175732803763822e-05 1.0824998753378168e-05 5.175732803763822e-05 -0.0002518648689147085" pbc="T T T"
Pt       0.00000003       0.00000007      19.95723551        4       0.00000000       0.00174940       0.00074271       0.01679192
Pt       2.80721399      -0.00000008      19.95723555        4       0.00000000      -0.00053974      -0.00052562       0.01613895
Pt       5.61442774      -0.00000012      19.95723554        4       0.00000000       0.00065148      -0.00770046       0.02619507
Pt       1.40360717       2.43111834      19.95723540        4       0.00000000      -0.00075950       0.00245599       0.02315435
Pt       4.21082076       2.43111843      19.95723549        4       0.00000000      -0.00030636       0.00211827       0.02247965
Pt       7.01803486       2.43111843      19.95723547        4       0.00000000       0.00171005       0.00306211       0.01942302
Pt       2.80721421       4.86223732      19.95723529        4       0.00000000       0.01501344      -0.00047158      -0.00141993
Pt       5.61442794       4.86223731      19.95723540        4       0.00000000      -0.00105569       0.00413536       0.01339835
Pt       8.42164146       4.86223722      19.95723551        4       0.00000000      -0.01591011       0.00143845      -0.00235428
Pt       1.40360717       0.81037261      22.29206807        3       0.00000000       0.00285942       0.01708368      -0.02952254
Pt       4.21082122       0.81037254      22.29206808        3       0.00000000       0.00164778      -0.00697634      -0.03920998
Pt       7.01803484       0.81037259      22.29206812        3       0.00000000       0.00271329       0.00059721      -0.03529036
Pt       2.80721436       3.24149112      22.29206782        3       0.00000000      -0.00308749       0.03863151      -0.08807164
Pt       5.61442774       3.24149129      22.29206807        3       0.00000000      -0.00082126       0.00786357      -0.07090212
Pt       8.42164142       3.24149141      22.29206809        3       0.00000000       0.00169687       0.04174635      -0.09048364
Pt       4.21082097       5.67261006      22.29206778        3       0.00000000      -0.02325560      -0.00970198      -0.06537189
Pt       7.01803483       5.67260987      22.29206781        3       0.00000000       0.02196643      -0.00661180      -0.06918620
Pt       9.82524821       5.67261060      22.29206810        3       0.00000000      -0.00038659      -0.04378691      -0.11147648
Pt      -0.00000049       1.62074561      24.58417352        2       0.00000000      -0.04369213      -0.15337235       0.07910442
Pt       2.80721437       1.62074550      24.58417378        2       0.00000000       0.04141046      -0.14961931       0.06811982
Pt       5.61442785       1.62074544      24.58417371        2       0.00000000      -0.00573650      -0.01931606      -0.01143399
Pt       1.40360647       4.05186444      24.58417385        2       0.00000000      -0.00094186       0.05703589      -0.18249896
Pt       4.21082100       4.05186404      24.58417381        2       0.00000000      -0.05480539      -0.03401490      -0.10866272
Pt       7.01803473       4.05186412      24.58417379        2       0.00000000       0.05991780      -0.02821965      -0.11034640
Pt       2.80721284       6.48298340      24.58417356        2       0.00000000       0.19010589       0.12200762       0.33356234
Pt       5.61442787       6.48298334      24.58417388        2       0.00000000       0.00105793       0.05514034       0.08498077
Pt       8.42164233       6.48298347      24.58417367        2       0.00000000      -0.19055772       0.13578019       0.33072379
Pt       0.02429624      -0.03327612      27.00982781        1       0.00000000      -0.03488496      -0.00382330      -0.00900013
Pt       2.78604502      -0.03448982      27.00664795        1       0.00000000       0.03563704      -0.00201547      -0.00774554
Pt       5.61583802      -0.01442326      26.91189999        1       0.00000000      -0.00122080      -0.00548792      -0.03761406
Pt       1.40224120       2.46574685      26.87195748        1       0.00000000       0.00152111       0.01727788      -0.00781805
Pt       4.20902870       2.40760689      26.91138859        1       0.00000000      -0.00116524      -0.02511558       0.00613677
Pt       7.01724351       2.40749570      26.91070702        1       0.00000000       0.00465865      -0.02729240       0.00757320
Pt       2.80421108       4.84904905      26.91352775        1       0.00000000      -0.00062567       0.00991704       0.01203150
Pt       5.61373383       4.79078196      26.88016884        1       0.00000000       0.00208117      -0.02308225       0.00213987
Pt       8.42420062       4.84922425      26.91266285        1       0.00000000       0.00213589       0.01143223       0.01260838
C        1.40261443       0.04756104      28.89603570        0       1.00000000      -0.00405135       0.04284953      -0.01442604
H        2.28237147      -0.52555919      29.24961127        0       0.00000000       0.03220392      -0.01760374       0.01469004
H        0.52502782      -0.52646349      29.25267214        0       0.00000000      -0.03505673      -0.01890785       0.02592298
H        1.40312659       1.06543903      29.30114955        0       0.00000000      -0.00187735       0.01232942      -0.02233999
