40
Lattice="8.421641763931781 0.0 0.0 4.2108208819658905 7.293355709136913 0.0 0.0 0.0 46.87624170604845" Properties=species:S:1:pos:R:3:tags:I:1:initial_magmoms:R:1:forces:R:3 charge=0 spin=0 energy=-206.89686323947632 free_energy=-206.89686323947632 stress="0.010386534035205841 5.753074219683185e-06 7.938591807032935e-06 5.753074219683185e-06 0.010344462469220161 2.649750967975706e-05 7.938591807032935e-06 2.649750967975706e-05 -0.0003286693536210805" pbc="T T T"
Pt       0.00000003       0.00000007      19.95723551        4       0.00000000      -0.00033180      -0.00065373       0.01329723
Pt       2.80721399      -0.00000008      19.95723555        4       0.00000000      -0.00228653      -0.00564710       0.01705354
Pt       5.61442774      -0.00000012      19.95723554        4       0.00000000       0.00142079      -0.00428697       0.01927537
Pt       1.40360717       2.43111834      19.95723540        4       0.00000000      -0.00417633      -0.00114846       0.01918899
Pt       4.21082076       2.43111843      19.95723549        4       0.00000000      -0.00041746      -0.00079906       0.02529862
Pt       7.01803486       2.43111843      19.95723547        4       0.00000000       0.00477252      -0.00033355       0.01720517
Pt       2.80721421       4.86223732      19.95723529        4       0.00000000      -0.00387216       0.00327574       0.01735960
Pt       5.61442794       4.86223731      19.95723540        4       0.00000000       0.00145985       0.00241549       0.01946322
Pt       8.42164146       4.86223722      19.95723551        4       0.00000000      -0.00000329      -0.00038403      -0.03668101
Pt       1.40360717       0.81037261      22.29206807        3       0.00000000      -0.00249694      -0.00681580      -0.00031628
Pt       4.21082122       0.81037254      22.29206808        3       0.00000000       0.00228522      -0.01401307      -0.06635873
Pt       7.01803484       0.81037259      22.29206812        3       0.00000000       0.00144034      -0.00101890      -0.00287826
Pt       2.80721436       3.24149112      22.29206782        3       0.00000000      -0.01422442      -0.00085366      -0.06721922
Pt       5.61442774       3.24149129      22.29206807        3       0.00000000       0.00609564       0.00682316      -0.06702625
Pt       8.42164142       3.24149141      22.29206809        3       0.00000000      -0.00360844       0.07373707      -0.15155061
Pt       4.21082097       5.67261006      22.29206778        3       0.00000000      -0.00479444      -0.00132053      -0.00546466
Pt       7.01803483       5.67260987      22.29206781        3       0.00000000       0.06466246      -0.03955127      -0.15090390
Pt       9.82524821       5.67261060      22.29206810        3       0.00000000      -0.06589237      -0.04187127      -0.14871855
Pt      -0.00000049       1.62074561      24.58417352        2       0.00000000       0.00481574      -0.23822780       0.25359035
Pt       2.80721437       1.62074550      24.58417378        2       0.00000000      -0.00268310       0.00272820      -0.02178738
Pt       5.61442785       1.62074544      24.58417371        2       0.00000000       0.01226767       0.00476934      -0.02349486
Pt       1.40360647       4.05186444      24.58417385        2       0.00000000      -0.00495557       0.01485733      -0.05239900
Pt       4.21082100       4.05186404      24.58417381        2       0.00000000       0.00861010       0.01801033      -0.01165324
Pt       7.01803473       4.05186412      24.58417379        2       0.00000000       0.01153149       0.02007009      -0.04727776
Pt       2.80721284       6.48298340      24.58417356        2       0.00000000       0.21719266       0.12882519       0.25474221
Pt       5.61442787       6.48298334      24.58417388        2       0.00000000      -0.20479545       0.13669118       0.26104322
Pt       8.42164233       6.48298347      24.58417367        2       0.00000000       0.01019945      -0.00158173      -0.05061860
Pt       0.00623996       0.01415933      27.14567024        1       0.00000000       0.00609790      -0.00588251       0.00099024
Pt       2.81843305       0.00768056      26.89918797        1       0.00000000      -0.01719306      -0.00476497      -0.00348351
Pt       5.62247328       0.01233968      26.89874508        1       0.00000000      -0.00049061      -0.01827599       0.00188513
Pt       1.41020859       2.44386235      26.89598400        1       0.00000000      -0.00632734      -0.00506445       0.00528306
Pt       4.21804237       2.44065736      26.90692273        1       0.00000000       0.00050634       0.01267254      -0.00117423
Pt       7.02905382       2.44490487      26.89626733        1       0.00000000      -0.00483949       0.00365424      -0.00151813
Pt       2.81060129       4.87594022      26.89818866        1       0.00000000       0.00494403      -0.00147285      -0.00201728
Pt       5.62367305       4.87888239      26.89868712        1       0.00000000      -0.00639860      -0.01174769      -0.00433777
Pt       8.43068152       4.87502815      26.91210955        1       0.00000000      -0.00839293      -0.00739586       0.00213672
C        0.00749055       0.03771483      29.22955287        0       1.00000000       0.00873099       0.00121691      -0.02265388
H       -0.13405602       1.07756576      29.55892237        0       0.00000000       0.00564227      -0.00339178       0.00666824
H        0.97555409      -0.35397090      29.57468753        0       0.00000000       0.00071158       0.00009174       0.00212921
H       -0.81839596      -0.59787354      29.57942463        0       0.00000000      -0.01520647      -0.01333567       0.00292327
