40
Lattice="8.421641763931781 0.0 0.0 4.2108208819658905 7.293355709136913 0.0 0.0 0.0 46.87624170604845" Properties=species:S:1:pos:R:3:tags:I:1:initial_magmoms:R:1:forces:R:3 charge=0 spin=0 energy=-206.89734579868042 free_energy=-206.89734579868042 stress="0.010351857170462608 3.2169251085178985e-07 -3.473946605936362e-07 3.2169251085178985e-07 0.010366126894950867 7.85068823461188e-06 -3.473946605936362e-07 7.85068823461188e-06 -0.00037486135261133313" pbc="T T T"
Pt       0.00000003       0.00000007      19.95723551        4       0.00000000      -0.00001952       0.00015126       0.01350980
Pt       2.80721399      -0.00000008      19.95723555        4       0.00000000      -0.00180634      -0.00460515       0.01711081
Pt       5.61442774      -0.00000012      19.95723554        4       0.00000000       0.00187308      -0.00328719       0.01924622
Pt       1.40360717       2.43111834      19.95723540        4       0.00000000      -0.00404809       0.00053961       0.01905633
Pt       4.21082076       2.43111843      19.95723549        4       0.00000000      -0.00002376       0.00014283       0.02530691
Pt       7.01803486       2.43111843      19.95723547        4       0.00000000       0.00514974       0.00131989       0.01696554
Pt       2.80721421       4.86223732      19.95723529        4       0.00000000      -0.00338295       0.00411423       0.01712904
Pt       5.61442794       4.86223731      19.95723540        4       0.00000000       0.00208344       0.00351055       0.01914306
Pt       8.42164146       4.86223722      19.95723551        4       0.00000000      -0.00005259      -0.00036937      -0.03646239
Pt       1.40360717       0.81037261      22.29206807        3       0.00000000      -0.00051604      -0.00265854      -0.00477836
Pt       4.21082122       0.81037254      22.29206808        3       0.00000000       0.00434858      -0.01032792      -0.06746668
Pt       7.01803484       0.81037259      22.29206812        3       0.00000000       0.00331920       0.00224043      -0.00478618
Pt       2.80721436       3.24149112      22.29206782        3       0.00000000      -0.01163316       0.00243927      -0.06755946
Pt       5.61442774       3.24149129      22.29206807        3       0.00000000       0.00738809       0.01006964      -0.06762613
Pt       8.42164142       3.24149141      22.29206809        3       0.00000000      -0.00189608       0.07567731      -0.14750406
Pt       4.21082097       5.67261006      22.29206778        3       0.00000000      -0.00279285       0.00323606      -0.00309469
Pt       7.01803483       5.67260987      22.29206781        3       0.00000000       0.06650580      -0.03559939      -0.14910387
Pt       9.82524821       5.67261060      22.29206810        3       0.00000000      -0.06461927      -0.03864196      -0.14902975
Pt      -0.00000049       1.62074561      24.58417352        2       0.00000000      -0.00294971      -0.24784280       0.24229331
Pt       2.80721437       1.62074550      24.58417378        2       0.00000000      -0.00258377      -0.00429979      -0.02425996
Pt       5.61442785       1.62074544      24.58417371        2       0.00000000       0.00205525      -0.00480438      -0.02440920
Pt       1.40360647       4.05186444      24.58417385        2       0.00000000      -0.02050429       0.00770610      -0.05505547
Pt       4.21082100       4.05186404      24.58417381        2       0.00000000       0.00021683       0.00415367      -0.01838416
Pt       7.01803473       4.05186412      24.58417379        2       0.00000000       0.01895393       0.01100963      -0.05521322
Pt       2.80721284       6.48298340      24.58417356        2       0.00000000       0.21575479       0.11511739       0.25761116
Pt       5.61442787       6.48298334      24.58417388        2       0.00000000      -0.21266387       0.12079351       0.25742602
Pt       8.42164233       6.48298347      24.58417367        2       0.00000000       0.00179195      -0.02447594      -0.05554326
Pt       0.00004130      -0.00298755      27.14196583        1       0.00000000       0.00008695       0.00187169      -0.01748051
Pt       2.81031624      -0.00592256      26.89434478        1       0.00000000      -0.02005106      -0.00617948       0.01142524
Pt       5.61132280      -0.00466159      26.89410675        1       0.00000000       0.02003616      -0.00571169       0.01179774
Pt       1.40221311       2.43058074      26.89321295        1       0.00000000      -0.00543767      -0.00852264       0.01592667
Pt       4.21082455       2.42861329      26.91272939        1       0.00000000      -0.00009957      -0.00014185      -0.01621052
Pt       7.02047685       2.43106642      26.89352258        1       0.00000000       0.00603521      -0.00807829       0.01532487
Pt       2.80095540       4.85610192      26.89569880        1       0.00000000       0.01741157       0.02814276       0.00818545
Pt       5.61968413       4.85539503      26.89527138        1       0.00000000      -0.01773945       0.02799615       0.00893816
Pt       8.42169960       4.85980124      26.92171298        1       0.00000000      -0.00017688      -0.00032675      -0.02342576
C        0.00005529       0.01023626      29.22413963        0       1.00000000      -0.00027618      -0.00505319       0.01468115
H        0.00076700       1.05729850      29.56381280        0       0.00000000       0.00071619      -0.02678790      -0.00974961
H        0.90564015      -0.51271270      29.56694205        0       0.00000000      -0.01593740       0.00892400       0.00299361
H       -0.90639944      -0.51123007      29.56687361        0       0.00000000       0.01548357       0.00855812       0.00307198
