40
Lattice="8.421641763931781 0.0 0.0 4.2108208819658905 7.293355709136913 0.0 0.0 0.0 46.87624170604845" Properties=species:S:1:pos:R:3:tags:I:1:initial_magmoms:R:1:forces:R:3 charge=0 spin=0 energy=-206.89720084018433 free_energy=-206.89720084018433 stress="0.010328952223062515 3.2873088002816075e-06 5.947304657638597e-07 3.2873088002816075e-06 0.010298637673258781 -8.151412657753099e-06 5.947304657638597e-07 -8.151412657753099e-06 -0.0004112575843464583" pbc="T T T"
Pt       0.00000003       0.00000007      19.95723551        4       0.00000000      -0.00367941       0.00441768       0.01728668
Pt       2.80721399      -0.00000008      19.95723555        4       0.00000000       0.00206643       0.00368938       0.01933249
Pt       5.61442774      -0.00000012      19.95723554        4       0.00000000      -0.00001160      -0.00025211      -0.03716892
Pt       1.40360717       2.43111834      19.95723540        4       0.00000000      -0.00023856      -0.00011511       0.01300007
Pt       4.21082076       2.43111843      19.95723549        4       0.00000000      -0.00218022      -0.00458212       0.01728986
Pt       7.01803486       2.43111843      19.95723547        4       0.00000000       0.00179165      -0.00316808       0.01948773
Pt       2.80721421       4.86223732      19.95723529        4       0.00000000      -0.00423060      -0.00000560       0.01911812
Pt       5.61442794       4.86223731      19.95723540        4       0.00000000      -0.00007533       0.00011713       0.02534293
Pt       8.42164146       4.86223722      19.95723551        4       0.00000000       0.00512409       0.00082695       0.01726045
Pt       1.40360717       0.81037261      22.29206807        3       0.00000000      -0.00305094       0.00200755      -0.00365817
Pt       4.21082122       0.81037254      22.29206808        3       0.00000000       0.06651802      -0.03598532      -0.15097187
Pt       7.01803484       0.81037259      22.29206812        3       0.00000000      -0.06567235      -0.03889978      -0.15001152
Pt       2.80721436       3.24149112      22.29206782        3       0.00000000      -0.00120196      -0.00335970      -0.00255330
Pt       5.61442774       3.24149129      22.29206807        3       0.00000000       0.00344719      -0.00975003      -0.06527551
Pt       8.42164142       3.24149141      22.29206809        3       0.00000000       0.00265372       0.00145111      -0.00270083
Pt       4.21082097       5.67261006      22.29206778        3       0.00000000      -0.01238622       0.00279151      -0.06730963
Pt       7.01803483       5.67260987      22.29206781        3       0.00000000       0.00699617       0.01039097      -0.06664876
Pt       9.82524821       5.67261060      22.29206810        3       0.00000000      -0.00243697       0.07537204      -0.14881124
Pt      -0.00000049       1.62074561      24.58417352        2       0.00000000       0.20804112       0.12329502       0.23695838
Pt       2.80721437       1.62074550      24.58417378        2       0.00000000      -0.20485796       0.12944199       0.23635851
Pt       5.61442785       1.62074544      24.58417371        2       0.00000000       0.00589910      -0.01584538      -0.05286720
Pt       1.40360647       4.05186444      24.58417385        2       0.00000000      -0.00091766      -0.24493745       0.23799360
Pt       4.21082100       4.05186404      24.58417381        2       0.00000000      -0.00313973      -0.01127375      -0.01938948
Pt       7.01803473       4.05186412      24.58417379        2       0.00000000       0.00864743      -0.01272552      -0.01797558
Pt       2.80721284       6.48298340      24.58417356        2       0.00000000      -0.01301051      -0.00019851      -0.05797432
Pt       5.61442787       6.48298334      24.58417388        2       0.00000000       0.00225923       0.00742906      -0.03349297
Pt       8.42164233       6.48298347      24.58417367        2       0.00000000       0.01466332       0.00204780      -0.06010809
Pt      -0.00122851       0.00460689      26.89239569        1       0.00000000      -0.01310850      -0.02785488       0.02120024
Pt       2.81357243       0.00402964      26.89210470        1       0.00000000       0.00161295      -0.02796613       0.02201066
Pt       5.61587421      -0.00798282      26.91197709        1       0.00000000       0.00512286       0.01051873       0.00427522
Pt       1.40487534       2.42188988      27.13610966        1       0.00000000       0.00132807       0.03553823       0.02421416
Pt       4.21493546       2.42227387      26.89857013        1       0.00000000       0.00381798       0.01567606      -0.00263294
Pt       7.01700043       2.42407427      26.90000471        1       0.00000000      -0.00053655       0.01129871      -0.00856955
Pt       2.80934604       4.85635622      26.89468349        1       0.00000000      -0.00577012       0.01570508       0.00592952
Pt       5.61807771       4.86694415      26.90443686        1       0.00000000      -0.00472688      -0.02944819       0.00346437
Pt       8.42718411       4.85639332      26.89570103        1       0.00000000      -0.00092686       0.01725896       0.00359412
C        1.40432189       2.43271484      29.21942543        0       1.00000000       0.00254214       0.01763524       0.01772983
H        0.49609664       2.95305828      29.55985869        0       0.00000000       0.03475012       0.00883129      -0.00502410
H        2.31152568       2.95562678      29.55832869        0       0.00000000      -0.03251419       0.01183501      -0.00127101
H        1.40664426       1.39127295      29.57048204        0       0.00000000      -0.00260819      -0.04120805      -0.00743183
