40
Lattice="8.421641763931781 0.0 0.0 4.2108208819658905 7.293355709136913 0.0 0.0 0.0 46.87624170604845" Properties=species:S:1:pos:R:3:tags:I:1:initial_magmoms:R:1:forces:R:3 charge=0 spin=0 energy=-205.99748732394897 free_energy=-205.99748732394897 stress="0.009919409640133381 3.8365695331776806e-07 6.607060640817508e-07 3.8365695331776806e-07 0.009884899482131004 1.3666763152286876e-05 6.607060640817508e-07 1.3666763152286876e-05 -0.0001879591727629304" pbc="T T T"
Pt       0.00000003       0.00000007      19.95723551        4       0.00000000      -0.00067237      -0.00234254       0.01797124
Pt       2.80721399      -0.00000008      19.95723555        4       0.00000000       0.00231950       0.00031195       0.01794261
Pt       5.61442774      -0.00000012      19.95723554        4       0.00000000       0.00181670       0.00626274       0.00719483
Pt       1.40360717       2.43111834      19.95723540        4       0.00000000      -0.00155494       0.00157507       0.01811903
Pt       4.21082076       2.43111843      19.95723549        4       0.00000000       0.00100481      -0.00061700       0.01742092
Pt       7.01803486       2.43111843      19.95723547        4       0.00000000       0.00006113       0.00107326       0.01734802
Pt       2.80721421       4.86223732      19.95723529        4       0.00000000       0.00548918      -0.00521517       0.00655482
Pt       5.61442794       4.86223731      19.95723540        4       0.00000000      -0.00096362      -0.00056382       0.01710638
Pt       8.42164146       4.86223722      19.95723551        4       0.00000000      -0.00733763      -0.00209963       0.00649544
Pt       1.40360717       0.81037261      22.29206807        3       0.00000000       0.00001681      -0.00010360      -0.04293329
Pt       4.21082122       0.81037254      22.29206808        3       0.00000000       0.01549069      -0.01161266      -0.07452118
Pt       7.01803484       0.81037259      22.29206812        3       0.00000000      -0.01404367      -0.00786311      -0.07328229
Pt       2.80721436       3.24149112      22.29206782        3       0.00000000       0.00074062       0.01594401      -0.07513090
Pt       5.61442774       3.24149129      22.29206807        3       0.00000000      -0.00011755      -0.00019910      -0.06921310
Pt       8.42164142       3.24149141      22.29206809        3       0.00000000       0.00146318       0.01902479      -0.07617637
Pt       4.21082097       5.67261006      22.29206778        3       0.00000000      -0.01757549      -0.00877185      -0.07481034
Pt       7.01803483       5.67260987      22.29206781        3       0.00000000       0.01381535      -0.00921206      -0.07401680
Pt       9.82524821       5.67261060      22.29206810        3       0.00000000      -0.00001639      -0.00289092      -0.04302741
Pt      -0.00000049       1.62074561      24.58417352        2       0.00000000       0.02768590      -0.02240430       0.02780585
Pt       2.80721437       1.62074550      24.58417378        2       0.00000000      -0.02977304      -0.01870525       0.02777386
Pt       5.61442785       1.62074544      24.58417371        2       0.00000000      -0.00732557      -0.02065208      -0.07354505
Pt       1.40360647       4.05186444      24.58417385        2       0.00000000      -0.00766285      -0.16097307       0.22823875
Pt       4.21082100       4.05186404      24.58417381        2       0.00000000      -0.01499736       0.01796532      -0.07356443
Pt       7.01803473       4.05186412      24.58417379        2       0.00000000       0.02213534       0.00604168      -0.07361582
Pt       2.80721284       6.48298340      24.58417356        2       0.00000000       0.15415552       0.08184531       0.24347320
Pt       5.61442787       6.48298334      24.58417388        2       0.00000000       0.00206826       0.03715656       0.03162768
Pt       8.42164233       6.48298347      24.58417367        2       0.00000000      -0.14574616       0.09530249       0.24274799
Pt      -0.03289588      -0.02326720      26.94409033        1       0.00000000       0.02045519       0.03300074      -0.01985391
Pt       2.84505791      -0.01523943      26.94391926        1       0.00000000      -0.03864131       0.00172861      -0.01842568
Pt       5.61506668       0.00052111      26.92143331        1       0.00000000      -0.00088467      -0.00827314      -0.01584186
Pt       1.39895448       2.47736699      26.93912475        1       0.00000000       0.01816719      -0.02939701      -0.02264455
Pt       4.22706875       2.44858190      26.90505374        1       0.00000000      -0.01322015      -0.02966451       0.00125523
Pt       6.99573267       2.43802217      26.90501389        1       0.00000000       0.03324587       0.00437167       0.00114143
Pt       2.80680583       4.86401959      26.92171226        1       0.00000000      -0.00755535       0.00647054      -0.01498938
Pt       5.62054415       4.84087680      26.90504099        1       0.00000000      -0.01945360       0.02702116       0.00135515
Pt       8.42166620       4.86490407      26.92172426        1       0.00000000       0.00770537       0.00604382      -0.01516709
C        1.40333844       0.80338844      28.72745867        0       1.00000000      -0.00041646      -0.00619396       0.02855751
H        2.29796660       0.27986229      29.13026034        0       0.00000000      -0.02140764       0.01335531      -0.00741084
H        0.50027969       0.29348957      29.12914420        0       0.00000000       0.02608799       0.00500993      -0.00589224
H        1.41073479       1.84378225      29.12069445        0       0.00000000      -0.00455837      -0.03175043      -0.01606756
