40
Lattice="8.421641763931781 0.0 0.0 4.2108208819658905 7.293355709136913 0.0 0.0 0.0 46.87624170604845" Properties=species:S:1:pos:R:3:tags:I:1:initial_magmoms:R:1:forces:R:3 charge=0 spin=0 energy=-206.15310217685425 free_energy=-206.15310217685425 stress="0.010531599633395672 1.0097176527779084e-05 -2.422855160943982e-08 1.0097176527779084e-05 0.009699732065200806 0.00012292871542740613 -2.422855160943982e-08 0.00012292871542740613 -0.00025285090669058263" pbc="T T T"
Pt       0.00000003       0.00000007      19.95723551        4       0.00000000       0.00093739      -0.00064233       0.01643007
Pt       2.80721399      -0.00000008      19.95723555        4       0.00000000      -0.00003014      -0.00214354       0.01559620
Pt       5.61442774      -0.00000012      19.95723554        4       0.00000000       0.00046128      -0.00835211       0.02645379
Pt       1.40360717       2.43111834      19.95723540        4       0.00000000      -0.00074032       0.00151333       0.02273976
Pt       4.21082076       2.43111843      19.95723549        4       0.00000000      -0.00005868       0.00093335       0.02325159
Pt       7.01803486       2.43111843      19.95723547        4       0.00000000       0.00086080       0.00229720       0.02003010
Pt       2.80721421       4.86223732      19.95723529        4       0.00000000       0.01495175       0.00178369      -0.00115422
Pt       5.61442794       4.86223731      19.95723540        4       0.00000000      -0.00088459       0.00410485       0.01336610
Pt       8.42164146       4.86223722      19.95723551        4       0.00000000      -0.01495346       0.00359239      -0.00277115
Pt       1.40360717       0.81037261      22.29206807        3       0.00000000       0.00297065       0.01782424      -0.02974835
Pt       4.21082122       0.81037254      22.29206808        3       0.00000000       0.00006080      -0.00705479      -0.03631619
Pt       7.01803484       0.81037259      22.29206812        3       0.00000000       0.00446958       0.00034525      -0.03377562
Pt       2.80721436       3.24149112      22.29206782        3       0.00000000      -0.00436747       0.04323021      -0.09398346
Pt       5.61442774       3.24149129      22.29206807        3       0.00000000      -0.00041282       0.00595213      -0.07056413
Pt       8.42164142       3.24149141      22.29206809        3       0.00000000       0.00318919       0.04561585      -0.09487849
Pt       4.21082097       5.67261006      22.29206778        3       0.00000000      -0.02135895      -0.01080514      -0.06553338
Pt       7.01803483       5.67260987      22.29206781        3       0.00000000       0.02084258      -0.00657094      -0.06686450
Pt       9.82524821       5.67261060      22.29206810        3       0.00000000       0.00127646      -0.04046369      -0.10852779
Pt      -0.00000049       1.62074561      24.58417352        2       0.00000000      -0.03937306      -0.14644650       0.07408208
Pt       2.80721437       1.62074550      24.58417378        2       0.00000000       0.03946874      -0.14255917       0.06553105
Pt       5.61442785       1.62074544      24.58417371        2       0.00000000      -0.00597208      -0.02038458      -0.01313027
Pt       1.40360647       4.05186444      24.58417385        2       0.00000000      -0.00269224       0.07248786      -0.19159470
Pt       4.21082100       4.05186404      24.58417381        2       0.00000000      -0.05339167      -0.02848068      -0.10508864
Pt       7.01803473       4.05186412      24.58417379        2       0.00000000       0.05675492      -0.01976143      -0.10649520
Pt       2.80721284       6.48298340      24.58417356        2       0.00000000       0.18488707       0.12331485       0.33431453
Pt       5.61442787       6.48298334      24.58417388        2       0.00000000       0.00569568       0.06895865       0.09024693
Pt       8.42164233       6.48298347      24.58417367        2       0.00000000      -0.19178426       0.13710177       0.33677477
Pt       0.02275919      -0.03218043      27.00845237        1       0.00000000      -0.04172265      -0.00853575      -0.00720443
Pt       2.78128923      -0.03281461      27.01142689        1       0.00000000       0.03763381      -0.00547665      -0.00932377
Pt       5.61400090      -0.01192509      26.91333435        1       0.00000000      -0.00060633      -0.00050711      -0.03818965
Pt       1.40283378       2.47131525      26.87009728        1       0.00000000      -0.00122851       0.00737971      -0.01363212
Pt       4.21003980       2.41175772      26.90948681        1       0.00000000      -0.00196255      -0.02836453       0.00470633
Pt       7.01716325       2.41313144      26.90902862        1       0.00000000       0.00122796      -0.03274367       0.00536898
Pt       2.80454666       4.85354003      26.91438051        1       0.00000000      -0.00334780       0.00842137       0.01323478
Pt       5.61418457       4.79899930      26.87992034        1       0.00000000      -0.00049073      -0.03533201       0.00792030
Pt       8.42474357       4.85497485      26.91398284        1       0.00000000       0.00063517       0.00830320       0.01334063
C        1.40430637      -0.04901668      28.90206807        0       1.00000000       0.00370215      -0.03282724      -0.01460598
H        0.52518696       0.53038367      29.24611271        0       0.00000000      -0.02446135       0.01878788       0.01509146
H        2.28361874       0.52871519      29.24791002        0       0.00000000       0.02901563       0.01771292       0.02431925
H        1.40304186      -1.06126215      29.32067349        0       0.00000000       0.00079825      -0.01220872      -0.01941676
