40
Lattice="8.421641763931781 0.0 0.0 4.2108208819658905 7.293355709136913 0.0 0.0 0.0 46.87624170604845" Properties=species:S:1:pos:R:3:tags:I:1:initial_magmoms:R:1:forces:R:3 charge=0 spin=0 energy=-206.89487196750366 free_energy=-206.89487196750366 stress="0.010369889438152313 -2.2968104929077526e-07 5.138548203831306e-06 -2.2968104929077526e-07 0.010313332080841064 -3.1542888336844044e-06 5.138548203831306e-06 -3.1542888336844044e-06 -0.0003378160181455314" pbc="T T T"
Pt       0.00000003       0.00000007      19.95723551        4       0.00000000      -0.00013137      -0.00069670       0.01318391
Pt       2.80721399      -0.00000008      19.95723555        4       0.00000000      -0.00136732      -0.00603366       0.01718651
Pt       5.61442774      -0.00000012      19.95723554        4       0.00000000       0.00198430      -0.00451396       0.01937393
Pt       1.40360717       2.43111834      19.95723540        4       0.00000000      -0.00389640      -0.00080364       0.01943833
Pt       4.21082076       2.43111843      19.95723549        4       0.00000000      -0.00015402      -0.00096549       0.02532408
Pt       7.01803486       2.43111843      19.95723547        4       0.00000000       0.00542022      -0.00030200       0.01711971
Pt       2.80721421       4.86223732      19.95723529        4       0.00000000      -0.00293808       0.00308382       0.01747788
Pt       5.61442794       4.86223731      19.95723540        4       0.00000000       0.00222832       0.00230185       0.01939821
Pt       8.42164146       4.86223722      19.95723551        4       0.00000000      -0.00006625      -0.00036327      -0.03692903
Pt       1.40360717       0.81037261      22.29206807        3       0.00000000      -0.00115735      -0.00691724      -0.00500373
Pt       4.21082122       0.81037254      22.29206808        3       0.00000000       0.00388985      -0.01471350      -0.06535988
Pt       7.01803484       0.81037259      22.29206812        3       0.00000000       0.00412307      -0.00178807      -0.00275384
Pt       2.80721436       3.24149112      22.29206782        3       0.00000000      -0.01230195      -0.00126459      -0.06652894
Pt       5.61442774       3.24149129      22.29206807        3       0.00000000       0.00756763       0.00532737      -0.06730855
Pt       8.42164142       3.24149141      22.29206809        3       0.00000000      -0.00179491       0.07225039      -0.15073697
Pt       4.21082097       5.67261006      22.29206778        3       0.00000000      -0.00297874      -0.00192967      -0.00531492
Pt       7.01803483       5.67260987      22.29206781        3       0.00000000       0.06623502      -0.03978803      -0.14828776
Pt       9.82524821       5.67261060      22.29206810        3       0.00000000      -0.06403814      -0.04259222      -0.14955829
Pt      -0.00000049       1.62074561      24.58417352        2       0.00000000      -0.00082015      -0.23462842       0.26694328
Pt       2.80721437       1.62074550      24.58417378        2       0.00000000      -0.00805351       0.00949456      -0.00828361
Pt       5.61442785       1.62074544      24.58417371        2       0.00000000       0.00636054       0.00664645      -0.02909362
Pt       1.40360647       4.05186444      24.58417385        2       0.00000000      -0.01316318       0.01293529      -0.05234965
Pt       4.21082100       4.05186404      24.58417381        2       0.00000000       0.00013698       0.02145357      -0.00846299
Pt       7.01803473       4.05186412      24.58417379        2       0.00000000       0.01287708       0.02604279      -0.04870134
Pt       2.80721284       6.48298340      24.58417356        2       0.00000000       0.20700325       0.13232049       0.24500498
Pt       5.61442787       6.48298334      24.58417388        2       0.00000000      -0.20171294       0.12975085       0.24782471
Pt       8.42164233       6.48298347      24.58417367        2       0.00000000      -0.00180337      -0.00264884      -0.04953131
Pt       0.00267830       0.00101952      27.13828816        1       0.00000000      -0.00917348       0.03983638       0.01695049
Pt       2.80470768       0.01100800      26.90009337        1       0.00000000       0.01447649      -0.00621520      -0.01336085
Pt       5.61048028       0.01685672      26.89611640        1       0.00000000       0.01919210      -0.02200299       0.01530946
Pt       1.40254797       2.44768513      26.89839626        1       0.00000000      -0.01024901      -0.02061157      -0.00600380
Pt       4.21528407       2.44653354      26.90898848        1       0.00000000      -0.02749550      -0.00490656      -0.00813583
Pt       7.01820946       2.44784670      26.89627453        1       0.00000000       0.02954392      -0.01257827      -0.00175784
Pt       2.79966661       4.88217755      26.89779843        1       0.00000000       0.01266119      -0.03156160      -0.00549571
Pt       5.61964916       4.87508335      26.89990822        1       0.00000000      -0.00506197       0.00215377      -0.00438750
Pt       8.42646312       4.87950118      26.91494864        1       0.00000000      -0.02054512      -0.02134266      -0.00466309
C        0.00756359       0.00584623      29.22262596        0       1.00000000      -0.02408371       0.02203659      -0.02967767
H       -0.51398525      -0.89381546      29.57826211        0       0.00000000      -0.00188275      -0.03819603      -0.01530840
H       -0.51791102       0.91226702      29.55369519        0       0.00000000      -0.00770426       0.03636729       0.02797176
H        1.05252296       0.01354741      29.56224994        0       0.00000000       0.02887350      -0.00463776       0.01448804
