40
Lattice="8.421641763931781 0.0 0.0 4.2108208819658905 7.293355709136913 0.0 0.0 0.0 46.87624170604845" Properties=species:S:1:pos:R:3:tags:I:1:initial_magmoms:R:1:forces:R:3 charge=0 spin=0 energy=-206.8933861429187 free_energy=-206.8933861429187 stress="0.010471939109265804 -6.262372153287288e-06 3.0634447512056795e-07 -6.262372153287288e-06 0.010342604480683804 3.303599442006089e-05 3.0634447512056795e-07 3.303599442006089e-05 -0.0002867629227694124" pbc="T T T"
Pt       0.00000003       0.00000007      19.95723551        4       0.00000000       0.00174819      -0.00551078       0.01884070
Pt       2.80721399      -0.00000008      19.95723555        4       0.00000000       0.00017437      -0.00158405       0.01318663
Pt       5.61442774      -0.00000012      19.95723554        4       0.00000000      -0.00169353      -0.00703960       0.01709124
Pt       1.40360717       2.43111834      19.95723540        4       0.00000000       0.00510794      -0.00165514       0.01769864
Pt       4.21082076       2.43111843      19.95723549        4       0.00000000      -0.00375839      -0.00191341       0.01916990
Pt       7.01803486       2.43111843      19.95723547        4       0.00000000      -0.00037122      -0.00210528       0.02513178
Pt       2.80721421       4.86223732      19.95723529        4       0.00000000       0.00045314       0.00057823      -0.03661926
Pt       5.61442794       4.86223731      19.95723540        4       0.00000000      -0.00321096       0.00198513       0.01771912
Pt       8.42164146       4.86223722      19.95723551        4       0.00000000       0.00233770       0.00165790       0.01942976
Pt       1.40360717       0.81037261      22.29206807        3       0.00000000       0.00203307      -0.00586044      -0.00222688
Pt       4.21082122       0.81037254      22.29206808        3       0.00000000      -0.00218770      -0.01007337      -0.00078877
Pt       7.01803484       0.81037259      22.29206812        3       0.00000000       0.00387313      -0.01822072      -0.06672893
Pt       2.80721436       3.24149112      22.29206782        3       0.00000000      -0.00270922       0.07265624      -0.15496825
Pt       5.61442774       3.24149129      22.29206807        3       0.00000000      -0.01322613      -0.00568953      -0.06548508
Pt       8.42164142       3.24149141      22.29206809        3       0.00000000       0.00672948       0.00178572      -0.06764437
Pt       4.21082097       5.67261006      22.29206778        3       0.00000000      -0.06352064      -0.04566969      -0.14864130
Pt       7.01803483       5.67260987      22.29206781        3       0.00000000      -0.00290531      -0.00655345      -0.00886287
Pt       9.82524821       5.67261060      22.29206810        3       0.00000000       0.06447838      -0.04301247      -0.14815448
Pt      -0.00000049       1.62074561      24.58417352        2       0.00000000       0.01754338       0.02630785      -0.01059468
Pt       2.80721437       1.62074550      24.58417378        2       0.00000000      -0.00095038      -0.22484879       0.28188947
Pt       5.61442785       1.62074544      24.58417371        2       0.00000000      -0.00996176       0.01385139      -0.01023747
Pt       1.40360647       4.05186444      24.58417385        2       0.00000000       0.01173663       0.03115841      -0.03690845
Pt       4.21082100       4.05186404      24.58417381        2       0.00000000      -0.00585267       0.02829173      -0.04574462
Pt       7.01803473       4.05186412      24.58417379        2       0.00000000       0.00030643       0.03344817      -0.01101084
Pt       2.80721284       6.48298340      24.58417356        2       0.00000000      -0.00710392       0.01589423      -0.04655764
Pt       5.61442787       6.48298334      24.58417388        2       0.00000000       0.20977989       0.14002348       0.24573784
Pt       8.42164233       6.48298347      24.58417367        2       0.00000000      -0.19750196       0.15121005       0.26255703
Pt       0.00020167       0.02851953      26.89703807        1       0.00000000       0.00086628      -0.00831153       0.00057850
Pt       2.80629490       0.03050123      27.14408187        1       0.00000000       0.01750668      -0.01541197      -0.00110223
Pt       5.61592899       0.03025228      26.90536250        1       0.00000000      -0.00724411      -0.03274046      -0.01516109
Pt       1.41344043       2.46553643      26.90284075        1       0.00000000      -0.00795558      -0.02023828      -0.02043718
Pt       4.21331649       2.46416275      26.90062495        1       0.00000000      -0.01060984      -0.01930275      -0.01227427
Pt       7.01982226       2.45871526      26.90759062        1       0.00000000       0.00793638       0.00125506      -0.00214066
Pt       2.81588200       4.89869752      26.91193784        1       0.00000000      -0.03226800      -0.03557888       0.00354191
Pt       5.61532350       4.89523836      26.90231108        1       0.00000000       0.00080172      -0.01379314      -0.01433083
Pt       8.42484095       4.89188801      26.89936174        1       0.00000000       0.01615657      -0.00459461      -0.01727266
C        2.78930596       0.01602310      29.22747835        0       1.00000000       0.00091950       0.00600143       0.00684909
H        1.73827159       0.02233768      29.55481054        0       0.00000000       0.03980553      -0.00652527       0.01510891
H        3.31602533       0.91437924      29.58183539        0       0.00000000      -0.01254173       0.01405277      -0.01036153
H        3.30478905      -0.89300665      29.57187561        0       0.00000000      -0.02472135      -0.00392412      -0.01027605
