40
Lattice="8.421641763931781 0.0 0.0 4.2108208819658905 7.293355709136913 0.0 0.0 0.0 46.87624170604845" Properties=species:S:1:pos:R:3:tags:I:1:initial_magmoms:R:1:forces:R:3 charge=0 spin=0 energy=-206.8962452585193 free_energy=-206.8962452585193 stress="0.010365687310695648 -1.3531357581086922e-05 -6.3456400312134065e-06 -1.3531357581086922e-05 0.010379617102444172 -2.7111283998237923e-05 -6.3456400312134065e-06 -2.7111283998237923e-05 -0.00032081324025057256" pbc="T T T"
Pt       0.00000003       0.00000007      19.95723551        4       0.00000000       0.00037122       0.00042956       0.01341536
Pt       2.80721399      -0.00000008      19.95723555        4       0.00000000      -0.00145151      -0.00506382       0.01707457
Pt       5.61442774      -0.00000012      19.95723554        4       0.00000000       0.00240010      -0.00334036       0.01925332
Pt       1.40360717       2.43111834      19.95723540        4       0.00000000      -0.00397868       0.00038864       0.01950361
Pt       4.21082076       2.43111843      19.95723549        4       0.00000000       0.00048292      -0.00006028       0.02537853
Pt       7.01803486       2.43111843      19.95723547        4       0.00000000       0.00591433       0.00106344       0.01732084
Pt       2.80721421       4.86223732      19.95723529        4       0.00000000      -0.00287879       0.00405251       0.01764505
Pt       5.61442794       4.86223731      19.95723540        4       0.00000000       0.00274264       0.00332433       0.01941782
Pt       8.42164146       4.86223722      19.95723551        4       0.00000000      -0.00006523       0.00096043      -0.03675855
Pt       1.40360717       0.81037261      22.29206807        3       0.00000000       0.00116862      -0.00326016      -0.00540762
Pt       4.21082122       0.81037254      22.29206808        3       0.00000000       0.00596353      -0.01162596      -0.06791281
Pt       7.01803484       0.81037259      22.29206812        3       0.00000000       0.00513125       0.00120102      -0.00237138
Pt       2.80721436       3.24149112      22.29206782        3       0.00000000      -0.00998790       0.00189845      -0.06604307
Pt       5.61442774       3.24149129      22.29206807        3       0.00000000       0.00884553       0.00897700      -0.06575150
Pt       8.42164142       3.24149141      22.29206809        3       0.00000000       0.00002893       0.07670605      -0.14993466
Pt       4.21082097       5.67261006      22.29206778        3       0.00000000      -0.00108891       0.00164167      -0.00469112
Pt       7.01803483       5.67260987      22.29206781        3       0.00000000       0.06705967      -0.03516980      -0.14913735
Pt       9.82524821       5.67261060      22.29206810        3       0.00000000      -0.06303690      -0.03932166      -0.15093485
Pt      -0.00000049       1.62074561      24.58417352        2       0.00000000      -0.00878717      -0.24826762       0.27529827
Pt       2.80721437       1.62074550      24.58417378        2       0.00000000      -0.02120002       0.00024726      -0.01762699
Pt       5.61442785       1.62074544      24.58417371        2       0.00000000       0.01193121      -0.00255565      -0.02008725
Pt       1.40360647       4.05186444      24.58417385        2       0.00000000      -0.02055416      -0.00059658      -0.04790362
Pt       4.21082100       4.05186404      24.58417381        2       0.00000000      -0.00648960       0.01360815      -0.01349549
Pt       7.01803473       4.05186412      24.58417379        2       0.00000000       0.00915856       0.00382640      -0.05485896
Pt       2.80721284       6.48298340      24.58417356        2       0.00000000       0.20470953       0.12154286       0.25693539
Pt       5.61442787       6.48298334      24.58417388        2       0.00000000      -0.21221206       0.12223198       0.24952596
Pt       8.42164233       6.48298347      24.58417367        2       0.00000000      -0.00336258      -0.01624616      -0.05026483
Pt      -0.00687541      -0.00890547      27.14504259        1       0.00000000       0.00361771       0.01634560      -0.00934903
Pt       2.80010615       0.00052573      26.89715766        1       0.00000000      -0.00634164      -0.01901828       0.00208483
Pt       5.60333892       0.00260825      26.89684647        1       0.00000000       0.02865056      -0.02361516       0.00610880
Pt       1.39375155       2.43320051      26.90120715        1       0.00000000      -0.00542172      -0.01322448      -0.00801247
Pt       4.20559449       2.42909367      26.90501772        1       0.00000000      -0.00777642       0.01459648       0.00547679
Pt       7.01571031       2.43392567      26.90136510        1       0.00000000       0.01291116      -0.01700306      -0.00571349
Pt       2.79293851       4.86403681      26.89761087        1       0.00000000       0.01137349      -0.00046487      -0.01185740
Pt       5.61517395       4.85853651      26.89721638        1       0.00000000      -0.01736214       0.01903532      -0.00371010
Pt       8.41274135       4.86315549      26.91404776        1       0.00000000       0.01350382      -0.00273803      -0.00061401
C       -0.00342346      -0.06037409      29.22722355        0       1.00000000      -0.02557098       0.00837487       0.00735193
H        0.94749538       0.36254442      29.58232365        0       0.00000000       0.01092150       0.01067261      -0.00762014
H       -0.10403628      -1.11004012      29.54078709        0       0.00000000       0.00329179       0.00832733       0.01214742
H       -0.85515716       0.53604037      29.58727056        0       0.00000000       0.00738834       0.00212015      -0.01388185
