40
Lattice="8.421641763931781 0.0 0.0 4.2108208819658905 7.293355709136913 0.0 0.0 0.0 46.87624170604845" Properties=species:S:1:pos:R:3:tags:I:1:initial_magmoms:R:1:forces:R:3 charge=0 spin=0 energy=-205.99759222812378 free_energy=-205.99759222812378 stress="0.009894686751067638 -1.7013748276895058e-07 -2.712448861075245e-07 -1.7013748276895058e-07 0.009878208860754967 6.484403002104955e-06 -2.712448861075245e-07 6.484403002104955e-06 -0.0002134983951691538" pbc="T T T"
Pt       0.00000003       0.00000007      19.95723551        4       0.00000000      -0.00087935      -0.00198146       0.01803140
Pt       2.80721399      -0.00000008      19.95723555        4       0.00000000       0.00213893       0.00009891       0.01799285
Pt       5.61442774      -0.00000012      19.95723554        4       0.00000000       0.00151835       0.00669297       0.00686538
Pt       1.40360717       2.43111834      19.95723540        4       0.00000000      -0.00120344       0.00167297       0.01812031
Pt       4.21082076       2.43111843      19.95723549        4       0.00000000       0.00093729      -0.00036148       0.01732902
Pt       7.01803486       2.43111843      19.95723547        4       0.00000000      -0.00013151       0.00094062       0.01732262
Pt       2.80721421       4.86223732      19.95723529        4       0.00000000       0.00551419      -0.00489904       0.00653603
Pt       5.61442794       4.86223731      19.95723540        4       0.00000000      -0.00074947      -0.00062857       0.01716200
Pt       8.42164146       4.86223722      19.95723551        4       0.00000000      -0.00700508      -0.00229680       0.00656675
Pt       1.40360717       0.81037261      22.29206807        3       0.00000000       0.00002084      -0.00004318      -0.04261843
Pt       4.21082122       0.81037254      22.29206808        3       0.00000000       0.01470249      -0.01139324      -0.07537707
Pt       7.01803484       0.81037259      22.29206812        3       0.00000000      -0.01507558      -0.00763309      -0.07325182
Pt       2.80721436       3.24149112      22.29206782        3       0.00000000       0.00123755       0.01683091      -0.07409091
Pt       5.61442774       3.24149129      22.29206807        3       0.00000000      -0.00005029      -0.00009499      -0.06900071
Pt       8.42164142       3.24149141      22.29206809        3       0.00000000       0.00211275       0.01838084      -0.07605610
Pt       4.21082097       5.67261006      22.29206778        3       0.00000000      -0.01708239      -0.00766897      -0.07549842
Pt       7.01803483       5.67260987      22.29206781        3       0.00000000       0.01409961      -0.00971372      -0.07351219
Pt       9.82524821       5.67261060      22.29206810        3       0.00000000       0.00005731      -0.00137818      -0.04277155
Pt      -0.00000049       1.62074561      24.58417352        2       0.00000000       0.02972504      -0.01757885       0.02339979
Pt       2.80721437       1.62074550      24.58417378        2       0.00000000      -0.02854911      -0.01975536       0.02360728
Pt       5.61442785       1.62074544      24.58417371        2       0.00000000       0.00033626      -0.02062677      -0.07634149
Pt       1.40360647       4.05186444      24.58417385        2       0.00000000      -0.00659065      -0.16435105       0.23115192
Pt       4.21082100       4.05186404      24.58417381        2       0.00000000      -0.01846837       0.01059014      -0.07643387
Pt       7.01803473       4.05186412      24.58417379        2       0.00000000       0.01794348       0.01160115      -0.07651740
Pt       2.80721284       6.48298340      24.58417356        2       0.00000000       0.15039068       0.08005771       0.23803808
Pt       5.61442787       6.48298334      24.58417388        2       0.00000000      -0.00103403       0.03552129       0.02527200
Pt       8.42164233       6.48298347      24.58417367        2       0.00000000      -0.14425001       0.09192952       0.23845935
Pt      -0.03727577      -0.01801633      26.94194885        1       0.00000000       0.03474852       0.00273848      -0.01449128
Pt       2.84187356      -0.02240120      26.94213913        1       0.00000000      -0.01964310       0.02888061      -0.01491516
Pt       5.61492309       0.00026500      26.92121788        1       0.00000000      -0.00409559      -0.01152749      -0.01439667
Pt       1.40606919       2.47521200      26.93974517        1       0.00000000      -0.01515207      -0.02911206      -0.01640582
Pt       4.23083816       2.44092865      26.90438815        1       0.00000000      -0.02683174       0.00038410       0.00417743
Pt       6.99996975       2.44429357      26.90439656        1       0.00000000       0.01330920      -0.02283140       0.00418010
Pt       2.80681037       4.86278834      26.92133455        1       0.00000000      -0.00795647       0.01063087      -0.01395600
Pt       5.61245968       4.84068271      26.90437653        1       0.00000000       0.01321608       0.02325488       0.00432622
Pt       8.42142144       4.86376880      26.92132508        1       0.00000000       0.01237128       0.00297446      -0.01391487
C        1.40381528       0.80706356      28.72621688        0       1.00000000       0.00035543      -0.00303063       0.02547096
H        1.38121627       1.84599563      29.12229916        0       0.00000000       0.00535957      -0.02781328      -0.01114276
H        2.31400545       0.30898933      29.12639110        0       0.00000000      -0.02516121       0.00608372      -0.00632857
H        0.51656887       0.26954886      29.12676903        0       0.00000000       0.01981492       0.01545552      -0.00698819
