40
Lattice="8.421641763931781 0.0 0.0 4.2108208819658905 7.293355709136913 0.0 0.0 0.0 46.87624170604845" Properties=species:S:1:pos:R:3:tags:I:1:initial_magmoms:R:1:forces:R:3 charge=0 spin=0 energy=-206.89428259677612 free_energy=-206.89428259677612 stress="0.010373467579483986 2.1328656657715328e-05 1.719187457638327e-05 2.1328656657715328e-05 0.010296359658241272 3.753100463654846e-05 1.719187457638327e-05 3.753100463654846e-05 -0.0003917327558156103" pbc="T T T"
Pt       0.00000003       0.00000007      19.95723551        4       0.00000000      -0.00065776      -0.00099067       0.01321071
Pt       2.80721399      -0.00000008      19.95723555        4       0.00000000      -0.00328262      -0.00548347       0.01709355
Pt       5.61442774      -0.00000012      19.95723554        4       0.00000000       0.00113298      -0.00433232       0.01924465
Pt       1.40360717       2.43111834      19.95723540        4       0.00000000      -0.00457655      -0.00063573       0.01900063
Pt       4.21082076       2.43111843      19.95723549        4       0.00000000      -0.00079905      -0.00047112       0.02529259
Pt       7.01803486       2.43111843      19.95723547        4       0.00000000       0.00442399      -0.00006621       0.01744092
Pt       2.80721421       4.86223732      19.95723529        4       0.00000000      -0.00418075       0.00315577       0.01725971
Pt       5.61442794       4.86223731      19.95723540        4       0.00000000       0.00143731       0.00247439       0.01917374
Pt       8.42164146       4.86223722      19.95723551        4       0.00000000       0.00000680      -0.00005374      -0.03717259
Pt       1.40360717       0.81037261      22.29206807        3       0.00000000      -0.00425640      -0.00671780      -0.00172997
Pt       4.21082122       0.81037254      22.29206808        3       0.00000000       0.00068093      -0.01434126      -0.06839536
Pt       7.01803484       0.81037259      22.29206812        3       0.00000000      -0.00024053      -0.00095613      -0.00623762
Pt       2.80721436       3.24149112      22.29206782        3       0.00000000      -0.01540590      -0.00107367      -0.06380071
Pt       5.61442774       3.24149129      22.29206807        3       0.00000000       0.00613485       0.00671071      -0.06367155
Pt       8.42164142       3.24149141      22.29206809        3       0.00000000      -0.00441225       0.07498374      -0.15239063
Pt       4.21082097       5.67261006      22.29206778        3       0.00000000      -0.00613663      -0.00013071      -0.00357358
Pt       7.01803483       5.67260987      22.29206781        3       0.00000000       0.06391624      -0.03800499      -0.15073209
Pt       9.82524821       5.67261060      22.29206810        3       0.00000000      -0.06673751      -0.04053457      -0.14877817
Pt      -0.00000049       1.62074561      24.58417352        2       0.00000000       0.01062763      -0.23639536       0.25268343
Pt       2.80721437       1.62074550      24.58417378        2       0.00000000       0.00197573       0.00864372      -0.02348045
Pt       5.61442785       1.62074544      24.58417371        2       0.00000000       0.02089271       0.01510100      -0.01958473
Pt       1.40360647       4.05186444      24.58417385        2       0.00000000       0.00282793       0.01172744      -0.06550192
Pt       4.21082100       4.05186404      24.58417381        2       0.00000000       0.00829775       0.02092705      -0.02719550
Pt       7.01803473       4.05186412      24.58417379        2       0.00000000       0.01044863       0.01048026      -0.05963802
Pt       2.80721284       6.48298340      24.58417356        2       0.00000000       0.22643313       0.12356451       0.24577874
Pt       5.61442787       6.48298334      24.58417388        2       0.00000000      -0.20533730       0.13167793       0.25683600
Pt       8.42164233       6.48298347      24.58417367        2       0.00000000       0.00971989      -0.00713907      -0.07398877
Pt       0.01181537       0.01776544      27.14327873        1       0.00000000      -0.00063661      -0.01718836       0.00238126
Pt       2.82104466       0.00753899      26.89354065        1       0.00000000      -0.01255544      -0.00997222       0.00751481
Pt       5.62263390       0.00945014      26.88852274        1       0.00000000       0.01921881      -0.00896444       0.03986815
Pt       1.41877591       2.44625878      26.89757009        1       0.00000000      -0.01439739      -0.02373449       0.01148190
Pt       4.22566012       2.44802034      26.90742001        1       0.00000000      -0.00517824      -0.02857441      -0.00138301
Pt       7.04295350       2.44229944      26.90145433        1       0.00000000      -0.04400469      -0.00006228      -0.01661419
Pt       2.81498894       4.87382862      26.89994999        1       0.00000000      -0.00088427       0.01354108      -0.00878839
Pt       5.62475438       4.87040362      26.89653088        1       0.00000000       0.00577031       0.02561604       0.00551907
Pt       8.43122114       4.86813662      26.90526848        1       0.00000000       0.00166414       0.02151353       0.02914498
C        0.02387706       0.01945932      29.22701423        0       1.00000000       0.03666005      -0.01794750      -0.00024943
H       -0.50301018       0.91483413      29.58798515        0       0.00000000      -0.00014790       0.01875119      -0.03580904
H        1.07418781       0.02441688      29.55829103        0       0.00000000      -0.04891179      -0.00731514       0.00356763
H       -0.49071150      -0.89273493      29.56167289        0       0.00000000       0.01046999      -0.01778273       0.02622349
