40
Lattice="8.421641763931781 0.0 0.0 4.2108208819658905 7.293355709136913 0.0 0.0 0.0 46.87624170604845" Properties=species:S:1:pos:R:3:tags:I:1:initial_magmoms:R:1:forces:R:3 charge=0 spin=0 energy=-206.89628340549194 free_energy=-206.89628340549194 stress="0.010364425368607044 4.7432965999405496e-08 -1.7715500177928334e-08 4.7432965999405496e-08 0.01036438625305891 1.1142726208390741e-07 -1.7715500177928334e-08 1.1142726208390741e-07 -0.00032733503030613065" pbc="T T T"
Pt       0.00000003       0.00000007      19.95723551        4       0.00000000       0.00000122      -0.00000128       0.01356676
Pt       2.80721399      -0.00000008      19.95723555        4       0.00000000      -0.00175399      -0.00508953       0.01698541
Pt       5.61442774      -0.00000012      19.95723554        4       0.00000000       0.00190868      -0.00339106       0.01938884
Pt       1.40360717       2.43111834      19.95723540        4       0.00000000      -0.00390387       0.00005467       0.01933701
Pt       4.21082076       2.43111843      19.95723549        4       0.00000000       0.00000110      -0.00000328       0.02549191
Pt       7.01803486       2.43111843      19.95723547        4       0.00000000       0.00529975       0.00100781       0.01697968
Pt       2.80721421       4.86223732      19.95723529        4       0.00000000      -0.00354796       0.00407632       0.01706997
Pt       5.61442794       4.86223731      19.95723540        4       0.00000000       0.00199335       0.00333599       0.01938184
Pt       8.42164146       4.86223722      19.95723551        4       0.00000000       0.00000305       0.00000463      -0.03659850
Pt       1.40360717       0.81037261      22.29206807        3       0.00000000      -0.00024980      -0.00409259      -0.00410295
Pt       4.21082122       0.81037254      22.29206808        3       0.00000000       0.00407498      -0.01125372      -0.06719337
Pt       7.01803484       0.81037259      22.29206812        3       0.00000000       0.00362863       0.00185923      -0.00412731
Pt       2.80721436       3.24149112      22.29206782        3       0.00000000      -0.01179680       0.00207119      -0.06696017
Pt       5.61442774       3.24149129      22.29206807        3       0.00000000       0.00772028       0.00918312      -0.06698538
Pt       8.42164142       3.24149141      22.29206809        3       0.00000000      -0.00167170       0.07535037      -0.14944267
Pt       4.21082097       5.67261006      22.29206778        3       0.00000000      -0.00337996       0.00220122      -0.00392886
Pt       7.01803483       5.67260987      22.29206781        3       0.00000000       0.06605930      -0.03624257      -0.14943345
Pt       9.82524821       5.67261060      22.29206810        3       0.00000000      -0.06438307      -0.03911139      -0.14943069
Pt      -0.00000049       1.62074561      24.58417352        2       0.00000000      -0.00123105      -0.24653092       0.25648418
Pt       2.80721437       1.62074550      24.58417378        2       0.00000000      -0.00792145      -0.00026772      -0.01631612
Pt       5.61442785       1.62074544      24.58417371        2       0.00000000       0.00407231      -0.00669440      -0.01632561
Pt       1.40360647       4.05186444      24.58417385        2       0.00000000      -0.02089342       0.00435241      -0.05072040
Pt       4.21082100       4.05186404      24.58417381        2       0.00000000       0.00378540       0.00690645      -0.01639584
Pt       7.01803473       4.05186412      24.58417379        2       0.00000000       0.01442697       0.01580569      -0.05084330
Pt       2.80721284       6.48298340      24.58417356        2       0.00000000       0.21398605       0.12225705       0.25656998
Pt       5.61442787       6.48298334      24.58417388        2       0.00000000      -0.21272893       0.12446444       0.25645834
Pt       8.42164233       6.48298347      24.58417367        2       0.00000000       0.00648482      -0.02012717      -0.05068807
Pt      -0.00000014       0.00011448      27.14587181        1       0.00000000      -0.00000462      -0.00015682      -0.01032335
Pt       2.81108668      -0.00380776      26.89463136        1       0.00000000      -0.01649507      -0.00185311       0.00678643
Pt       5.61365574      -0.00266771      26.89699402        1       0.00000000       0.01535458      -0.00103840       0.00589746
Pt       1.40167986       2.43314084      26.89696802        1       0.00000000      -0.00864200      -0.01281710       0.00563124
Pt       4.21082033       2.43113151      26.91158756        1       0.00000000      -0.00000976       0.00001755      -0.01659775
Pt       7.01939151       2.43640071      26.89458757        1       0.00000000       0.00987156      -0.01339173       0.00657362
Pt       2.80199148       4.86083371      26.89457844        1       0.00000000       0.00662778       0.01531746       0.00678460
Pt       5.61711813       4.86295647      26.89689868        1       0.00000000      -0.00670751       0.01393692       0.00559127
Pt       8.42164291       4.86225438      26.92089214        1       0.00000000       0.00002142       0.00002750      -0.02130562
C        0.00000054      -0.00002799      29.22936122        0       1.00000000      -0.00006231      -0.00008561      -0.02139059
H       -0.52415906      -0.90425558      29.57086708        0       0.00000000      -0.00536880      -0.01000871       0.00508217
H       -0.52093557       0.90589983      29.57130170        0       0.00000000      -0.00604716       0.00976596       0.00432431
H        1.04509316      -0.00192944      29.57108327        0       0.00000000       0.01147819       0.00016115       0.00472497
