40
Lattice="8.421641763931781 0.0 0.0 4.2108208819658905 7.293355709136913 0.0 0.0 0.0 46.87624170604845" Properties=species:S:1:pos:R:3:tags:I:1:initial_magmoms:R:1:forces:R:3 charge=0 spin=0 energy=-206.89746977634155 free_energy=-206.89746977634155 stress="0.010370226576924324 3.925531927961856e-06 5.625072844850365e-06 3.925531927961856e-06 0.010369524359703064 -3.3124413221230498e-06 5.625072844850365e-06 -3.3124413221230498e-06 -0.00032824830850586295" pbc="T T T"
Pt       0.00000003       0.00000007      19.95723551        4       0.00000000      -0.00010901       0.00039439       0.01313987
Pt       2.80721399      -0.00000008      19.95723555        4       0.00000000      -0.00239406      -0.00471946       0.01710884
Pt       5.61442774      -0.00000012      19.95723554        4       0.00000000       0.00152252      -0.00300462       0.01962526
Pt       1.40360717       2.43111834      19.95723540        4       0.00000000      -0.00449312       0.00041291       0.01944611
Pt       4.21082076       2.43111843      19.95723549        4       0.00000000      -0.00053349       0.00010219       0.02545281
Pt       7.01803486       2.43111843      19.95723547        4       0.00000000       0.00499609       0.00123184       0.01731221
Pt       2.80721421       4.86223732      19.95723529        4       0.00000000      -0.00335172       0.00442928       0.01716284
Pt       5.61442794       4.86223731      19.95723540        4       0.00000000       0.00150587       0.00372730       0.01951808
Pt       8.42164146       4.86223722      19.95723551        4       0.00000000       0.00015224      -0.00016144      -0.03689754
Pt       1.40360717       0.81037261      22.29206807        3       0.00000000      -0.00172849      -0.00211419      -0.00285453
Pt       4.21082122       0.81037254      22.29206808        3       0.00000000       0.00311443      -0.01047592      -0.06627956
Pt       7.01803484       0.81037259      22.29206812        3       0.00000000       0.00154565       0.00276551      -0.00566666
Pt       2.80721436       3.24149112      22.29206782        3       0.00000000      -0.01290985       0.00341099      -0.06666302
Pt       5.61442774       3.24149129      22.29206807        3       0.00000000       0.00617635       0.01012697      -0.06610340
Pt       8.42164142       3.24149141      22.29206809        3       0.00000000      -0.00291479       0.07669906      -0.14928293
Pt       4.21082097       5.67261006      22.29206778        3       0.00000000      -0.00407930       0.00357423      -0.00160418
Pt       7.01803483       5.67260987      22.29206781        3       0.00000000       0.06641532      -0.03572976      -0.15133098
Pt       9.82524821       5.67261060      22.29206810        3       0.00000000      -0.06495228      -0.03784504      -0.15237051
Pt      -0.00000049       1.62074561      24.58417352        2       0.00000000       0.00702767      -0.24355581       0.25311142
Pt       2.80721437       1.62074550      24.58417378        2       0.00000000      -0.00794312      -0.00646265      -0.01539614
Pt       5.61442785       1.62074544      24.58417371        2       0.00000000       0.01216955      -0.00786772      -0.01673347
Pt       1.40360647       4.05186444      24.58417385        2       0.00000000      -0.01157418      -0.00753820      -0.03640127
Pt       4.21082100       4.05186404      24.58417381        2       0.00000000       0.00899921       0.00847428      -0.00932100
Pt       7.01803473       4.05186412      24.58417379        2       0.00000000       0.01507140       0.00795447      -0.04518140
Pt       2.80721284       6.48298340      24.58417356        2       0.00000000       0.21550900       0.11341213       0.25154781
Pt       5.61442787       6.48298334      24.58417388        2       0.00000000      -0.20971803       0.11626740       0.25327691
Pt       8.42164233       6.48298347      24.58417367        2       0.00000000       0.00485572      -0.01465795      -0.04365418
Pt       0.00481036      -0.00648635      27.14305567        1       0.00000000      -0.00885105       0.00297973      -0.01075096
Pt       2.80425378      -0.00858056      26.89761041        1       0.00000000       0.03561378      -0.00471968       0.00007453
Pt       5.62019620      -0.00490375      26.89752364        1       0.00000000      -0.00657018      -0.00955262      -0.00281473
Pt       1.40848138       2.42219242      26.90420166        1       0.00000000      -0.01392555       0.03255822      -0.01972823
Pt       4.21475010       2.42457779      26.90645172        1       0.00000000       0.00459820       0.00921096      -0.00287200
Pt       7.02933773       2.42837993      26.89617160        1       0.00000000      -0.00710102       0.00945655       0.00126293
Pt       2.80917158       4.85796163      26.89717297        1       0.00000000      -0.00803351       0.00056604      -0.00300192
Pt       5.62478653       4.85835183      26.90126623        1       0.00000000      -0.01357973      -0.00433048      -0.01291865
Pt       8.42871983       4.86124143      26.91468905        1       0.00000000      -0.00373098      -0.01460946      -0.00847135
C       -0.00061957      -0.00917967      29.22461457        0       1.00000000      -0.01767858       0.01320028       0.01740502
H       -0.83466991       0.62238226      29.56557978        0       0.00000000       0.01640051       0.00290422      -0.00224380
H        0.96267860       0.39102971      29.57320755        0       0.00000000       0.00022653       0.01167107      -0.00433784
H       -0.13619262      -1.04583090      29.56397758        0       0.00000000       0.00027202      -0.02818508       0.00743541
