40
Lattice="8.421641763931781 0.0 0.0 4.2108208819658905 7.293355709136913 0.0 0.0 0.0 46.87624170604845" Properties=species:S:1:pos:R:3:tags:I:1:initial_magmoms:R:1:forces:R:3 charge=0 spin=0 energy=-206.1544239694568 free_energy=-206.1544239694568 stress="0.010451627895236015 1.0556429515418131e-05 -1.4510036635329016e-05 1.0556429515418131e-05 0.009673076681792736 7.586141873616725e-05 -1.4510036635329016e-05 7.586141873616725e-05 -0.0003190763236489147" pbc="T T T"
Pt       0.00000003       0.00000007      19.95723551        4       0.00000000       0.00168858       0.00169341       0.01682124
Pt       2.80721399      -0.00000008      19.95723555        4       0.00000000      -0.00037448       0.00071736       0.01624497
Pt       5.61442774      -0.00000012      19.95723554        4       0.00000000       0.00051786      -0.00712857       0.02622011
Pt       1.40360717       2.43111834      19.95723540        4       0.00000000      -0.00100188       0.00318703       0.02291486
Pt       4.21082076       2.43111843      19.95723549        4       0.00000000      -0.00013144       0.00352429       0.02219494
Pt       7.01803486       2.43111843      19.95723547        4       0.00000000       0.00129326       0.00447712       0.01942541
Pt       2.80721421       4.86223732      19.95723529        4       0.00000000       0.01561016      -0.00059326      -0.00201630
Pt       5.61442794       4.86223731      19.95723540        4       0.00000000      -0.00110412       0.00512379       0.01304301
Pt       8.42164146       4.86223722      19.95723551        4       0.00000000      -0.01581223       0.00166038      -0.00188377
Pt       1.40360717       0.81037261      22.29206807        3       0.00000000       0.00283809       0.02051225      -0.03324457
Pt       4.21082122       0.81037254      22.29206808        3       0.00000000       0.00196297      -0.00280928      -0.03991021
Pt       7.01803484       0.81037259      22.29206812        3       0.00000000       0.00213332       0.00514160      -0.03814379
Pt       2.80721436       3.24149112      22.29206782        3       0.00000000      -0.00220534       0.04161258      -0.08968473
Pt       5.61442774       3.24149129      22.29206807        3       0.00000000      -0.00086565       0.01226695      -0.06847952
Pt       8.42164142       3.24149141      22.29206809        3       0.00000000       0.00233724       0.04294847      -0.08915213
Pt       4.21082097       5.67261006      22.29206778        3       0.00000000      -0.02307376      -0.00440976      -0.06647006
Pt       7.01803483       5.67260987      22.29206781        3       0.00000000       0.02207997      -0.00105819      -0.06683938
Pt       9.82524821       5.67261060      22.29206810        3       0.00000000       0.00296549      -0.04095884      -0.10674602
Pt      -0.00000049       1.62074561      24.58417352        2       0.00000000      -0.04761447      -0.14938714       0.05014904
Pt       2.80721437       1.62074550      24.58417378        2       0.00000000       0.04663236      -0.15161291       0.04668664
Pt       5.61442785       1.62074544      24.58417371        2       0.00000000      -0.00572889      -0.02341885      -0.02787547
Pt       1.40360647       4.05186444      24.58417385        2       0.00000000      -0.00296130       0.05209615      -0.18329214
Pt       4.21082100       4.05186404      24.58417381        2       0.00000000      -0.04367634      -0.04879836      -0.09779751
Pt       7.01803473       4.05186412      24.58417379        2       0.00000000       0.04912550      -0.04351650      -0.09893721
Pt       2.80721284       6.48298340      24.58417356        2       0.00000000       0.19553854       0.09872036       0.30341175
Pt       5.61442787       6.48298334      24.58417388        2       0.00000000       0.00610851       0.03655229       0.08081177
Pt       8.42164233       6.48298347      24.58417367        2       0.00000000      -0.20738329       0.11743864       0.31554568
Pt       0.01455335      -0.04768147      26.99717827        1       0.00000000       0.01841102      -0.00807402       0.02109205
Pt       2.78873702      -0.04737189      27.00188552        1       0.00000000      -0.03294020      -0.00555823       0.03284759
Pt       5.61424282      -0.03769938      26.90342533        1       0.00000000      -0.00494724       0.03158418       0.01231167
Pt       1.40225339       2.45551148      26.86779248        1       0.00000000      -0.00137600       0.02329046      -0.00451618
Pt       4.21327319       2.38814497      26.91311055        1       0.00000000      -0.01727094       0.01792968      -0.00103821
Pt       7.01357437       2.38817764      26.91282085        1       0.00000000       0.01231323       0.01704304      -0.00242847
Pt       2.80801539       4.83193397      26.91347510        1       0.00000000      -0.01317205       0.00497779       0.01758960
Pt       5.61377003       4.77922480      26.88506666        1       0.00000000      -0.00004070      -0.03285027      -0.00431961
Pt       8.41949015       4.83340637      26.91274339        1       0.00000000       0.01154689       0.00471454       0.01693248
C        1.40865327       0.09001074      28.88429913        0       1.00000000       0.01264706      -0.01650877      -0.01138504
H        0.52507438      -0.47132930      29.25065671        0       0.00000000      -0.00565413      -0.01436972      -0.01183693
H        1.40578181       1.11743812      29.26369022        0       0.00000000       0.00681904       0.02177551      -0.00282732
H        2.28596423      -0.47361721      29.26003609        0       0.00000000       0.01476531      -0.01793518       0.01458181
