40
Lattice="8.421641763931781 0.0 0.0 4.2108208819658905 7.293355709136913 0.0 0.0 0.0 46.87624170604845" Properties=species:S:1:pos:R:3:tags:I:1:initial_magmoms:R:1:forces:R:3 charge=0 spin=0 energy=-205.99666525668823 free_energy=-205.99666525668823 stress="0.00993787869811058 2.1869300326216035e-06 5.220162506702763e-07 2.1869300326216035e-06 0.009880194440484047 2.5372470190632157e-05 5.220162506702763e-07 2.5372470190632157e-05 -0.000153773304191418" pbc="T T T"
Pt       0.00000003       0.00000007      19.95723551        4       0.00000000      -0.00086850      -0.00184936       0.01801021
Pt       2.80721399      -0.00000008      19.95723555        4       0.00000000       0.00197052      -0.00028070       0.01799062
Pt       5.61442774      -0.00000012      19.95723554        4       0.00000000       0.00130096       0.00595703       0.00769729
Pt       1.40360717       2.43111834      19.95723540        4       0.00000000      -0.00091619       0.00140982       0.01819422
Pt       4.21082076       2.43111843      19.95723549        4       0.00000000       0.00053762      -0.00000556       0.01771751
Pt       7.01803486       2.43111843      19.95723547        4       0.00000000      -0.00018476       0.00030882       0.01756465
Pt       2.80721421       4.86223732      19.95723529        4       0.00000000       0.00617747      -0.00488781       0.00653681
Pt       5.61442794       4.86223731      19.95723540        4       0.00000000      -0.00013301      -0.00042279       0.01719402
Pt       8.42164146       4.86223722      19.95723551        4       0.00000000      -0.00745990      -0.00276800       0.00660151
Pt       1.40360717       0.81037261      22.29206807        3       0.00000000       0.00012972      -0.00008105      -0.04285758
Pt       4.21082122       0.81037254      22.29206808        3       0.00000000       0.01366964      -0.01240277      -0.07381736
Pt       7.01803484       0.81037259      22.29206812        3       0.00000000      -0.01485894      -0.00902555      -0.06954970
Pt       2.80721436       3.24149112      22.29206782        3       0.00000000       0.00053380       0.01732930      -0.07307673
Pt       5.61442774       3.24149129      22.29206807        3       0.00000000      -0.00016810      -0.00024151      -0.06658497
Pt       8.42164142       3.24149141      22.29206809        3       0.00000000       0.00264962       0.01773456      -0.07695757
Pt       4.21082097       5.67261006      22.29206778        3       0.00000000      -0.01732964      -0.00746835      -0.07470847
Pt       7.01803483       5.67260987      22.29206781        3       0.00000000       0.01533834      -0.00999997      -0.07086617
Pt       9.82524821       5.67261060      22.29206810        3       0.00000000      -0.00010372      -0.00478426      -0.04768863
Pt      -0.00000049       1.62074561      24.58417352        2       0.00000000       0.02235960      -0.01411849       0.03198102
Pt       2.80721437       1.62074550      24.58417378        2       0.00000000      -0.01710103      -0.02402403       0.03239064
Pt       5.61442785       1.62074544      24.58417371        2       0.00000000       0.00549649      -0.00974927      -0.06437459
Pt       1.40360647       4.05186444      24.58417385        2       0.00000000      -0.00092842      -0.16441230       0.20941600
Pt       4.21082100       4.05186404      24.58417381        2       0.00000000      -0.01259559       0.00224953      -0.06379133
Pt       7.01803473       4.05186412      24.58417379        2       0.00000000       0.00632243       0.01256268      -0.06401927
Pt       2.80721284       6.48298340      24.58417356        2       0.00000000       0.16077138       0.09494168       0.23498076
Pt       5.61442787       6.48298334      24.58417388        2       0.00000000      -0.00514524       0.03015840       0.03983114
Pt       8.42164233       6.48298347      24.58417367        2       0.00000000      -0.16077530       0.09700086       0.23578387
Pt      -0.03388434      -0.00674992      26.94701294        1       0.00000000       0.01437482      -0.03207126      -0.01482157
Pt       2.83141549      -0.02341268      26.94740769        1       0.00000000       0.02483177       0.02867988      -0.02046116
Pt       5.60978064      -0.00061912      26.91633861        1       0.00000000       0.02151196       0.01209886       0.00406534
Pt       1.41282043       2.47364316      26.93817606        1       0.00000000      -0.03667530       0.01402982      -0.02263465
Pt       4.23377931       2.43781831      26.90889828        1       0.00000000      -0.04298563       0.01738195      -0.01797075
Pt       7.00193003       2.44988343      26.90895295        1       0.00000000       0.00782250      -0.04286778      -0.01789582
Pt       2.80787381       4.87033485      26.91684280        1       0.00000000      -0.00077514      -0.02059354       0.00481835
Pt       5.60731008       4.84101912      26.90893499        1       0.00000000       0.03452684       0.02966945      -0.01736504
Pt       8.42518993       4.86249432      26.91680770        1       0.00000000      -0.02019953       0.01579076       0.00513557
C        1.40350706       0.79879722      28.74616666        0       1.00000000       0.00174353      -0.01185843      -0.03674574
H        1.39907373       1.83837774      29.13255274        0       0.00000000      -0.00159379       0.03629873      -0.00796045
H        2.30426039       0.29046714      29.14611630        0       0.00000000       0.03658970      -0.03215560       0.01111524
H        0.51089009       0.27972422      29.15004142        0       0.00000000      -0.03786088      -0.02753371       0.00712269
