40
Lattice="8.421641763931781 0.0 0.0 4.2108208819658905 7.293355709136913 0.0 0.0 0.0 46.87624170604845" Properties=species:S:1:pos:R:3:tags:I:1:initial_magmoms:R:1:forces:R:3 charge=0 spin=0 energy=-206.89762808627808 free_energy=-206.89762808627808 stress="0.010385381057858467 -3.6289416129875463e-06 1.955297875610995e-06 -3.6289416129875463e-06 0.010358855128288269 1.2027186130580958e-05 1.955297875610995e-06 1.2027186130580958e-05 -0.00032446568366140127" pbc="T T T"
Pt       0.00000003       0.00000007      19.95723551        4       0.00000000       0.00198939      -0.00379537       0.01916068
Pt       2.80721399      -0.00000008      19.95723555        4       0.00000000      -0.00005030      -0.00027771       0.01332346
Pt       5.61442774      -0.00000012      19.95723554        4       0.00000000      -0.00171198      -0.00529304       0.01720549
Pt       1.40360717       2.43111834      19.95723540        4       0.00000000       0.00521073       0.00023600       0.01718138
Pt       4.21082076       2.43111843      19.95723549        4       0.00000000      -0.00382721      -0.00054652       0.01916269
Pt       7.01803486       2.43111843      19.95723547        4       0.00000000      -0.00002118      -0.00026677       0.02533191
Pt       2.80721421       4.86223732      19.95723529        4       0.00000000       0.00029585      -0.00022028      -0.03662738
Pt       5.61442794       4.86223731      19.95723540        4       0.00000000      -0.00315375       0.00373424       0.01723250
Pt       8.42164146       4.86223722      19.95723551        4       0.00000000       0.00175705       0.00303892       0.01927658
Pt       1.40360717       0.81037261      22.29206807        3       0.00000000       0.00293756       0.00066960      -0.00248051
Pt       4.21082122       0.81037254      22.29206808        3       0.00000000      -0.00044229      -0.00469890      -0.00228043
Pt       7.01803484       0.81037259      22.29206812        3       0.00000000       0.00443176      -0.01259355      -0.06682646
Pt       2.80721436       3.24149112      22.29206782        3       0.00000000      -0.00195048       0.07481555      -0.15147223
Pt       5.61442774       3.24149129      22.29206807        3       0.00000000      -0.01246210       0.00026913      -0.06740365
Pt       8.42164142       3.24149141      22.29206809        3       0.00000000       0.00747711       0.00830154      -0.06740202
Pt       4.21082097       5.67261006      22.29206778        3       0.00000000      -0.06439701      -0.04073162      -0.14944598
Pt       7.01803483       5.67260987      22.29206781        3       0.00000000      -0.00298751       0.00054665      -0.00256845
Pt       9.82524821       5.67261060      22.29206810        3       0.00000000       0.06675383      -0.03811422      -0.15027305
Pt      -0.00000049       1.62074561      24.58417352        2       0.00000000       0.00700710      -0.00031069      -0.02724541
Pt       2.80721437       1.62074550      24.58417378        2       0.00000000      -0.00366646      -0.24313173       0.25356224
Pt       5.61442785       1.62074544      24.58417371        2       0.00000000      -0.00662720       0.00031428      -0.02343268
Pt       1.40360647       4.05186444      24.58417385        2       0.00000000       0.00848951       0.01558685      -0.04810051
Pt       4.21082100       4.05186404      24.58417381        2       0.00000000      -0.00940062       0.01247314      -0.04838618
Pt       7.01803473       4.05186412      24.58417379        2       0.00000000       0.00065522       0.01377973      -0.01177118
Pt       2.80721284       6.48298340      24.58417356        2       0.00000000       0.00171464      -0.00798213      -0.05195671
Pt       5.61442787       6.48298334      24.58417388        2       0.00000000       0.21832289       0.12152975       0.25445747
Pt       8.42164233       6.48298347      24.58417367        2       0.00000000      -0.21376099       0.12985554       0.25650889
Pt       0.00337329       0.00216550      26.89539099        1       0.00000000      -0.00762820      -0.00179353       0.00759391
Pt       2.80978025       0.00885138      27.14690537        1       0.00000000      -0.01025493      -0.00880177       0.00311539
Pt       5.61453822       0.00195100      26.89656196        1       0.00000000       0.00161072      -0.00316099       0.00778246
Pt       1.40434178       2.43978028      26.89599589        1       0.00000000       0.01158834      -0.00198498       0.00468177
Pt       4.20825098       2.43866795      26.89493044        1       0.00000000       0.00341930      -0.00004548       0.00740316
Pt       7.01922077       2.43314803      26.90685375        1       0.00000000      -0.00416673       0.01503340      -0.00150996
Pt       2.80813968       4.86961540      26.91365540        1       0.00000000      -0.00108805      -0.00830633      -0.00344378
Pt       5.61240603       4.86909045      26.89997730        1       0.00000000       0.00350644      -0.00007643      -0.00758834
Pt       8.42397867       4.87131704      26.89874842        1       0.00000000      -0.00402068      -0.00875943      -0.00367414
C        2.79902484       0.02094763      29.23072280        0       1.00000000       0.02304812      -0.04009582       0.00768115
H        3.67921384      -0.53962168      29.58243656        0       0.00000000      -0.02507398       0.02019078      -0.02096712
H        1.87019125      -0.46141690      29.57032337        0       0.00000000       0.00757673       0.00873053      -0.00355124
H        2.84234728       1.06665489      29.56876437        0       0.00000000      -0.00110068       0.00188167      -0.00225366
