40
Lattice="8.421641763931781 0.0 0.0 4.2108208819658905 7.293355709136913 0.0 0.0 0.0 46.87624170604845" Properties=species:S:1:pos:R:3:tags:I:1:initial_magmoms:R:1:forces:R:3 charge=0 spin=0 energy=-206.15261389560425 free_energy=-206.15261389560425 stress="0.010550734587013721 1.4761868442292325e-05 3.7591355066979304e-05 1.4761868442292325e-05 0.009660583920776844 0.00012731910101138055 3.7591355066979304e-05 0.00012731910101138055 -0.0002939473488368094" pbc="T T T"
Pt       0.00000003       0.00000007      19.95723551        4       0.00000000       0.00040213      -0.00103038       0.01651881
Pt       2.80721399      -0.00000008      19.95723555        4       0.00000000       0.00023989      -0.00261607       0.01566885
Pt       5.61442774      -0.00000012      19.95723554        4       0.00000000       0.00053461      -0.00916558       0.02574645
Pt       1.40360717       2.43111834      19.95723540        4       0.00000000      -0.00096755       0.00112952       0.02273607
Pt       4.21082076       2.43111843      19.95723549        4       0.00000000      -0.00020843      -0.00000861       0.02358577
Pt       7.01803486       2.43111843      19.95723547        4       0.00000000       0.00107100       0.00133991       0.01984426
Pt       2.80721421       4.86223732      19.95723529        4       0.00000000       0.01391654       0.00151079      -0.00008577
Pt       5.61442794       4.86223731      19.95723540        4       0.00000000      -0.00084362       0.00322619       0.01316784
Pt       8.42164146       4.86223722      19.95723551        4       0.00000000      -0.01547165       0.00313257      -0.00330330
Pt       1.40360717       0.81037261      22.29206807        3       0.00000000       0.00233693       0.01566762      -0.03131639
Pt       4.21082122       0.81037254      22.29206808        3       0.00000000      -0.00074380      -0.00939002      -0.03775612
Pt       7.01803484       0.81037259      22.29206812        3       0.00000000       0.00422710      -0.00171453      -0.03172952
Pt       2.80721436       3.24149112      22.29206782        3       0.00000000      -0.00516535       0.03949301      -0.09146427
Pt       5.61442774       3.24149129      22.29206807        3       0.00000000      -0.00041467       0.00343246      -0.07177489
Pt       8.42164142       3.24149141      22.29206809        3       0.00000000       0.00216015       0.04436460      -0.09633992
Pt       4.21082097       5.67261006      22.29206778        3       0.00000000      -0.02131141      -0.01250320      -0.06338573
Pt       7.01803483       5.67260987      22.29206781        3       0.00000000       0.02010516      -0.00905436      -0.06961461
Pt       9.82524821       5.67261060      22.29206810        3       0.00000000      -0.00381199      -0.04312277      -0.10587071
Pt      -0.00000049       1.62074561      24.58417352        2       0.00000000      -0.04146475      -0.14614350       0.08342895
Pt       2.80721437       1.62074550      24.58417378        2       0.00000000       0.04028716      -0.13088460       0.05959721
Pt       5.61442785       1.62074544      24.58417371        2       0.00000000      -0.00331979       0.00034235      -0.04682748
Pt       1.40360647       4.05186444      24.58417385        2       0.00000000      -0.00106777       0.08973878      -0.20267761
Pt       4.21082100       4.05186404      24.58417381        2       0.00000000      -0.06026097      -0.01883801      -0.09271614
Pt       7.01803473       4.05186412      24.58417379        2       0.00000000       0.06611539      -0.01342702      -0.09336224
Pt       2.80721284       6.48298340      24.58417356        2       0.00000000       0.20067930       0.12549618       0.31919497
Pt       5.61442787       6.48298334      24.58417388        2       0.00000000       0.00040916       0.07404784       0.09509537
Pt       8.42164233       6.48298347      24.58417367        2       0.00000000      -0.19090140       0.13241491       0.30202606
Pt       0.02550879      -0.02363039      27.01331055        1       0.00000000       0.02738616      -0.01506190       0.00545386
Pt       2.79107516      -0.02275425      27.00454231        1       0.00000000      -0.00166036      -0.01629751      -0.01593812
Pt       5.61711230       0.00054049      26.90339318        1       0.00000000       0.00569910      -0.02512970       0.02558566
Pt       1.40375225       2.48318943      26.86522837        1       0.00000000       0.00020489      -0.01848638       0.01489954
Pt       4.21528401       2.41789143      26.91010697        1       0.00000000      -0.03676544       0.00478131       0.00267599
Pt       7.01529229       2.41779725      26.91018837        1       0.00000000       0.04169102       0.00190516       0.00194431
Pt       2.80205106       4.86759400      26.91675656        1       0.00000000       0.03261900      -0.02927089       0.00095239
Pt       5.61588254       4.80397337      26.87906092        1       0.00000000       0.00444675      -0.01186788       0.00483736
Pt       8.43032583       4.86810228      26.91668292        1       0.00000000      -0.03072589      -0.03066215       0.00127413
C        1.39530587      -0.04884661      28.89923469        0       1.00000000      -0.02386004       0.00506869       0.00356943
H        1.40020310      -1.06238648      29.31569923        0       0.00000000      -0.00970849       0.00153475      -0.02305344
H        0.52001331       0.53155166      29.25371235        0       0.00000000       0.00155452       0.00497455       0.03324168
H        2.28111482       0.52796897      29.23716664        0       0.00000000      -0.01741225      -0.00892626      -0.01382863
