40
Lattice="8.421641763931781 0.0 0.0 4.2108208819658905 7.293355709136913 0.0 0.0 0.0 46.87624170604845" Properties=species:S:1:pos:R:3:tags:I:1:initial_magmoms:R:1:forces:R:3 charge=0 spin=0 energy=-205.99748732394897 free_energy=-205.99748732394897 stress="0.009919541887938976 3.6926931556990894e-07 6.535403258567385e-07 3.6926931556990894e-07 0.009885011240839958 1.3668648534803651e-05 6.535403258567385e-07 1.3668648534803651e-05 -0.00018782888946589082" pbc="T T T"
Pt       0.00000003       0.00000007      19.95723551        4       0.00000000      -0.00067191      -0.00234231       0.01797158
Pt       2.80721399      -0.00000008      19.95723555        4       0.00000000       0.00231917       0.00031219       0.01794249
Pt       5.61442774      -0.00000012      19.95723554        4       0.00000000       0.00181664       0.00626249       0.00719523
Pt       1.40360717       2.43111834      19.95723540        4       0.00000000      -0.00155491       0.00157447       0.01811908
Pt       4.21082076       2.43111843      19.95723549        4       0.00000000       0.00100478      -0.00061741       0.01742090
Pt       7.01803486       2.43111843      19.95723547        4       0.00000000       0.00006178       0.00107302       0.01734840
Pt       2.80721421       4.86223732      19.95723529        4       0.00000000       0.00548967      -0.00521538       0.00655465
Pt       5.61442794       4.86223731      19.95723540        4       0.00000000      -0.00096383      -0.00056330       0.01710676
Pt       8.42164146       4.86223722      19.95723551        4       0.00000000      -0.00733718      -0.00209926       0.00649578
Pt       1.40360717       0.81037261      22.29206807        3       0.00000000       0.00001710      -0.00010385      -0.04292744
Pt       4.21082122       0.81037254      22.29206808        3       0.00000000       0.01549164      -0.01161422      -0.07452087
Pt       7.01803484       0.81037259      22.29206812        3       0.00000000      -0.01404383      -0.00786422      -0.07328282
Pt       2.80721436       3.24149112      22.29206782        3       0.00000000       0.00074034       0.01594492      -0.07513184
Pt       5.61442774       3.24149129      22.29206807        3       0.00000000      -0.00011776      -0.00019900      -0.06921426
Pt       8.42164142       3.24149141      22.29206809        3       0.00000000       0.00146392       0.01902578      -0.07617557
Pt       4.21082097       5.67261006      22.29206778        3       0.00000000      -0.01757624      -0.00877299      -0.07481034
Pt       7.01803483       5.67260987      22.29206781        3       0.00000000       0.01381557      -0.00921240      -0.07401666
Pt       9.82524821       5.67261060      22.29206810        3       0.00000000      -0.00001478      -0.00289234      -0.04303286
Pt      -0.00000049       1.62074561      24.58417352        2       0.00000000       0.02768722      -0.02240501       0.02782384
Pt       2.80721437       1.62074550      24.58417378        2       0.00000000      -0.02977710      -0.01870780       0.02778826
Pt       5.61442785       1.62074544      24.58417371        2       0.00000000      -0.00732609      -0.02064596      -0.07351662
Pt       1.40360647       4.05186444      24.58417385        2       0.00000000      -0.00766972      -0.16098331       0.22824596
Pt       4.21082100       4.05186404      24.58417381        2       0.00000000      -0.01498998       0.01796404      -0.07354370
Pt       7.01803473       4.05186412      24.58417379        2       0.00000000       0.02213085       0.00603412      -0.07358991
Pt       2.80721284       6.48298340      24.58417356        2       0.00000000       0.15416236       0.08185304       0.24348404
Pt       5.61442787       6.48298334      24.58417388        2       0.00000000       0.00206965       0.03716177       0.03164397
Pt       8.42164233       6.48298347      24.58417367        2       0.00000000      -0.14575729       0.09531452       0.24276680
Pt      -0.03289209      -0.02326637      26.94409675        1       0.00000000       0.02040865       0.03298372      -0.01989047
Pt       2.84505244      -0.01523278      26.94392956        1       0.00000000      -0.03861297       0.00170105      -0.01844683
Pt       5.61506721       0.00051962      26.92143477        1       0.00000000      -0.00089427      -0.00824898      -0.01585464
Pt       1.39895181       2.47736332      26.93913217        1       0.00000000       0.01816907      -0.02934644      -0.02268087
Pt       4.22706212       2.44858165      26.90505646        1       0.00000000      -0.01316679      -0.02964576       0.00123744
Pt       6.99573515       2.43801752      26.90501731        1       0.00000000       0.03320799       0.00440949       0.00111442
Pt       2.80680158       4.86401931      26.92171185        1       0.00000000      -0.00752687       0.00647120      -0.01498380
Pt       5.62054566       4.84088277      26.90504302        1       0.00000000      -0.01946856       0.02696543       0.00133643
Pt       8.42166566       4.86490850      26.92172368        1       0.00000000       0.00769564       0.00601608      -0.01517063
C        1.40334357       0.80338530      28.72746945        0       1.00000000      -0.00040940      -0.00622055       0.02859687
H        0.50027727       0.29349349      29.12915237        0       0.00000000       0.02612310       0.00502610      -0.00590637
H        1.41074654       1.84378042      29.12070454        0       0.00000000      -0.00455993      -0.03176882      -0.01607286
H        2.29796590       0.27985138      29.13027714        0       0.00000000      -0.02143577       0.01337586      -0.00742328
