40
Lattice="8.421641763931781 0.0 0.0 4.2108208819658905 7.293355709136913 0.0 0.0 0.0 46.87624170604845" Properties=species:S:1:pos:R:3:tags:I:1:initial_magmoms:R:1:forces:R:3 charge=0 spin=0 energy=-206.89795042819702 free_energy=-206.89795042819702 stress="0.010363581590354443 -4.0473551621289516e-08 -1.0499706881716975e-08 -4.0473551621289516e-08 0.010363384149968624 4.612083557731239e-06 -1.0499706881716975e-08 4.612083557731239e-06 -0.000336792174493894" pbc="T T T"
Pt       0.00000003       0.00000007      19.95723551        4       0.00000000      -0.00000129      -0.00002447       0.01319212
Pt       2.80721399      -0.00000008      19.95723555        4       0.00000000      -0.00194899      -0.00474595       0.01724679
Pt       5.61442774      -0.00000012      19.95723554        4       0.00000000       0.00197955      -0.00329985       0.01934492
Pt       1.40360717       2.43111834      19.95723540        4       0.00000000      -0.00387297      -0.00007144       0.01932232
Pt       4.21082076       2.43111843      19.95723549        4       0.00000000      -0.00001055      -0.00000025       0.02529586
Pt       7.01803486       2.43111843      19.95723547        4       0.00000000       0.00511818       0.00063107       0.01726707
Pt       2.80721421       4.86223732      19.95723529        4       0.00000000      -0.00317882       0.00412145       0.01732676
Pt       5.61442794       4.86223731      19.95723540        4       0.00000000       0.00190395       0.00340282       0.01936082
Pt       8.42164146       4.86223722      19.95723551        4       0.00000000       0.00000568       0.00008047      -0.03673775
Pt       1.40360717       0.81037261      22.29206807        3       0.00000000      -0.00029538      -0.00348241      -0.00252535
Pt       4.21082122       0.81037254      22.29206808        3       0.00000000       0.00441038      -0.01135688      -0.06727250
Pt       7.01803484       0.81037259      22.29206812        3       0.00000000       0.00307848       0.00139585      -0.00258176
Pt       2.80721436       3.24149112      22.29206782        3       0.00000000      -0.01208758       0.00186018      -0.06698294
Pt       5.61442774       3.24149129      22.29206807        3       0.00000000       0.00767595       0.00958673      -0.06701179
Pt       8.42164142       3.24149141      22.29206809        3       0.00000000      -0.00178976       0.07603410      -0.15051240
Pt       4.21082097       5.67261006      22.29206778        3       0.00000000      -0.00278533       0.00197775      -0.00252053
Pt       7.01803483       5.67260987      22.29206781        3       0.00000000       0.06648625      -0.03632399      -0.15031141
Pt       9.82524821       5.67261060      22.29206810        3       0.00000000      -0.06470124      -0.03941410      -0.15036106
Pt      -0.00000049       1.62074561      24.58417352        2       0.00000000      -0.00252019      -0.24245091       0.25301895
Pt       2.80721437       1.62074550      24.58417378        2       0.00000000      -0.00799213      -0.00437352      -0.01731303
Pt       5.61442785       1.62074544      24.58417371        2       0.00000000       0.00756196      -0.00482281      -0.01726340
Pt       1.40360647       4.05186444      24.58417385        2       0.00000000      -0.01030113       0.00251838      -0.04734390
Pt       4.21082100       4.05186404      24.58417381        2       0.00000000       0.00039477       0.00842916      -0.01898008
Pt       7.01803473       4.05186412      24.58417379        2       0.00000000       0.00791006       0.00687655      -0.04754634
Pt       2.80721284       6.48298340      24.58417356        2       0.00000000       0.21240921       0.11994639       0.25273806
Pt       5.61442787       6.48298334      24.58417388        2       0.00000000      -0.20983218       0.12442356       0.25256151
Pt       8.42164233       6.48298347      24.58417367        2       0.00000000       0.00238497      -0.01021218      -0.04822703
Pt       0.00000361       0.00207633      27.14278615        1       0.00000000       0.00001893      -0.00395953       0.00600563
Pt       2.80634276      -0.00482924      26.89809459        1       0.00000000       0.00624580       0.00442885      -0.00215154
Pt       5.61547735      -0.00267539      26.89826299        1       0.00000000      -0.00693039       0.00243381      -0.00315777
Pt       1.40157447       2.43136998      26.89856075        1       0.00000000       0.00281006       0.00646178      -0.00428451
Pt       4.21081105       2.43097973      26.90645364        1       0.00000000       0.00003976       0.00001946      -0.00081915
Pt       7.02184817       2.43258690      26.89837162        1       0.00000000      -0.00425558       0.00489942      -0.00337143
Pt       2.80451188       4.86529675      26.89788126        1       0.00000000      -0.00254921      -0.00580893      -0.00206077
Pt       5.61519156       4.86436292      26.89798903        1       0.00000000       0.00459539      -0.00539801      -0.00295171
Pt       8.42164262       4.86210405      26.91182791        1       0.00000000       0.00003872       0.00013152       0.00178074
C        0.00000434       0.00076933      29.22676574        0       1.00000000      -0.00008178      -0.00222365      -0.02367373
H        0.90561081      -0.52333921      29.56529974        0       0.00000000       0.00036274      -0.00051784       0.01105309
H       -0.90570917      -0.52314519      29.56530709        0       0.00000000      -0.00063088      -0.00029309       0.01104314
H        0.00007994       1.04531579      29.57117202        0       0.00000000       0.00033453      -0.00087930      -0.00059610
