40
Lattice="8.421641763931781 0.0 0.0 4.2108208819658905 7.293355709136913 0.0 0.0 0.0 46.87624170604845" Properties=species:S:1:pos:R:3:tags:I:1:initial_magmoms:R:1:forces:R:3 charge=0 spin=0 energy=-206.89771582431518 free_energy=-206.89771582431518 stress="0.01036451943218708 1.0428707675202986e-08 -1.2921388403697165e-09 1.0428707675202986e-08 0.010364656336605549 2.2696167434332892e-07 -1.2921388403697165e-09 2.2696167434332892e-07 -0.0003257985517848283" pbc="T T T"
Pt       0.00000003       0.00000007      19.95723551        4       0.00000000       0.00000113       0.00000068       0.01352954
Pt       2.80721399      -0.00000008      19.95723555        4       0.00000000      -0.00176779      -0.00484142       0.01707816
Pt       5.61442774      -0.00000012      19.95723554        4       0.00000000       0.00187123      -0.00343979       0.01921252
Pt       1.40360717       2.43111834      19.95723540        4       0.00000000      -0.00392947       0.00011930       0.01915648
Pt       4.21082076       2.43111843      19.95723549        4       0.00000000       0.00000126      -0.00000041       0.02539380
Pt       7.01803486       2.43111843      19.95723547        4       0.00000000       0.00509481       0.00088039       0.01707044
Pt       2.80721421       4.86223732      19.95723529        4       0.00000000      -0.00333093       0.00396873       0.01716304
Pt       5.61442794       4.86223731      19.95723540        4       0.00000000       0.00205678       0.00333052       0.01920230
Pt       8.42164146       4.86223722      19.95723551        4       0.00000000       0.00000262      -0.00000708      -0.03641211
Pt       1.40360717       0.81037261      22.29206807        3       0.00000000      -0.00047387      -0.00356972      -0.00393932
Pt       4.21082122       0.81037254      22.29206808        3       0.00000000       0.00439193      -0.01119625      -0.06744953
Pt       7.01803484       0.81037259      22.29206812        3       0.00000000       0.00330071       0.00142413      -0.00395525
Pt       2.80721436       3.24149112      22.29206782        3       0.00000000      -0.01191138       0.00178362      -0.06722955
Pt       5.61442774       3.24149129      22.29206807        3       0.00000000       0.00752035       0.00944575      -0.06725347
Pt       8.42164142       3.24149141      22.29206809        3       0.00000000      -0.00181631       0.07551285      -0.14930247
Pt       4.21082097       5.67261006      22.29206778        3       0.00000000      -0.00282896       0.00215892      -0.00372866
Pt       7.01803483       5.67260987      22.29206781        3       0.00000000       0.06628464      -0.03619607      -0.14932671
Pt       9.82524821       5.67261060      22.29206810        3       0.00000000      -0.06446300      -0.03931075      -0.14931931
Pt      -0.00000049       1.62074561      24.58417352        2       0.00000000      -0.00309361      -0.24661925       0.25709862
Pt       2.80721437       1.62074550      24.58417378        2       0.00000000      -0.00411769      -0.00201762      -0.01768684
Pt       5.61442785       1.62074544      24.58417371        2       0.00000000       0.00362925      -0.00261819      -0.01769955
Pt       1.40360647       4.05186444      24.58417385        2       0.00000000      -0.01752540       0.00771886      -0.04998764
Pt       4.21082100       4.05186404      24.58417381        2       0.00000000       0.00041740       0.00447647      -0.01763907
Pt       7.01803473       4.05186412      24.58417379        2       0.00000000       0.01566621       0.01120939      -0.05012612
Pt       2.80721284       6.48298340      24.58417356        2       0.00000000       0.21498658       0.12057284       0.25748369
Pt       5.61442787       6.48298334      24.58417388        2       0.00000000      -0.21185787       0.12601833       0.25736350
Pt       8.42164233       6.48298347      24.58417367        2       0.00000000       0.00189066      -0.01895768      -0.04997864
Pt       0.00000011       0.00003742      27.14560093        1       0.00000000      -0.00000416      -0.00009904      -0.00959737
Pt       2.80971802      -0.00333210      26.89599593        1       0.00000000      -0.01561970      -0.00264778       0.00641131
Pt       5.61218386      -0.00219265      26.89569760        1       0.00000000       0.01470536      -0.00188591       0.00688874
Pt       1.40284805       2.43408680      26.89565077        1       0.00000000      -0.00886740      -0.01174373       0.00671442
Pt       4.21082037       2.43108574      26.91321749        1       0.00000000      -0.00001531       0.00003139      -0.01895476
Pt       7.01964197       2.43488123      26.89592883        1       0.00000000       0.00996342      -0.01216312       0.00616190
Pt       2.80310228       4.86168140      26.89597131        1       0.00000000       0.00568962       0.01506963       0.00611512
Pt       5.61743722       4.86133913      26.89562963        1       0.00000000      -0.00587253       0.01390671       0.00655838
Pt       8.42164531       4.86220557      26.91986664        1       0.00000000       0.00001644       0.00004878      -0.01997711
C       -0.00000449       0.00035326      29.22906322        0       1.00000000       0.00000985      -0.00016568      -0.02308304
H        0.90519425      -0.52187952      29.57077387        0       0.00000000       0.01102052      -0.00665309       0.00478292
H       -0.90489335      -0.52241596      29.57077182        0       0.00000000      -0.01125490      -0.00628269       0.00478351
H       -0.00031655       1.04542375      29.57069921        0       0.00000000       0.00022964       0.01273790       0.00447798
