40
Lattice="8.421641763931781 0.0 0.0 4.2108208819658905 7.293355709136913 0.0 0.0 0.0 46.87624170604845" Properties=species:S:1:pos:R:3:tags:I:1:initial_magmoms:R:1:forces:R:3 charge=0 spin=0 energy=-206.89749266452515 free_energy=-206.89749266452515 stress="0.010361690074205399 -8.147799803737144e-07 4.15097247241647e-07 -8.147799803737144e-07 0.010353490710258484 -7.136794920370448e-06 4.15097247241647e-07 -7.136794920370448e-06 -0.00037486833753064275" pbc="T T T"
Pt       0.00000003       0.00000007      19.95723551        4       0.00000000       0.00002118      -0.00014805       0.01359829
Pt       2.80721399      -0.00000008      19.95723555        4       0.00000000      -0.00158786      -0.00548431       0.01704349
Pt       5.61442774      -0.00000012      19.95723554        4       0.00000000       0.00176664      -0.00394257       0.01914696
Pt       1.40360717       2.43111834      19.95723540        4       0.00000000      -0.00405656      -0.00008657       0.01923500
Pt       4.21082076       2.43111843      19.95723549        4       0.00000000       0.00002715      -0.00016801       0.02544185
Pt       7.01803486       2.43111843      19.95723547        4       0.00000000       0.00531069       0.00070085       0.01718473
Pt       2.80721421       4.86223732      19.95723529        4       0.00000000      -0.00366019       0.00389462       0.01720415
Pt       5.61442794       4.86223731      19.95723540        4       0.00000000       0.00235203       0.00323122       0.01923735
Pt       8.42164146       4.86223722      19.95723551        4       0.00000000       0.00006048       0.00038336      -0.03661290
Pt       1.40360717       0.81037261      22.29206807        3       0.00000000      -0.00060527      -0.00446207      -0.00409776
Pt       4.21082122       0.81037254      22.29206808        3       0.00000000       0.00413903      -0.01140971      -0.06762090
Pt       7.01803484       0.81037259      22.29206812        3       0.00000000       0.00328757       0.00038096      -0.00414322
Pt       2.80721436       3.24149112      22.29206782        3       0.00000000      -0.01145022       0.00096895      -0.06713559
Pt       5.61442774       3.24149129      22.29206807        3       0.00000000       0.00717357       0.00815314      -0.06712445
Pt       8.42164142       3.24149141      22.29206809        3       0.00000000      -0.00171967       0.07505551      -0.14964664
Pt       4.21082097       5.67261006      22.29206778        3       0.00000000      -0.00272881       0.00114941      -0.00544489
Pt       7.01803483       5.67260987      22.29206781        3       0.00000000       0.06576402      -0.03672137      -0.14800604
Pt       9.82524821       5.67261060      22.29206810        3       0.00000000      -0.06403704      -0.03988038      -0.14805812
Pt      -0.00000049       1.62074561      24.58417352        2       0.00000000      -0.00366200      -0.24353194       0.26056406
Pt       2.80721437       1.62074550      24.58417378        2       0.00000000      -0.00838733      -0.00163751      -0.01744992
Pt       5.61442785       1.62074544      24.58417371        2       0.00000000       0.00844655      -0.00150024      -0.01735891
Pt       1.40360647       4.05186444      24.58417385        2       0.00000000      -0.02260671       0.01207464      -0.05659596
Pt       4.21082100       4.05186404      24.58417381        2       0.00000000       0.00021727       0.00820086      -0.02297469
Pt       7.01803473       4.05186412      24.58417379        2       0.00000000       0.01994801       0.01649601      -0.05660946
Pt       2.80721284       6.48298340      24.58417356        2       0.00000000       0.21318787       0.12512980       0.24505827
Pt       5.61442787       6.48298334      24.58417388        2       0.00000000      -0.20948751       0.13115939       0.24508327
Pt       8.42164233       6.48298347      24.58417367        2       0.00000000       0.00246030      -0.02210134      -0.05601649
Pt       0.00001325       0.00330543      27.14204436        1       0.00000000      -0.00013429      -0.00171642      -0.01722191
Pt       2.81103478      -0.00189864      26.89487577        1       0.00000000      -0.02196275       0.00524812       0.01165826
Pt       5.61112615      -0.00073484      26.89422364        1       0.00000000       0.02100351       0.00569375       0.01282609
Pt       1.40359096       2.44050151      26.89509566        1       0.00000000      -0.01605516      -0.02852309       0.00852763
Pt       4.21083508       2.43346666      26.91094738        1       0.00000000       0.00010024       0.00110993      -0.01407150
Pt       7.01890804       2.44155245      26.89563087        1       0.00000000       0.01662724      -0.02900439       0.00748904
Pt       2.80309332       4.86643265      26.89345726        1       0.00000000       0.00324418       0.00943715       0.01499812
Pt       5.61729386       4.86630542      26.89297528        1       0.00000000      -0.00321264       0.00847528       0.01541086
Pt       8.42159997       4.86508007      26.92288868        1       0.00000000       0.00022284      -0.00033058      -0.02437360
C       -0.00002916      -0.00998070      29.22411994        0       1.00000000       0.00022267       0.00485648       0.01373537
H       -0.00074509      -1.05724734      29.56315490        0       0.00000000      -0.00088920       0.02676178      -0.00824622
H       -0.90562115       0.51287112      29.56707512        0       0.00000000       0.01559304      -0.00904270       0.00268231
H        0.90640413       0.51139343      29.56706992        0       0.00000000      -0.01493298      -0.00886999       0.00268415
