40
Lattice="8.421641763931781 0.0 0.0 4.2108208819658905 7.293355709136913 0.0 0.0 0.0 46.87624170604845" Properties=species:S:1:pos:R:3:tags:I:1:initial_magmoms:R:1:forces:R:3 charge=0 spin=0 energy=-206.89634253329956 free_energy=-206.89634253329956 stress="0.010375067591667175 1.6780958844719862e-07 -5.9229647852987455e-09 1.6780958844719862e-07 0.01037492323666811 1.2104794677725295e-07 -5.9229647852987455e-09 1.2104794677725295e-07 -0.0002854123304132372" pbc="T T T"
Pt       0.00000003       0.00000007      19.95723551        4       0.00000000       0.00000131      -0.00000329       0.01343243
Pt       2.80721399      -0.00000008      19.95723555        4       0.00000000      -0.00170565      -0.00512608       0.01724949
Pt       5.61442774      -0.00000012      19.95723554        4       0.00000000       0.00187964      -0.00345267       0.01955294
Pt       1.40360717       2.43111834      19.95723540        4       0.00000000      -0.00394180       0.00010823       0.01950149
Pt       4.21082076       2.43111843      19.95723549        4       0.00000000       0.00000076      -0.00000441       0.02537328
Pt       7.01803486       2.43111843      19.95723547        4       0.00000000       0.00530763       0.00106582       0.01724533
Pt       2.80721421       4.86223732      19.95723529        4       0.00000000      -0.00360364       0.00405329       0.01733392
Pt       5.61442794       4.86223731      19.95723540        4       0.00000000       0.00206151       0.00334227       0.01954636
Pt       8.42164146       4.86223722      19.95723551        4       0.00000000       0.00000360       0.00000806      -0.03671144
Pt       1.40360717       0.81037261      22.29206807        3       0.00000000      -0.00031687      -0.00410355      -0.00433266
Pt       4.21082122       0.81037254      22.29206808        3       0.00000000       0.00402472      -0.01100178      -0.06739602
Pt       7.01803484       0.81037259      22.29206812        3       0.00000000       0.00366811       0.00179853      -0.00436389
Pt       2.80721436       3.24149112      22.29206782        3       0.00000000      -0.01155310       0.00198791      -0.06716267
Pt       5.61442774       3.24149129      22.29206807        3       0.00000000       0.00752856       0.00901212      -0.06719329
Pt       8.42164142       3.24149141      22.29206809        3       0.00000000      -0.00161599       0.07513036      -0.14874251
Pt       4.21082097       5.67261006      22.29206778        3       0.00000000      -0.00335293       0.00225728      -0.00417786
Pt       7.01803483       5.67260987      22.29206781        3       0.00000000       0.06583100      -0.03618171      -0.14872687
Pt       9.82524821       5.67261060      22.29206810        3       0.00000000      -0.06421227      -0.03894872      -0.14872679
Pt      -0.00000049       1.62074561      24.58417352        2       0.00000000      -0.00166324      -0.24032758       0.25727594
Pt       2.80721437       1.62074550      24.58417378        2       0.00000000      -0.01023251      -0.00212018      -0.01094105
Pt       5.61442785       1.62074544      24.58417371        2       0.00000000       0.00681025      -0.00780279      -0.01097615
Pt       1.40360647       4.05186444      24.58417385        2       0.00000000      -0.01816247       0.00310885      -0.04768881
Pt       4.21082100       4.05186404      24.58417381        2       0.00000000       0.00333517       0.00982545      -0.01109561
Pt       7.01803473       4.05186412      24.58417379        2       0.00000000       0.01199540       0.01407523      -0.04786081
Pt       2.80721284       6.48298340      24.58417356        2       0.00000000       0.20884535       0.11880919       0.25741985
Pt       5.61442787       6.48298334      24.58417388        2       0.00000000      -0.20715706       0.12180355       0.25727585
Pt       8.42164233       6.48298347      24.58417367        2       0.00000000       0.00621429      -0.01711473      -0.04760987
Pt       0.00000032       0.00019146      27.13942053        1       0.00000000      -0.00001561      -0.00021234       0.03356570
Pt       2.81150477      -0.00450939      26.89765492        1       0.00000000      -0.01623423       0.00285283      -0.00525968
Pt       5.61362258      -0.00327874      26.89933816        1       0.00000000       0.01408502       0.00314319      -0.00353356
Pt       1.40116754       2.43349048      26.89929135        1       0.00000000      -0.00439636      -0.01380937      -0.00371102
Pt       4.21082350       2.43114599      26.90936914        1       0.00000000      -0.00004551      -0.00002057      -0.01074056
Pt       7.01977503       2.43712815      26.89757971        1       0.00000000       0.00582925      -0.01553561      -0.00528315
Pt       2.80119263       4.86083689      26.89758453        1       0.00000000       0.01042507       0.01282435      -0.00526672
Pt       5.61765980       4.86325051      26.89919539        1       0.00000000      -0.00970295       0.01082603      -0.00370362
Pt       8.42164020       4.86225598      26.91873704        1       0.00000000       0.00005981       0.00009052      -0.01367935
C        0.00000046      -0.00005565      29.22571195        0       1.00000000       0.00000832       0.00008561      -0.02850836
H       -0.52272323       0.90485115      29.56834361        0       0.00000000      -0.00265419       0.00403448      -0.00066630
H        1.04518735       0.00019017      29.56788500        0       0.00000000       0.00456810      -0.00060070      -0.00045545
H       -0.52246128      -0.90546324      29.56743155        0       0.00000000      -0.00191636      -0.00387705      -0.00025861
