40
Lattice="8.421641763931781 0.0 0.0 4.2108208819658905 7.293355709136913 0.0 0.0 0.0 46.87624170604845" Properties=species:S:1:pos:R:3:tags:I:1:initial_magmoms:R:1:forces:R:3 charge=0 spin=0 energy=-206.89809538669311 free_energy=-206.89809538669311 stress="0.010355984792113304 -5.593180674168252e-08 1.5391975694001303e-08 -5.593180674168252e-08 0.010354893282055855 2.755465402515256e-06 1.5391975694001303e-08 2.755465402515256e-06 -0.0003516938886605203" pbc="T T T"
Pt       0.00000003       0.00000007      19.95723551        4       0.00000000      -0.00000636      -0.00002909       0.01328495
Pt       2.80721399      -0.00000008      19.95723555        4       0.00000000      -0.00192405      -0.00497099       0.01727491
Pt       5.61442774      -0.00000012      19.95723554        4       0.00000000       0.00194711      -0.00340376       0.01934293
Pt       1.40360717       2.43111834      19.95723540        4       0.00000000      -0.00401413       0.00006498       0.01935332
Pt       4.21082076       2.43111843      19.95723549        4       0.00000000      -0.00002439       0.00000734       0.02542970
Pt       7.01803486       2.43111843      19.95723547        4       0.00000000       0.00536806       0.00083519       0.01733659
Pt       2.80721421       4.86223732      19.95723529        4       0.00000000      -0.00342802       0.00423398       0.01740625
Pt       5.61442794       4.86223731      19.95723540        4       0.00000000       0.00203553       0.00347221       0.01940215
Pt       8.42164146       4.86223722      19.95723551        4       0.00000000       0.00000907       0.00017846      -0.03683421
Pt       1.40360717       0.81037261      22.29206807        3       0.00000000      -0.00026164      -0.00333333      -0.00310851
Pt       4.21082122       0.81037254      22.29206808        3       0.00000000       0.00425236      -0.01101641      -0.06698205
Pt       7.01803484       0.81037259      22.29206812        3       0.00000000       0.00300602       0.00143645      -0.00315181
Pt       2.80721436       3.24149112      22.29206782        3       0.00000000      -0.01170611       0.00189689      -0.06655979
Pt       5.61442774       3.24149129      22.29206807        3       0.00000000       0.00749425       0.00935084      -0.06662197
Pt       8.42164142       3.24149141      22.29206809        3       0.00000000      -0.00178743       0.07622616      -0.15047242
Pt       4.21082097       5.67261006      22.29206778        3       0.00000000      -0.00272042       0.00199023      -0.00317616
Pt       7.01803483       5.67260987      22.29206781        3       0.00000000       0.06625490      -0.03609740      -0.15048030
Pt       9.82524821       5.67261060      22.29206810        3       0.00000000      -0.06449523      -0.03917679      -0.15054989
Pt      -0.00000049       1.62074561      24.58417352        2       0.00000000      -0.00312628      -0.24350356       0.25029275
Pt       2.80721437       1.62074550      24.58417378        2       0.00000000      -0.01090381      -0.00694268      -0.01875559
Pt       5.61442785       1.62074544      24.58417371        2       0.00000000       0.01085236      -0.00669236      -0.01872836
Pt       1.40360647       4.05186444      24.58417385        2       0.00000000      -0.01409371       0.00416449      -0.04719216
Pt       4.21082100       4.05186404      24.58417381        2       0.00000000      -0.00007492       0.01281904      -0.01924418
Pt       7.01803473       4.05186412      24.58417379        2       0.00000000       0.01152124       0.00891554      -0.04737753
Pt       2.80721284       6.48298340      24.58417356        2       0.00000000       0.21316189       0.11898733       0.25235665
Pt       5.61442787       6.48298334      24.58417388        2       0.00000000      -0.20996654       0.12462536       0.25217372
Pt       8.42164233       6.48298347      24.58417367        2       0.00000000       0.00262661      -0.01428676      -0.04740378
Pt       0.00002814       0.00374461      27.14358518        1       0.00000000      -0.00012053      -0.01778816      -0.01334120
Pt       2.80667938      -0.00455796      26.89793796        1       0.00000000       0.00397467      -0.00298060      -0.00142739
Pt       5.61533560      -0.00287272      26.89751734        1       0.00000000      -0.00436179      -0.00376996      -0.00078556
Pt       1.40121107       2.43095467      26.89759472        1       0.00000000       0.00002520       0.00955875      -0.00070873
Pt       4.21081946       2.43077589      26.90435562        1       0.00000000      -0.00006883       0.00080656       0.00515628
Pt       7.02168250       2.43211232      26.89800831        1       0.00000000      -0.00038895       0.00883104      -0.00153197
Pt       2.80411358       4.86412911      26.89774156        1       0.00000000      -0.00287431       0.00255842      -0.00178812
Pt       5.61586741       4.86360318      26.89718888        1       0.00000000       0.00393138       0.00257448      -0.00074758
Pt       8.42167177       4.86188661      26.91484804        1       0.00000000      -0.00013586       0.00110549      -0.00657933
C       -0.00001457       0.00123148      29.22518324        0       1.00000000       0.00049864      -0.00651992       0.01246422
H       -0.00084749      -1.04429171      29.56628043        0       0.00000000      -0.00064686      -0.00846380       0.00162964
H       -0.90466120       0.52341810      29.56907929        0       0.00000000      -0.00682292       0.00739477       0.00041889
H        0.90553414       0.52185736      29.56909533        0       0.00000000       0.00699393       0.00694173       0.00022572
