40
Lattice="8.421641763931781 0.0 0.0 4.2108208819658905 7.293355709136913 0.0 0.0 0.0 46.87624170604845" Properties=species:S:1:pos:R:3:tags:I:1:initial_magmoms:R:1:forces:R:3 charge=0 spin=0 energy=-206.89475943393433 free_energy=-206.89475943393433 stress="0.010365192778408527 -2.7415887871029554e-06 -1.5250575415848289e-06 -2.7415887871029554e-06 0.010314428247511387 -7.709740543759835e-07 -1.5250575415848289e-06 -7.709740543759835e-07 -0.00033803426777012646" pbc="T T T"
Pt       0.00000003       0.00000007      19.95723551        4       0.00000000       0.00170246      -0.00460912       0.01938464
Pt       2.80721399      -0.00000008      19.95723555        4       0.00000000       0.00039112      -0.00068317       0.01322204
Pt       5.61442774      -0.00000012      19.95723554        4       0.00000000      -0.00168981      -0.00600713       0.01715636
Pt       1.40360717       2.43111834      19.95723540        4       0.00000000       0.00529397       0.00001935       0.01735347
Pt       4.21082076       2.43111843      19.95723549        4       0.00000000      -0.00413911      -0.00093629       0.01906784
Pt       7.01803486       2.43111843      19.95723547        4       0.00000000       0.00042991      -0.00109005       0.02515820
Pt       2.80721421       4.86223732      19.95723529        4       0.00000000       0.00024760      -0.00035903      -0.03667651
Pt       5.61442794       4.86223731      19.95723540        4       0.00000000      -0.00331997       0.00293903       0.01753606
Pt       8.42164146       4.86223722      19.95723551        4       0.00000000       0.00194707       0.00243026       0.01934172
Pt       1.40360717       0.81037261      22.29206807        3       0.00000000       0.00314221      -0.00176992      -0.00478945
Pt       4.21082122       0.81037254      22.29206808        3       0.00000000      -0.00139488      -0.00683963      -0.00227515
Pt       7.01803484       0.81037259      22.29206812        3       0.00000000       0.00456344      -0.01397112      -0.06586590
Pt       2.80721436       3.24149112      22.29206782        3       0.00000000      -0.00193754       0.07256290      -0.14982750
Pt       5.61442774       3.24149129      22.29206807        3       0.00000000      -0.01186603      -0.00200204      -0.06794449
Pt       8.42164142       3.24149141      22.29206809        3       0.00000000       0.00719411       0.00581938      -0.06750074
Pt       4.21082097       5.67261006      22.29206778        3       0.00000000      -0.06464197      -0.04296001      -0.14754754
Pt       7.01803483       5.67260987      22.29206781        3       0.00000000      -0.00241777      -0.00211151      -0.00550608
Pt       9.82524821       5.67261060      22.29206810        3       0.00000000       0.06573713      -0.03984346      -0.14943780
Pt      -0.00000049       1.62074561      24.58417352        2       0.00000000       0.00795388       0.00755766      -0.00738859
Pt       2.80721437       1.62074550      24.58417378        2       0.00000000      -0.00419199      -0.23615228       0.26450729
Pt       5.61442785       1.62074544      24.58417371        2       0.00000000      -0.00748032       0.00644928      -0.02932884
Pt       1.40360647       4.05186444      24.58417385        2       0.00000000       0.01260718       0.01720265      -0.05651612
Pt       4.21082100       4.05186404      24.58417381        2       0.00000000      -0.01556687       0.02246349      -0.05093204
Pt       7.01803473       4.05186412      24.58417379        2       0.00000000       0.00044884       0.02124215      -0.00785453
Pt       2.80721284       6.48298340      24.58417356        2       0.00000000       0.00669106      -0.00207607      -0.05010092
Pt       5.61442787       6.48298334      24.58417388        2       0.00000000       0.20541845       0.12511306       0.25124437
Pt       8.42164233       6.48298347      24.58417367        2       0.00000000      -0.20459132       0.13881649       0.24498855
Pt       0.00157816       0.01198851      26.90067514        1       0.00000000      -0.00530097      -0.00364380      -0.01644817
Pt       2.80589320       0.00176516      27.13805215        1       0.00000000       0.00254755       0.03542624       0.01922490
Pt       5.61890899       0.01559833      26.89670219        1       0.00000000      -0.02073941      -0.02066634       0.01478647
Pt       1.40712882       2.44884357      26.89730448        1       0.00000000       0.00425742      -0.02629875      -0.00161338
Pt       4.21156462       2.44792492      26.89603714        1       0.00000000      -0.02527621      -0.01705276      -0.00043270
Pt       7.01324132       2.44590411      26.90941607        1       0.00000000       0.03116747      -0.00230639      -0.00858166
Pt       2.80295046       4.88006163      26.91483324        1       0.00000000       0.02156162      -0.02162612      -0.00304628
Pt       5.60786919       4.87455984      26.90012281        1       0.00000000       0.01115187       0.00954906      -0.00480595
Pt       8.43032289       4.88066964      26.89656113        1       0.00000000      -0.02486540      -0.02740997      -0.00185180
C        2.80112548       0.00785312      29.22270376        0       1.00000000       0.02593233       0.02011457      -0.03174849
H        3.32451385       0.91564757      29.55379915        0       0.00000000       0.00610039       0.03090741       0.02603971
H        3.32427696      -0.89108339      29.57776824        0       0.00000000       0.00708071      -0.03578637      -0.01348785
H        1.75656179       0.01258669      29.56321623        0       0.00000000      -0.03414827      -0.00241157       0.01249691
