40
Lattice="8.421641763931781 0.0 0.0 4.2108208819658905 7.293355709136913 0.0 0.0 0.0 46.87624170604845" Properties=species:S:1:pos:R:3:tags:I:1:initial_magmoms:R:1:forces:R:3 charge=0 spin=0 energy=-205.99792029208862 free_energy=-205.99792029208862 stress="0.009844321757555008 1.1659374621331153e-07 4.7731198549172404e-08 1.1659374621331153e-07 0.009838644415140152 3.3353303479088936e-06 4.7731198549172404e-08 3.3353303479088936e-06 -0.00029701829771511257" pbc="T T T"
Pt       0.00000003       0.00000007      19.95723551        4       0.00000000      -0.00074377      -0.00203516       0.01783619
Pt       2.80721399      -0.00000008      19.95723555        4       0.00000000       0.00213329       0.00033216       0.01780534
Pt       5.61442774      -0.00000012      19.95723554        4       0.00000000       0.00167816       0.00714041       0.00676673
Pt       1.40360717       2.43111834      19.95723540        4       0.00000000      -0.00136761       0.00162515       0.01789473
Pt       4.21082076       2.43111843      19.95723549        4       0.00000000       0.00082736      -0.00051245       0.01734573
Pt       7.01803486       2.43111843      19.95723547        4       0.00000000       0.00002333       0.00090425       0.01735481
Pt       2.80721421       4.86223732      19.95723529        4       0.00000000       0.00551554      -0.00510762       0.00671750
Pt       5.61442794       4.86223731      19.95723540        4       0.00000000      -0.00082868      -0.00044870       0.01725330
Pt       8.42164146       4.86223722      19.95723551        4       0.00000000      -0.00719884      -0.00224113       0.00670749
Pt       1.40360717       0.81037261      22.29206807        3       0.00000000       0.00000449       0.00001216      -0.04305371
Pt       4.21082122       0.81037254      22.29206808        3       0.00000000       0.01558292      -0.01115460      -0.07488979
Pt       7.01803484       0.81037259      22.29206812        3       0.00000000      -0.01507143      -0.00764979      -0.07308134
Pt       2.80721436       3.24149112      22.29206782        3       0.00000000       0.00107988       0.01677008      -0.07339265
Pt       5.61442774       3.24149129      22.29206807        3       0.00000000      -0.00002016      -0.00006135      -0.06995693
Pt       8.42164142       3.24149141      22.29206809        3       0.00000000       0.00165081       0.01906084      -0.07510556
Pt       4.21082097       5.67261006      22.29206778        3       0.00000000      -0.01734338      -0.00824633      -0.07476855
Pt       7.01803483       5.67260987      22.29206781        3       0.00000000       0.01405545      -0.00942889      -0.07312950
Pt       9.82524821       5.67261060      22.29206810        3       0.00000000       0.00000691      -0.00059028      -0.04375517
Pt      -0.00000049       1.62074561      24.58417352        2       0.00000000       0.02769441      -0.01637099       0.00765484
Pt       2.80721437       1.62074550      24.58417378        2       0.00000000      -0.02747423      -0.01669718       0.00772239
Pt       5.61442785       1.62074544      24.58417371        2       0.00000000      -0.00271296      -0.02514114      -0.08288300
Pt       1.40360647       4.05186444      24.58417385        2       0.00000000      -0.00630658      -0.16492976       0.23292948
Pt       4.21082100       4.05186404      24.58417381        2       0.00000000      -0.02069149       0.01523172      -0.08223149
Pt       7.01803473       4.05186412      24.58417379        2       0.00000000       0.02335132       0.01086620      -0.08228373
Pt       2.80721284       6.48298340      24.58417356        2       0.00000000       0.14850007       0.07854646       0.23468176
Pt       5.61442787       6.48298334      24.58417388        2       0.00000000      -0.00015572       0.03207362       0.00883698
Pt       8.42164233       6.48298347      24.58417367        2       0.00000000      -0.14216056       0.08981778       0.23452768
Pt      -0.03217149      -0.01841281      26.93918687        1       0.00000000      -0.01293570      -0.00989899      -0.00885009
Pt       2.83949962      -0.01834810      26.93920354        1       0.00000000       0.01522494      -0.00577080      -0.00888814
Pt       5.61414046      -0.00068842      26.92111751        1       0.00000000       0.00185986      -0.00979419      -0.01550301
Pt       1.40355386       2.46996774      26.93821024        1       0.00000000      -0.00230180       0.01602025      -0.00952019
Pt       4.22865929       2.44345034      26.90192339        1       0.00000000      -0.01541291      -0.00962285       0.01659122
Pt       6.99860438       2.44060294      26.90191644        1       0.00000000       0.01674629      -0.00707752       0.01658701
Pt       2.80677441       4.86369971      26.92137085        1       0.00000000      -0.01031863       0.00236840      -0.01657898
Pt       5.61607261       4.84056926      26.90211254        1       0.00000000      -0.00145298       0.02048450       0.01609984
Pt       8.42238519       4.86318980      26.92136711        1       0.00000000       0.00860403       0.00545077      -0.01656242
C        1.40357736       0.80990294      28.72973355        0       1.00000000      -0.00018086       0.00275594      -0.04445077
H        2.30582333       0.29832420      29.12477749        0       0.00000000       0.01701559      -0.01065172       0.02335545
H        0.50872466       0.28547695      29.12477707        0       0.00000000      -0.01686695      -0.01032403       0.02338056
H        1.39617154       1.84835088      29.12211271        0       0.00000000      -0.00000939       0.01429462       0.02083648
