40
Lattice="8.421641763931781 0.0 0.0 4.2108208819658905 7.293355709136913 0.0 0.0 0.0 46.87624170604845" Properties=species:S:1:pos:R:3:tags:I:1:initial_magmoms:R:1:forces:R:3 charge=0 spin=0 energy=-206.89616896457397 free_energy=-206.89616896457397 stress="0.010375076904892921 1.9425441166731616e-07 1.6363179256018157e-08 1.9425441166731616e-07 0.010375230573117733 -4.713276950951695e-07 1.6363179256018157e-08 -4.713276950951695e-07 -0.000285132642602548" pbc="T T T"
Pt       0.00000003       0.00000007      19.95723551        4       0.00000000       0.00000152       0.00000219       0.01344835
Pt       2.80721399      -0.00000008      19.95723555        4       0.00000000      -0.00174224      -0.00490763       0.01744703
Pt       5.61442774      -0.00000012      19.95723554        4       0.00000000       0.00181275      -0.00372691       0.01930154
Pt       1.40360717       2.43111834      19.95723540        4       0.00000000      -0.00414749       0.00031138       0.01924168
Pt       4.21082076       2.43111843      19.95723549        4       0.00000000       0.00000316      -0.00000036       0.02532217
Pt       7.01803486       2.43111843      19.95723547        4       0.00000000       0.00513486       0.00093593       0.01743750
Pt       2.80721421       4.86223732      19.95723529        4       0.00000000      -0.00339666       0.00397832       0.01753059
Pt       5.61442794       4.86223731      19.95723540        4       0.00000000       0.00233294       0.00342152       0.01928695
Pt       8.42164146       4.86223722      19.95723551        4       0.00000000       0.00000319      -0.00000960      -0.03656580
Pt       1.40360717       0.81037261      22.29206807        3       0.00000000      -0.00070549      -0.00287918      -0.00423024
Pt       4.21082122       0.81037254      22.29206808        3       0.00000000       0.00444530      -0.01066939      -0.06767038
Pt       7.01803484       0.81037259      22.29206812        3       0.00000000       0.00282447       0.00088954      -0.00423903
Pt       2.80721436       3.24149112      22.29206782        3       0.00000000      -0.01148872       0.00147655      -0.06745777
Pt       5.61442774       3.24149129      22.29206807        3       0.00000000       0.00703757       0.00922953      -0.06747410
Pt       8.42164142       3.24149141      22.29206809        3       0.00000000      -0.00188012       0.07525898      -0.14862271
Pt       4.21082097       5.67261006      22.29206778        3       0.00000000      -0.00212503       0.00201156      -0.00401432
Pt       7.01803483       5.67260987      22.29206781        3       0.00000000       0.06611424      -0.03602511      -0.14865436
Pt       9.82524821       5.67261060      22.29206810        3       0.00000000      -0.06422838      -0.03924994      -0.14864834
Pt      -0.00000049       1.62074561      24.58417352        2       0.00000000      -0.00460835      -0.24079497       0.25753030
Pt       2.80721437       1.62074550      24.58417378        2       0.00000000      -0.00708853      -0.00739170      -0.01159522
Pt       5.61442785       1.62074544      24.58417371        2       0.00000000       0.00977009      -0.00252471      -0.01162010
Pt       1.40360647       4.05186444      24.58417385        2       0.00000000      -0.01433914       0.00985158      -0.04712555
Pt       4.21082100       4.05186404      24.58417381        2       0.00000000      -0.00271930       0.00973354      -0.01159089
Pt       7.01803473       4.05186412      24.58417379        2       0.00000000       0.01588344       0.00740731      -0.04723008
Pt       2.80721284       6.48298340      24.58417356        2       0.00000000       0.21056117       0.11631596       0.25768706
Pt       5.61442787       6.48298334      24.58417388        2       0.00000000      -0.20590232       0.12437010       0.25759548
Pt       8.42164233       6.48298347      24.58417367        2       0.00000000      -0.00153170      -0.01722795      -0.04700996
Pt       0.00000295      -0.00017481      27.13938160        1       0.00000000      -0.00001701       0.00021753       0.03362200
Pt       2.80832421      -0.00429268      26.89958937        1       0.00000000      -0.01477798       0.00190118      -0.00382560
Pt       5.61041682      -0.00295701      26.89735421        1       0.00000000       0.01553041       0.00199391      -0.00512037
Pt       1.40304515       2.43601839      26.89728968        1       0.00000000      -0.00593572      -0.01456530      -0.00506651
Pt       4.21082417       2.43110669      26.90997724        1       0.00000000      -0.00003431      -0.00009783      -0.01055101
Pt       7.02119182       2.43418003      26.89948740        1       0.00000000       0.00573504      -0.01394082      -0.00401477
Pt       2.80293741       4.86338286      26.89952295        1       0.00000000       0.00906334       0.01190104      -0.00402745
Pt       5.61901549       4.86021504      26.89728188        1       0.00000000      -0.00963082       0.01245226      -0.00498149
Pt       8.42163852       4.86221227      26.91836267        1       0.00000000       0.00004407       0.00000497      -0.01413870
C       -0.00000153       0.00004838      29.22573340        0       1.00000000       0.00001605      -0.00014601      -0.02846684
H       -1.04518003      -0.00055644      29.56792341        0       0.00000000      -0.00455408       0.00063509      -0.00050466
H        0.52214622       0.90561855      29.56749012        0       0.00000000       0.00199529       0.00386049      -0.00032004
H        0.52303127      -0.90468314      29.56835770        0       0.00000000       0.00254452      -0.00400304      -0.00068426
