39
Lattice="8.421641763931781 0.0 0.0 4.2108208819658905 7.293355709136913 0.0 0.0 0.0 46.87624170604845" Properties=species:S:1:pos:R:3:tags:I:1:initial_magmoms:R:1:forces:R:3 charge=0 spin=0 energy=-202.06398392108343 free_energy=-202.06398392108343 stress="0.00999315083026886 5.129530109115876e-06 -1.4669170923298225e-05 5.129530109115876e-06 0.010142129845917225 -7.565040868939832e-05 -1.4669170923298225e-05 -7.565040868939832e-05 -0.0002661044127307832" pbc="T T T"
Pt       0.00000001       0.00000022      19.95723437        4       0.00000000       0.00162962       0.00290575       0.01377467
Pt       2.80721395      -0.00000019      19.95723451        4       0.00000000       0.00041561      -0.00236920       0.01763348
Pt       5.61442781      -0.00000015      19.95723452        4       0.00000000       0.00135303      -0.00218421       0.01893197
Pt       1.40360719       2.43111837      19.95723437        4       0.00000000      -0.00489307       0.00653920       0.01943841
Pt       4.21082081       2.43111836      19.95723446        4       0.00000000       0.00123373       0.00222138       0.02351764
Pt       7.01803482       2.43111848      19.95723434        4       0.00000000       0.00618660       0.00832858       0.01626083
Pt       2.80721406       4.86223725      19.95723406        4       0.00000000      -0.00380869       0.00356073       0.01799611
Pt       5.61442807       4.86223733      19.95723425        4       0.00000000       0.00746823       0.00388923       0.01953739
Pt       8.42164141       4.86223722      19.95723441        4       0.00000000      -0.00068080      -0.00389917      -0.04561915
Pt       1.40360726       0.81037259      22.29206792        3       0.00000000       0.00922263       0.00099539      -0.02273980
Pt       4.21082127       0.81037250      22.29206797        3       0.00000000       0.00694609       0.00034906      -0.07112910
Pt       7.01803474       0.81037256      22.29206789        3       0.00000000       0.00657815       0.00462944      -0.02226588
Pt       2.80721450       3.24149124      22.29206781        3       0.00000000       0.00116517       0.00872085      -0.06916927
Pt       5.61442761       3.24149125      22.29206792        3       0.00000000       0.00407269       0.01342247      -0.06165951
Pt       8.42164154       3.24149129      22.29206811        3       0.00000000       0.00504635       0.06302179      -0.08750452
Pt       4.21082092       5.67260996      22.29206802        3       0.00000000       0.00119991       0.01401708      -0.01075640
Pt       7.01803486       5.67261036      22.29206779        3       0.00000000       0.06119112      -0.01653221      -0.12581320
Pt       9.82524821       5.67261064      22.29206811        3       0.00000000      -0.04860119      -0.02444172      -0.12795007
Pt      -0.00000056       1.62074568      24.58417368        2       0.00000000      -0.01835304      -0.25173116       0.27404153
Pt       2.80721445       1.62074548      24.58417389        2       0.00000000      -0.02182935      -0.01557751      -0.01624363
Pt       5.61442782       1.62074538      24.58417372        2       0.00000000      -0.00676361      -0.01897790      -0.01291954
Pt       1.40360637       4.05186441      24.58417385        2       0.00000000      -0.04485923      -0.02465465      -0.05276019
Pt       4.21082090       4.05186400      24.58417377        2       0.00000000      -0.02239130      -0.02219861      -0.01481221
Pt       7.01803502       4.05186405      24.58417403        2       0.00000000       0.02653026      -0.00837345      -0.10598961
Pt       2.80721280       6.48298343      24.58417368        2       0.00000000       0.21560416       0.08706377       0.29871505
Pt       5.61442797       6.48298325      24.58417384        2       0.00000000      -0.20565075       0.07809407       0.26250941
Pt       8.42164223       6.48298339      24.58417376        2       0.00000000      -0.02672715      -0.07672076      -0.09682820
Pt      -0.02002644      -0.02650292      27.07600173        1       0.00000000      -0.02205432       0.02048754       0.01782489
Pt       2.79999938      -0.03491475      26.89746555        1       0.00000000       0.00266749       0.00347322      -0.00354637
Pt       5.58480722      -0.03678537      26.88923236        1       0.00000000      -0.00906503       0.02548707       0.00534339
Pt       1.38380002       2.40215753      26.90567488        1       0.00000000       0.02836096       0.03337457      -0.00681035
Pt       4.18872030       2.39720936      26.91534093        1       0.00000000       0.00908524       0.01690554      -0.01000082
Pt       6.99618538       2.41404953      26.90181064        1       0.00000000      -0.00383142      -0.00087368       0.00198233
Pt       2.77902198       4.82278746      26.90072554        1       0.00000000       0.00842447      -0.01889446      -0.02306745
Pt       5.60976790       4.81235722      26.89425544        1       0.00000000      -0.01720578       0.03724264       0.00182686
Pt       8.40146416       4.82519092      26.92243327        1       0.00000000       0.01953058       0.03036913      -0.00370966
N       -0.07540928      -0.11180613      29.08809459        0       1.00000000       0.00826393       0.01092690       0.01449522
H        0.88635495      -0.08870781      29.46364983        0       0.00000000       0.00253683       0.01485724      -0.01025826
H       -0.55444111       0.72487088      29.45941772        0       0.00000000       0.02200168      -0.00345410      -0.02227611
