39
Lattice="8.421641763931781 0.0 0.0 4.2108208819658905 7.293355709136913 0.0 0.0 0.0 46.87624170604845" Properties=species:S:1:pos:R:3:tags:I:1:initial_magmoms:R:1:forces:R:3 charge=0 spin=0 energy=-201.93395805743597 free_energy=-201.93395805743597 stress="0.009741200134158134 -1.1087814527854789e-05 -2.523621105865459e-06 -1.1087814527854789e-05 0.009829689748585224 -5.123169830767438e-05 -2.523621105865459e-06 -5.123169830767438e-05 -0.0002917936071753502" pbc="T T T"
Pt       0.00000001       0.00000022      19.95723437        4       0.00000000       0.00058457      -0.00189555       0.01554601
Pt       2.80721395      -0.00000019      19.95723451        4       0.00000000       0.00380039      -0.00767636       0.01637421
Pt       5.61442781      -0.00000015      19.95723452        4       0.00000000      -0.00337333      -0.00912328       0.01748888
Pt       1.40360719       2.43111837      19.95723437        4       0.00000000      -0.00589873       0.00416364       0.02046918
Pt       4.21082081       2.43111836      19.95723446        4       0.00000000       0.00034506      -0.00161174       0.02350401
Pt       7.01803482       2.43111848      19.95723434        4       0.00000000       0.00412240       0.00448658       0.02020007
Pt       2.80721406       4.86223725      19.95723406        4       0.00000000      -0.00788497      -0.00076648       0.02002653
Pt       5.61442807       4.86223733      19.95723425        4       0.00000000       0.00884092      -0.00033247       0.02156309
Pt       8.42164141       4.86223722      19.95723441        4       0.00000000      -0.00044246       0.00242746      -0.05480789
Pt       1.40360726       0.81037259      22.29206792        3       0.00000000       0.00065198      -0.01360790      -0.03198953
Pt       4.21082127       0.81037250      22.29206797        3       0.00000000       0.00376370      -0.00948968      -0.06747206
Pt       7.01803474       0.81037256      22.29206789        3       0.00000000       0.00223004      -0.01089952      -0.03314874
Pt       2.80721450       3.24149124      22.29206781        3       0.00000000      -0.00152023      -0.00878800      -0.06691898
Pt       5.61442761       3.24149125      22.29206792        3       0.00000000      -0.00345128      -0.00367039      -0.06813879
Pt       8.42164154       3.24149129      22.29206811        3       0.00000000      -0.00259109       0.04374899      -0.07327492
Pt       4.21082092       5.67260996      22.29206802        3       0.00000000      -0.00421984      -0.00619306      -0.03639547
Pt       7.01803486       5.67261036      22.29206779        3       0.00000000       0.03977475      -0.02968292      -0.10040848
Pt       9.82524821       5.67261064      22.29206811        3       0.00000000      -0.04039452      -0.03488344      -0.10397560
Pt      -0.00000056       1.62074568      24.58417368        2       0.00000000      -0.00762822      -0.27652690       0.40633336
Pt       2.80721445       1.62074548      24.58417389        2       0.00000000       0.00454826       0.02921764      -0.02888928
Pt       5.61442782       1.62074538      24.58417372        2       0.00000000       0.00100937       0.02505961      -0.02711099
Pt       1.40360637       4.05186441      24.58417385        2       0.00000000      -0.03978483       0.05356499      -0.09918307
Pt       4.21082090       4.05186400      24.58417377        2       0.00000000       0.00451216       0.01749584      -0.03281514
Pt       7.01803502       4.05186405      24.58417403        2       0.00000000       0.03982941       0.05426205      -0.10483324
Pt       2.80721280       6.48298343      24.58417368        2       0.00000000       0.18291527       0.12008148       0.24639975
Pt       5.61442797       6.48298325      24.58417384        2       0.00000000      -0.18058708       0.12807235       0.26275951
Pt       8.42164223       6.48298339      24.58417376        2       0.00000000       0.00235336      -0.04685581      -0.13873962
Pt       0.00259814       0.05890701      27.03624334        1       0.00000000       0.00174647       0.00885237       0.01666713
Pt       2.83449507       0.02399371      26.89647620        1       0.00000000      -0.00271365       0.00550382      -0.00490152
Pt       5.59158525       0.02273822      26.89451390        1       0.00000000       0.00085088       0.00438624      -0.00511237
Pt       1.41788080       2.48041443      26.90134450        1       0.00000000      -0.00503072      -0.01177769      -0.00304490
Pt       4.21214580       2.45728663      26.91801211        1       0.00000000      -0.00110733       0.00298135       0.00626480
Pt       7.00572142       2.48243751      26.90192442        1       0.00000000       0.00699540      -0.01337405      -0.00182642
Pt       2.79786129       4.87665578      26.89699136        1       0.00000000      -0.00329074      -0.00413790      -0.00322062
Pt       5.62643156       4.87514333      26.89700073        1       0.00000000       0.00138116      -0.00128018      -0.00243602
Pt       8.42185140       4.88991054      26.92515489        1       0.00000000       0.00186019       0.00159964       0.00732477
N       -0.00039391      -0.02313649      28.99075082        0       1.00000000      -0.00643345      -0.03154331      -0.01252033
H       -0.86577270      -0.03846193      29.52979781        0       0.00000000      -0.00009970       0.00676324      -0.00055615
H        0.86294119      -0.03293276      29.53309074        0       0.00000000       0.00433667       0.01144931       0.00079885
