39
Lattice="8.421641763931781 0.0 0.0 4.2108208819658905 7.293355709136913 0.0 0.0 0.0 46.87624170604845" Properties=species:S:1:pos:R:3:tags:I:1:initial_magmoms:R:1:forces:R:3 charge=0 spin=0 energy=-202.06397819903754 free_energy=-202.06397819903754 stress="0.009992984123528004 5.01754630022333e-06 -1.4703824490425177e-05 5.01754630022333e-06 0.01014208234846592 -7.555624324595556e-05 -1.4703824490425177e-05 -7.555624324595556e-05 -0.0002659027522895485" pbc="T T T"
Pt       0.00000001       0.00000022      19.95723437        4       0.00000000       0.00163022       0.00290381       0.01377674
Pt       2.80721395      -0.00000019      19.95723451        4       0.00000000       0.00041714      -0.00237297       0.01763331
Pt       5.61442781      -0.00000015      19.95723452        4       0.00000000       0.00135258      -0.00218684       0.01893231
Pt       1.40360719       2.43111837      19.95723437        4       0.00000000      -0.00489356       0.00653798       0.01943954
Pt       4.21082081       2.43111836      19.95723446        4       0.00000000       0.00123530       0.00221924       0.02351751
Pt       7.01803482       2.43111848      19.95723434        4       0.00000000       0.00618691       0.00832801       0.01626166
Pt       2.80721406       4.86223725      19.95723406        4       0.00000000      -0.00380918       0.00355926       0.01799747
Pt       5.61442807       4.86223733      19.95723425        4       0.00000000       0.00747089       0.00388730       0.01953788
Pt       8.42164141       4.86223722      19.95723441        4       0.00000000      -0.00068026      -0.00389912      -0.04562252
Pt       1.40360726       0.81037259      22.29206792        3       0.00000000       0.00922350       0.00098837      -0.02274386
Pt       4.21082127       0.81037250      22.29206797        3       0.00000000       0.00694729       0.00034290      -0.07112721
Pt       7.01803474       0.81037256      22.29206789        3       0.00000000       0.00657975       0.00462232      -0.02226646
Pt       2.80721450       3.24149124      22.29206781        3       0.00000000       0.00116532       0.00871311      -0.06917761
Pt       5.61442761       3.24149125      22.29206792        3       0.00000000       0.00407137       0.01341672      -0.06165664
Pt       8.42164154       3.24149129      22.29206811        3       0.00000000       0.00504934       0.06301185      -0.08749995
Pt       4.21082092       5.67260996      22.29206802        3       0.00000000       0.00120107       0.01400747      -0.01076357
Pt       7.01803486       5.67261036      22.29206779        3       0.00000000       0.06118957      -0.01653980      -0.12580664
Pt       9.82524821       5.67261064      22.29206811        3       0.00000000      -0.04859502      -0.02444751      -0.12794234
Pt      -0.00000056       1.62074568      24.58417368        2       0.00000000      -0.01836579      -0.25175944       0.27414331
Pt       2.80721445       1.62074548      24.58417389        2       0.00000000      -0.02184447      -0.01557070      -0.01627194
Pt       5.61442782       1.62074538      24.58417372        2       0.00000000      -0.00673513      -0.01896819      -0.01293054
Pt       1.40360637       4.05186441      24.58417385        2       0.00000000      -0.04485796      -0.02463327      -0.05277343
Pt       4.21082090       4.05186400      24.58417377        2       0.00000000      -0.02238414      -0.02216096      -0.01484866
Pt       7.01803502       4.05186405      24.58417403        2       0.00000000       0.02651652      -0.00836577      -0.10607084
Pt       2.80721280       6.48298343      24.58417368        2       0.00000000       0.21561986       0.08711330       0.29878616
Pt       5.61442797       6.48298325      24.58417384        2       0.00000000      -0.20566730       0.07813291       0.26252145
Pt       8.42164223       6.48298339      24.58417376        2       0.00000000      -0.02673039      -0.07668693      -0.09687756
Pt      -0.02001942      -0.02648965      27.07602051        1       0.00000000      -0.02208933       0.02072255       0.01785192
Pt       2.80000138      -0.03489139      26.89746923        1       0.00000000       0.00262171       0.00352572      -0.00353678
Pt       5.58478279      -0.03675496      26.88923482        1       0.00000000      -0.00891929       0.02547518       0.00532910
Pt       1.38380271       2.40218928      26.90567105        1       0.00000000       0.02829177       0.03333567      -0.00680742
Pt       4.18871854       2.39724040      26.91532042        1       0.00000000       0.00907591       0.01688398      -0.00991579
Pt       6.99617504       2.41410147      26.90181114        1       0.00000000      -0.00376471      -0.00105949       0.00198577
Pt       2.77902301       4.82280673      26.90072223        1       0.00000000       0.00837635      -0.01883713      -0.02306631
Pt       5.60977592       4.81238419      26.89425473        1       0.00000000      -0.01728751       0.03724970       0.00183994
Pt       8.40144105       4.82523077      26.92241295        1       0.00000000       0.01967203       0.03030623      -0.00361386
N       -0.07541068      -0.11183102      29.08807755        0       1.00000000       0.00731309       0.01091466       0.01486482
H       -0.55454622       0.72471434      29.45958499        0       0.00000000       0.02238217      -0.00375485      -0.02276344
H        0.88627663      -0.08889361      29.46378781        0       0.00000000       0.00303439       0.01504460      -0.01033540
