39
Lattice="8.421641763931781 0.0 0.0 4.2108208819658905 7.293355709136913 0.0 0.0 0.0 46.87624170604845" Properties=species:S:1:pos:R:3:tags:I:1:initial_magmoms:R:1:forces:R:3 charge=0 spin=0 energy=-202.06396675494574 free_energy=-202.06396675494574 stress="0.010102417320013046 -6.57082928228192e-05 -5.7285498769488186e-05 -6.57082928228192e-05 0.010034427046775818 5.029994645155966e-05 -5.7285498769488186e-05 5.029994645155966e-05 -0.0002664737112354487" pbc="T T T"
Pt       0.00000001       0.00000022      19.95723437        4       0.00000000       0.00170571      -0.00285730       0.01377558
Pt       2.80721395      -0.00000019      19.95723451        4       0.00000000       0.00412108      -0.00953581       0.01625322
Pt       5.61442781      -0.00000015      19.95723452        4       0.00000000      -0.00036755      -0.00842235       0.01956148
Pt       1.40360719       2.43111837      19.95723437        4       0.00000000      -0.00258217      -0.00007558       0.01888756
Pt       4.21082081       2.43111836      19.95723446        4       0.00000000       0.00128773      -0.00217191       0.02350880
Pt       7.01803482       2.43111848      19.95723434        4       0.00000000       0.00498179       0.00150672       0.01794537
Pt       2.80721406       4.86223725      19.95723406        4       0.00000000      -0.00227610       0.00084037       0.01769524
Pt       5.61442807       4.86223733      19.95723425        4       0.00000000       0.00808910       0.00096965       0.01946659
Pt       8.42164141       4.86223722      19.95723441        4       0.00000000      -0.00302412       0.00251461      -0.04560806
Pt       1.40360726       0.81037259      22.29206792        3       0.00000000       0.00063720      -0.00799607      -0.02229206
Pt       4.21082127       0.81037250      22.29206797        3       0.00000000       0.00955441      -0.01015611      -0.06189378
Pt       7.01803474       0.81037256      22.29206789        3       0.00000000       0.01152885      -0.00796170      -0.01093543
Pt       2.80721450       3.24149124      22.29206781        3       0.00000000      -0.00323723      -0.00621590      -0.07094244
Pt       5.61442761       3.24149125      22.29206792        3       0.00000000       0.00697536      -0.00537054      -0.06917353
Pt       8.42164154       3.24149129      22.29206811        3       0.00000000       0.00308522       0.05428615      -0.12788598
Pt       4.21082092       5.67260996      22.29206802        3       0.00000000      -0.00373012      -0.00853806      -0.02254183
Pt       7.01803486       5.67261036      22.29206779        3       0.00000000       0.05203490      -0.03593214      -0.08753931
Pt       9.82524821       5.67261064      22.29206811        3       0.00000000      -0.04492946      -0.04475015      -0.12580118
Pt      -0.00000056       1.62074568      24.58417368        2       0.00000000      -0.03223252      -0.23042245       0.29886228
Pt       2.80721445       1.62074548      24.58417389        2       0.00000000      -0.01330491       0.01522811      -0.01308407
Pt       5.61442782       1.62074538      24.58417372        2       0.00000000      -0.00792169       0.03044219      -0.01511326
Pt       1.40360637       4.05186441      24.58417385        2       0.00000000      -0.05291398       0.06139394      -0.09688261
Pt       4.21082090       4.05186400      24.58417377        2       0.00000000      -0.00257455       0.02682137      -0.01617989
Pt       7.01803502       4.05186405      24.58417403        2       0.00000000       0.00137169       0.05117376      -0.05316563
Pt       2.80721280       6.48298343      24.58417368        2       0.00000000       0.17058982       0.13907269       0.26258487
Pt       5.61442797       6.48298325      24.58417384        2       0.00000000      -0.20887695       0.14190255       0.27428997
Pt       8.42164223       6.48298339      24.58417376        2       0.00000000      -0.02037482      -0.01867812      -0.10629659
Pt      -0.01300143       0.03050359      27.07611431        1       0.00000000       0.02966344       0.00890440       0.01659703
Pt       2.80355096       0.02738697      26.90173286        1       0.00000000       0.00014988       0.00398761       0.00212366
Pt       5.57365400       0.02895028      26.89426170        1       0.00000000       0.04101950      -0.00371201       0.00186545
Pt       1.38670330       2.47520456      26.88926206        1       0.00000000       0.02628875      -0.00542828       0.00510881
Pt       4.19261647       2.46711788      26.91520519        1       0.00000000       0.00985546      -0.01584810      -0.00948023
Pt       6.99797221       2.47533579      26.90066214        1       0.00000000      -0.01988800       0.00169963      -0.02259423
Pt       2.78067595       4.88595640      26.89755313        1       0.00000000       0.00191984      -0.00428204      -0.00383169
Pt       5.59947239       4.89382978      26.90561982        1       0.00000000       0.01394394      -0.04077573      -0.00660030
Pt       8.39983527       4.89822947      26.92236813        1       0.00000000       0.01631158      -0.03230727      -0.00333877
N       -0.05942150       0.12154374      29.08804953        0       1.00000000       0.00919447      -0.01520670       0.02014639
H       -0.52038606      -0.72272525      29.46416652        0       0.00000000       0.01247047      -0.00719057      -0.01260486
H        0.90467663       0.11819400      29.45975991        0       0.00000000      -0.01854581      -0.01690901      -0.02488649
