39
Lattice="8.421641763931781 0.0 0.0 4.2108208819658905 7.293355709136913 0.0 0.0 0.0 46.87624170604845" Properties=species:S:1:pos:R:3:tags:I:1:initial_magmoms:R:1:forces:R:3 charge=0 spin=0 energy=-202.06237030414007 free_energy=-202.06237030414007 stress="0.009938450530171394 1.9238091226725373e-06 -6.3393795244337525e-06 1.9238091226725373e-06 0.010159146972000599 -0.0001336950808763504 -6.3393795244337525e-06 -0.0001336950808763504 -0.00031100702472031116" pbc="T T T"
Pt       0.00000001       0.00000022      19.95723437        4       0.00000000       0.00044220       0.00318789       0.01361765
Pt       2.80721395      -0.00000019      19.95723451        4       0.00000000      -0.00076058      -0.00055354       0.01695943
Pt       5.61442781      -0.00000015      19.95723452        4       0.00000000      -0.00012495      -0.00177719       0.01855504
Pt       1.40360719       2.43111837      19.95723437        4       0.00000000      -0.00610680       0.00734645       0.01871594
Pt       4.21082081       2.43111836      19.95723446        4       0.00000000       0.00030877       0.00219215       0.02345715
Pt       7.01803482       2.43111848      19.95723434        4       0.00000000       0.00524165       0.00864141       0.01770001
Pt       2.80721406       4.86223725      19.95723406        4       0.00000000      -0.00618389       0.00405142       0.01775156
Pt       5.61442807       4.86223733      19.95723425        4       0.00000000       0.00563500       0.00424943       0.02022244
Pt       8.42164141       4.86223722      19.95723441        4       0.00000000      -0.00034596      -0.00361312      -0.04538741
Pt       1.40360726       0.81037259      22.29206792        3       0.00000000       0.00434548       0.00200406      -0.02008675
Pt       4.21082127       0.81037250      22.29206797        3       0.00000000       0.00396304       0.00147486      -0.06961221
Pt       7.01803474       0.81037256      22.29206789        3       0.00000000       0.00091826       0.00496344      -0.02442859
Pt       2.80721450       3.24149124      22.29206781        3       0.00000000      -0.00161572       0.01079626      -0.06472193
Pt       5.61442761       3.24149125      22.29206792        3       0.00000000       0.00036124       0.01623472      -0.06512863
Pt       8.42164154       3.24149129      22.29206811        3       0.00000000      -0.00244015       0.06482024      -0.08113022
Pt       4.21082092       5.67260996      22.29206802        3       0.00000000      -0.00257081       0.01574397      -0.01253359
Pt       7.01803486       5.67261036      22.29206779        3       0.00000000       0.05599869      -0.01719264      -0.13018271
Pt       9.82524821       5.67261064      22.29206811        3       0.00000000      -0.05394223      -0.02143089      -0.13136557
Pt      -0.00000056       1.62074568      24.58417368        2       0.00000000      -0.00716358      -0.26264778       0.29209462
Pt       2.80721445       1.62074548      24.58417389        2       0.00000000      -0.00941174      -0.01868882      -0.02148972
Pt       5.61442782       1.62074538      24.58417372        2       0.00000000       0.01208197      -0.02225090      -0.01552761
Pt       1.40360637       4.05186441      24.58417385        2       0.00000000      -0.03993427      -0.02868307      -0.06163968
Pt       4.21082090       4.05186400      24.58417377        2       0.00000000      -0.00126491      -0.03233283      -0.03357747
Pt       7.01803502       4.05186405      24.58417403        2       0.00000000       0.03690332      -0.02452500      -0.06596454
Pt       2.80721280       6.48298343      24.58417368        2       0.00000000       0.20082858       0.07421373       0.26225963
Pt       5.61442797       6.48298325      24.58417384        2       0.00000000      -0.20312977       0.07990873       0.26931915
Pt       8.42164223       6.48298339      24.58417376        2       0.00000000       0.00042875      -0.08878210      -0.11932481
Pt      -0.00331868      -0.03018817      27.07453053        1       0.00000000       0.00267764       0.01579888       0.00972330
Pt       2.82084652      -0.04349251      26.89201179        1       0.00000000      -0.01555223       0.01839481       0.00836413
Pt       5.59723958      -0.04273700      26.89047288        1       0.00000000       0.01618752       0.01907045       0.00888356
Pt       1.40507937       2.39568367      26.90611335        1       0.00000000      -0.00168114       0.04112486      -0.00682746
Pt       4.20880757       2.38943595      26.91496125        1       0.00000000       0.00015469       0.02023566      -0.00315480
Pt       7.01380617       2.39752346      26.90654120        1       0.00000000       0.00325721       0.04097062      -0.00702121
Pt       2.79884688       4.81060144      26.89502541        1       0.00000000      -0.02013938       0.00801064      -0.00177260
Pt       5.61895797       4.81038877      26.89437862        1       0.00000000       0.02200050       0.00815687      -0.00151770
Pt       8.41945292       4.82380034      26.92320857        1       0.00000000      -0.00056947      -0.00788347      -0.01273733
N       -0.00065587      -0.16186247      29.08651917        0       1.00000000      -0.00007262      -0.00297088      -0.04625203
H        0.82599353       0.33139856      29.45787237        0       0.00000000       0.02528220       0.03078911       0.02205210
H       -0.82616204       0.33375056      29.45716816        0       0.00000000      -0.02400674       0.03095140       0.02170876
