39
Lattice="8.421641763931781 0.0 0.0 4.2108208819658905 7.293355709136913 0.0 0.0 0.0 46.87624170604845" Properties=species:S:1:pos:R:3:tags:I:1:initial_magmoms:R:1:forces:R:3 charge=0 spin=0 energy=-202.06237030414007 free_energy=-202.06237030414007 stress="0.009939643554389477 1.9381263882678468e-06 -6.324518381006783e-06 1.9381263882678468e-06 0.010160014033317566 -0.00013333105016499758 -6.324518381006783e-06 -0.00013333105016499758 -0.00031133409356698394" pbc="T T T"
Pt       0.00000001       0.00000022      19.95723437        4       0.00000000       0.00044085       0.00319209       0.01361114
Pt       2.80721395      -0.00000019      19.95723451        4       0.00000000      -0.00076485      -0.00054541       0.01695884
Pt       5.61442781      -0.00000015      19.95723452        4       0.00000000      -0.00012133      -0.00176775       0.01855323
Pt       1.40360719       2.43111837      19.95723437        4       0.00000000      -0.00609915       0.00734794       0.01871619
Pt       4.21082081       2.43111836      19.95723446        4       0.00000000       0.00030819       0.00219278       0.02345365
Pt       7.01803482       2.43111848      19.95723434        4       0.00000000       0.00523419       0.00864323       0.01769830
Pt       2.80721406       4.86223725      19.95723406        4       0.00000000      -0.00618544       0.00405950       0.01774724
Pt       5.61442807       4.86223733      19.95723425        4       0.00000000       0.00563604       0.00425602       0.02021727
Pt       8.42164141       4.86223722      19.95723441        4       0.00000000      -0.00034673      -0.00361787      -0.04537816
Pt       1.40360726       0.81037259      22.29206792        3       0.00000000       0.00435147       0.00202659      -0.02007290
Pt       4.21082127       0.81037250      22.29206797        3       0.00000000       0.00396195       0.00148784      -0.06961314
Pt       7.01803474       0.81037256      22.29206789        3       0.00000000       0.00091080       0.00498500      -0.02441460
Pt       2.80721450       3.24149124      22.29206781        3       0.00000000      -0.00161608       0.01081418      -0.06470879
Pt       5.61442761       3.24149125      22.29206792        3       0.00000000       0.00036885       0.01625589      -0.06511266
Pt       8.42164154       3.24149129      22.29206811        3       0.00000000      -0.00244036       0.06484272      -0.08117777
Pt       4.21082092       5.67260996      22.29206802        3       0.00000000      -0.00256954       0.01576771      -0.01252096
Pt       7.01803486       5.67261036      22.29206779        3       0.00000000       0.05602219      -0.01718003      -0.13019966
Pt       9.82524821       5.67261064      22.29206811        3       0.00000000      -0.05396101      -0.02141937      -0.13137986
Pt      -0.00000056       1.62074568      24.58417368        2       0.00000000      -0.00716015      -0.26250085       0.29204106
Pt       2.80721445       1.62074548      24.58417389        2       0.00000000      -0.00953358      -0.01870828      -0.02154567
Pt       5.61442782       1.62074538      24.58417372        2       0.00000000       0.01220210      -0.02226819      -0.01559503
Pt       1.40360637       4.05186441      24.58417385        2       0.00000000      -0.03994565      -0.02879826      -0.06135803
Pt       4.21082090       4.05186400      24.58417377        2       0.00000000      -0.00127649      -0.03240624      -0.03379902
Pt       7.01803502       4.05186405      24.58417403        2       0.00000000       0.03690634      -0.02463581      -0.06566691
Pt       2.80721280       6.48298343      24.58417368        2       0.00000000       0.20087361       0.07415073       0.26218659
Pt       5.61442797       6.48298325      24.58417384        2       0.00000000      -0.20316035       0.07983188       0.26924443
Pt       8.42164223       6.48298339      24.58417376        2       0.00000000       0.00041133      -0.08890475      -0.11968181
Pt      -0.00332474      -0.03025289      27.07453251        1       0.00000000       0.00270542       0.01555743       0.00961134
Pt       2.82087144      -0.04358980      26.89197179        1       0.00000000      -0.01594262       0.01853556       0.00863363
Pt       5.59719956      -0.04284215      26.89042828        1       0.00000000       0.01660318       0.01926125       0.00919033
Pt       1.40508064       2.39557562      26.90617222        1       0.00000000      -0.00180666       0.04152523      -0.00712973
Pt       4.20881068       2.38934311      26.91489578        1       0.00000000       0.00012988       0.02037044      -0.00288973
Pt       7.01380506       2.39740659      26.90660284        1       0.00000000       0.00337696       0.04139675      -0.00733456
Pt       2.79894739       4.81055058      26.89503057        1       0.00000000      -0.02072293       0.00784257      -0.00176999
Pt       5.61884841       4.81033311      26.89438597        1       0.00000000       0.02261025       0.00802149      -0.00152508
Pt       8.41944795       4.82382892      26.92320822        1       0.00000000      -0.00057416      -0.00863349      -0.01284244
N       -0.00064947      -0.16176459      29.08661982        0       1.00000000      -0.00007322       0.00154921      -0.04411218
H       -0.82610361       0.33440346      29.45692163        0       0.00000000      -0.02215781       0.02881907       0.02085187
H        0.82594934       0.33204009      29.45764383        0       0.00000000       0.02340447       0.02865314       0.02111356
