39
Lattice="8.421641763931781 0.0 0.0 4.2108208819658905 7.293355709136913 0.0 0.0 0.0 46.87624170604845" Properties=species:S:1:pos:R:3:tags:I:1:initial_magmoms:R:1:forces:R:3 charge=0 spin=0 energy=-202.063970569643 free_energy=-202.063970569643 stress="0.010108658112585545 6.141571793705225e-05 7.15830537956208e-05 6.141571793705225e-05 0.010027794167399406 2.441053766233381e-05 7.15830537956208e-05 2.441053766233381e-05 -0.00026638314011506736" pbc="T T T"
Pt       0.00000001       0.00000022      19.95723437        4       0.00000000      -0.00332957      -0.00004833       0.01377729
Pt       2.80721395      -0.00000019      19.95723451        4       0.00000000      -0.00117442      -0.00507157       0.01793750
Pt       5.61442781      -0.00000015      19.95723452        4       0.00000000      -0.00320078      -0.00750425       0.01947384
Pt       1.40360719       2.43111837      19.95723437        4       0.00000000      -0.00710836       0.00454014       0.01951922
Pt       4.21082081       2.43111836      19.95723446        4       0.00000000      -0.00251605      -0.00003881       0.02351126
Pt       7.01803482       2.43111848      19.95723434        4       0.00000000       0.00185146       0.00153932       0.01762241
Pt       2.80721406       4.86223725      19.95723406        4       0.00000000      -0.01031591       0.00120239       0.01633426
Pt       5.61442807       4.86223733      19.95723425        4       0.00000000       0.00122294       0.00227039       0.01892298
Pt       8.42164141       4.86223722      19.95723441        4       0.00000000       0.00369334       0.00136575      -0.04561133
Pt       1.40360726       0.81037259      22.29206792        3       0.00000000      -0.01272938      -0.00601365      -0.01096468
Pt       4.21082127       0.81037250      22.29206797        3       0.00000000      -0.00814971      -0.00332051      -0.06940929
Pt       7.01803474       0.81037256      22.29206789        3       0.00000000      -0.00548031       0.00756168      -0.02270327
Pt       2.80721450       3.24149124      22.29206781        3       0.00000000      -0.01362699      -0.00324871      -0.06170160
Pt       5.61442761       3.24149125      22.29206792        3       0.00000000      -0.00371187       0.00589435      -0.07092772
Pt       8.42164154       3.24149129      22.29206811        3       0.00000000      -0.01626313       0.06129730      -0.12579855
Pt       4.21082092       5.67260996      22.29206802        3       0.00000000      -0.00721570       0.00338538      -0.02207359
Pt       7.01803486       5.67261036      22.29206779        3       0.00000000       0.04547702      -0.02984550      -0.12790322
Pt       9.82524821       5.67261064      22.29206811        3       0.00000000      -0.05709113      -0.02711903      -0.08751560
Pt      -0.00000056       1.62074568      24.58417368        2       0.00000000       0.03510967      -0.21739897       0.26260346
Pt       2.80721445       1.62074548      24.58417389        2       0.00000000       0.03022395      -0.00840937      -0.01491077
Pt       5.61442782       1.62074538      24.58417372        2       0.00000000       0.02439357      -0.01111876      -0.01644683
Pt       1.40360637       4.05186441      24.58417385        2       0.00000000      -0.00608568       0.02695441      -0.10625877
Pt       4.21082090       4.05186400      24.58417377        2       0.00000000       0.01982916       0.00389008      -0.01332929
Pt       7.01803502       4.05186405      24.58417403        2       0.00000000       0.07975683       0.01523336      -0.09718172
Pt       2.80721280       6.48298343      24.58417368        2       0.00000000       0.22731979       0.11006966       0.27442133
Pt       5.61442797       6.48298325      24.58417384        2       0.00000000      -0.18322620       0.14318283       0.29901153
Pt       8.42164223       6.48298339      24.58417376        2       0.00000000       0.04352786      -0.02657495      -0.05298597
Pt       0.03278140      -0.00402574      27.07612249        1       0.00000000      -0.00666779      -0.02997650       0.01670869
Pt       2.85552654      -0.00468307      26.90070130        1       0.00000000       0.01125488       0.01634658      -0.02283471
Pt       5.64926627      -0.00274366      26.90561059        1       0.00000000      -0.04262108       0.00796304      -0.00652066
Pt       1.44900260       2.45200169      26.89426001        1       0.00000000      -0.02351110      -0.03379911       0.00183634
Pt       4.25113446       2.42897773      26.91521679        1       0.00000000      -0.01920884      -0.00096840      -0.00945651
Pt       7.05179681       2.44228294      26.89748902        1       0.00000000      -0.00442763       0.00044006      -0.00352498
Pt       2.83273926       4.85177582      26.90174814        1       0.00000000       0.00314887      -0.00228644       0.00212731
Pt       5.66098156       4.85477450      26.88923326        1       0.00000000      -0.01759869      -0.01943823       0.00518423
Pt       8.46364974       4.86318106      26.92236604        1       0.00000000      -0.03597705       0.00205392      -0.00336952
N        0.13498884      -0.00921844      29.08804453        0       1.00000000      -0.01721893      -0.00117566       0.01984354
H       -0.36661609       0.81149973      29.46421520        0       0.00000000      -0.01298399      -0.00658037      -0.01227878
H       -0.34882847      -0.84308938      29.45986936        0       0.00000000      -0.00536913       0.02474641      -0.02512767
