39
Lattice="8.421641763931781 0.0 0.0 4.2108208819658905 7.293355709136913 0.0 0.0 0.0 46.87624170604845" Properties=species:S:1:pos:R:3:tags:I:1:initial_magmoms:R:1:forces:R:3 charge=0 spin=0 energy=-202.06092262652777 free_energy=-202.06092262652777 stress="0.010093898512423038 -0.00010114884207723662 -0.0001150916941696778 -0.00010114884207723662 0.009980224072933197 7.654626824660227e-05 -0.0001150916941696778 7.654626824660227e-05 -0.0003276900970377028" pbc="T T T"
Pt       0.00000001       0.00000022      19.95723437        4       0.00000000       0.00258330      -0.00208281       0.01379718
Pt       2.80721395      -0.00000019      19.95723451        4       0.00000000       0.00470407      -0.00947597       0.01755780
Pt       5.61442781      -0.00000015      19.95723452        4       0.00000000       0.00088289      -0.00669315       0.02038332
Pt       1.40360719       2.43111837      19.95723437        4       0.00000000      -0.00160794       0.00134760       0.01856753
Pt       4.21082081       2.43111836      19.95723446        4       0.00000000       0.00194583      -0.00154255       0.02352330
Pt       7.01803482       2.43111848      19.95723434        4       0.00000000       0.00626372       0.00319324       0.01781634
Pt       2.80721406       4.86223725      19.95723406        4       0.00000000      -0.00037576       0.00089837       0.01696418
Pt       5.61442807       4.86223733      19.95723425        4       0.00000000       0.00985723       0.00212312       0.01852145
Pt       8.42164141       4.86223722      19.95723441        4       0.00000000      -0.00266025       0.00186227      -0.04548554
Pt       1.40360726       0.81037259      22.29206792        3       0.00000000       0.00340289      -0.00376250      -0.02553999
Pt       4.21082127       0.81037250      22.29206797        3       0.00000000       0.01372362      -0.00805507      -0.06607147
Pt       7.01803474       0.81037256      22.29206789        3       0.00000000       0.01458423      -0.00553662      -0.01285280
Pt       2.80721450       3.24149124      22.29206781        3       0.00000000      -0.00074658      -0.00426070      -0.06903491
Pt       5.61442761       3.24149125      22.29206792        3       0.00000000       0.01038035      -0.00399925      -0.06549897
Pt       8.42164154       3.24149129      22.29206811        3       0.00000000       0.00824895       0.05708186      -0.13082716
Pt       4.21082092       5.67260996      22.29206802        3       0.00000000      -0.00040374      -0.00426745      -0.02103051
Pt       7.01803486       5.67261036      22.29206779        3       0.00000000       0.05756507      -0.03052349      -0.07849731
Pt       9.82524821       5.67261064      22.29206811        3       0.00000000      -0.04262685      -0.03937024      -0.12983768
Pt      -0.00000056       1.62074568      24.58417368        2       0.00000000      -0.03400207      -0.20766544       0.26518574
Pt       2.80721445       1.62074548      24.58417389        2       0.00000000      -0.02378932       0.00917817      -0.01269981
Pt       5.61442782       1.62074538      24.58417372        2       0.00000000      -0.02527575       0.01559662      -0.01538975
Pt       1.40360637       4.05186441      24.58417385        2       0.00000000      -0.07356773       0.04030992      -0.09913687
Pt       4.21082090       4.05186400      24.58417377        2       0.00000000      -0.01765364       0.01185238      -0.01910987
Pt       7.01803502       4.05186405      24.58417403        2       0.00000000      -0.00190930       0.04741966      -0.08875979
Pt       2.80721280       6.48298343      24.58417368        2       0.00000000       0.17043705       0.13296925       0.27226859
Pt       5.61442797       6.48298325      24.58417384        2       0.00000000      -0.23177642       0.14245309       0.28868598
Pt       8.42164223       6.48298339      24.58417376        2       0.00000000      -0.03728149      -0.02187813      -0.09418099
Pt      -0.02834426       0.02018505      27.07366829        1       0.00000000       0.02488991      -0.01509972      -0.00904626
Pt       2.78417355       0.01886389      26.90165766        1       0.00000000      -0.00155406      -0.00162766       0.01792754
Pt       5.56104887       0.01375117      26.89361899        1       0.00000000       0.03753875       0.01826916       0.00147531
Pt       1.37706387       2.46393972      26.89375076        1       0.00000000       0.00754782      -0.00231856      -0.01023819
Pt       4.17752189       2.45324942      26.91982440        1       0.00000000       0.01230699      -0.00956042      -0.02291431
Pt       6.98095667       2.47355826      26.89436096        1       0.00000000       0.00444505      -0.04199203       0.00090114
Pt       2.76543161       4.87204773      26.89480714        1       0.00000000       0.00942890      -0.00558819      -0.00791441
Pt       5.58595925       4.87674483      26.90146121        1       0.00000000       0.00160819      -0.00136317       0.01717540
Pt       8.38304258       4.88669013      26.92207827        1       0.00000000       0.04054172      -0.02278581       0.00101596
N       -0.15522817       0.09114109      29.08279668        0       1.00000000      -0.00322779      -0.00044907      -0.02433558
H        0.68178375       0.56095054      29.46073814        0       0.00000000       0.04202372       0.00704705       0.01492273
H       -0.14632009      -0.86897406      29.45990782        0       0.00000000       0.01354884      -0.04170400       0.02171264
