39
Lattice="8.421641763931781 0.0 0.0 4.2108208819658905 7.293355709136913 0.0 0.0 0.0 46.87624170604845" Properties=species:S:1:pos:R:3:tags:I:1:initial_magmoms:R:1:forces:R:3 charge=0 spin=0 energy=-202.06377029803656 free_energy=-202.06377029803656 stress="0.009984621778130531 1.015260841086274e-05 -1.0492937690287363e-05 1.015260841086274e-05 0.010126621462404728 -8.308752148877829e-05 -1.0492937690287363e-05 -8.308752148877829e-05 -0.00028902216581627727" pbc="T T T"
Pt       0.00000001       0.00000022      19.95723437        4       0.00000000       0.00118482       0.00307973       0.01372320
Pt       2.80721395      -0.00000019      19.95723451        4       0.00000000       0.00042779      -0.00234786       0.01747026
Pt       5.61442781      -0.00000015      19.95723452        4       0.00000000       0.00096869      -0.00235061       0.01887329
Pt       1.40360719       2.43111837      19.95723437        4       0.00000000      -0.00491748       0.00613411       0.01957658
Pt       4.21082081       2.43111836      19.95723446        4       0.00000000       0.00099048       0.00231019       0.02351711
Pt       7.01803482       2.43111848      19.95723434        4       0.00000000       0.00571019       0.00844266       0.01631654
Pt       2.80721406       4.86223725      19.95723406        4       0.00000000      -0.00393733       0.00377595       0.01781327
Pt       5.61442807       4.86223733      19.95723425        4       0.00000000       0.00745302       0.00358986       0.01956246
Pt       8.42164141       4.86223722      19.95723441        4       0.00000000      -0.00053047      -0.00343015      -0.04549538
Pt       1.40360726       0.81037259      22.29206792        3       0.00000000       0.00789686       0.00067748      -0.02222552
Pt       4.21082127       0.81037250      22.29206797        3       0.00000000       0.00547781       0.00034781      -0.07061959
Pt       7.01803474       0.81037256      22.29206789        3       0.00000000       0.00574387       0.00467134      -0.02213682
Pt       2.80721450       3.24149124      22.29206781        3       0.00000000       0.00024379       0.00890457      -0.06969633
Pt       5.61442761       3.24149125      22.29206792        3       0.00000000       0.00276442       0.01381688      -0.06007885
Pt       8.42164154       3.24149129      22.29206811        3       0.00000000       0.00448919       0.06323953      -0.08806194
Pt       4.21082092       5.67260996      22.29206802        3       0.00000000       0.00040922       0.01430652      -0.01259144
Pt       7.01803486       5.67261036      22.29206779        3       0.00000000       0.06047566      -0.01668539      -0.12564503
Pt       9.82524821       5.67261064      22.29206811        3       0.00000000      -0.04867059      -0.02418922      -0.12622364
Pt      -0.00000056       1.62074568      24.58417368        2       0.00000000      -0.01443577      -0.25059637       0.27525905
Pt       2.80721445       1.62074548      24.58417389        2       0.00000000      -0.01559181      -0.01575465      -0.01464557
Pt       5.61442782       1.62074538      24.58417372        2       0.00000000      -0.00324122      -0.01902887      -0.02373869
Pt       1.40360637       4.05186441      24.58417385        2       0.00000000      -0.04652570      -0.02180716      -0.05819311
Pt       4.21082090       4.05186400      24.58417377        2       0.00000000      -0.01587618      -0.02936092      -0.02152186
Pt       7.01803502       4.05186405      24.58417403        2       0.00000000       0.02996736      -0.00527740      -0.10510055
Pt       2.80721280       6.48298343      24.58417368        2       0.00000000       0.21130618       0.08691278       0.29301649
Pt       5.61442797       6.48298325      24.58417384        2       0.00000000      -0.20331049       0.08119041       0.25252363
Pt       8.42164223       6.48298339      24.58417376        2       0.00000000      -0.02195235      -0.07926416      -0.09690778
Pt      -0.01955143      -0.02476417      27.07342510        1       0.00000000      -0.01220733       0.01349855       0.03045042
Pt       2.80178329      -0.03778114      26.89634689        1       0.00000000       0.00299327       0.01787925       0.00430981
Pt       5.58604902      -0.03387965      26.88948421        1       0.00000000      -0.00064162       0.00211809       0.00397741
Pt       1.39027735       2.40470574      26.90363682        1       0.00000000       0.01407449       0.01788375      -0.00078384
Pt       4.19800856       2.39188803      26.91714429        1       0.00000000      -0.01856607       0.03867440      -0.01339057
Pt       6.99816504       2.41592813      26.90004666        1       0.00000000       0.00877109      -0.00064204       0.00894050
Pt       2.78616552       4.81899694      26.89667715        1       0.00000000      -0.00985070      -0.00243508      -0.00823526
Pt       5.61008430       4.81730132      26.89296300        1       0.00000000      -0.00380807       0.01594471       0.00572910
Pt       8.40530637       4.82525493      26.92408393        1       0.00000000       0.02001327       0.03001590      -0.01118867
N       -0.08233237      -0.12177150      29.08652646        0       1.00000000       0.01595878       0.02862540      -0.00377514
H        0.87878291      -0.10248271      29.46509749        0       0.00000000      -0.00965676       0.01657784      -0.01508420
H       -0.55799943       0.71888139      29.45355874        0       0.00000000       0.02639957      -0.00944764      -0.00571937
