39
Lattice="8.421641763931781 0.0 0.0 4.2108208819658905 7.293355709136913 0.0 0.0 0.0 46.87624170604845" Properties=species:S:1:pos:R:3:tags:I:1:initial_magmoms:R:1:forces:R:3 charge=0 spin=0 energy=-201.93396187213324 free_energy=-201.93396187213324 stress="0.009816735982894897 -3.407261101529002e-05 -4.437547977431677e-05 -3.407261101529002e-05 0.009754090569913387 2.7874446459463798e-05 -4.437547977431677e-05 2.7874446459463798e-05 -0.00029181569698266685" pbc="T T T"
Pt       0.00000001       0.00000022      19.95723437        4       0.00000000      -0.00193232       0.00044380       0.01551654
Pt       2.80721395      -0.00000019      19.95723451        4       0.00000000       0.00182557      -0.00583006       0.02018391
Pt       5.61442781      -0.00000015      19.95723452        4       0.00000000      -0.00472105      -0.00750116       0.02158302
Pt       1.40360719       2.43111837      19.95723437        4       0.00000000      -0.00620713       0.00748608       0.01743439
Pt       4.21082081       2.43111836      19.95723446        4       0.00000000      -0.00156988       0.00051012       0.02351586
Pt       7.01803482       2.43111848      19.95723434        4       0.00000000       0.00327334       0.00721773       0.02000217
Pt       2.80721406       4.86223725      19.95723406        4       0.00000000      -0.00854881       0.00055636       0.01641446
Pt       5.61442807       4.86223733      19.95723425        4       0.00000000       0.00655586       0.00303299       0.02050410
Pt       8.42164141       4.86223722      19.95723441        4       0.00000000       0.00233547      -0.00083783      -0.05479124
Pt       1.40360726       0.81037259      22.29206792        3       0.00000000      -0.01066945       0.00351520      -0.03320067
Pt       4.21082127       0.81037250      22.29206797        3       0.00000000      -0.00148314       0.00487874      -0.06838004
Pt       7.01803474       0.81037256      22.29206789        3       0.00000000      -0.00323938       0.00681724      -0.03656508
Pt       2.80721450       3.24149124      22.29206781        3       0.00000000      -0.01018061       0.00146565      -0.06727651
Pt       5.61442761       3.24149125      22.29206792        3       0.00000000      -0.00678695       0.00570433      -0.06684553
Pt       8.42164154       3.24149129      22.29206811        3       0.00000000      -0.00999979       0.05240787      -0.10389449
Pt       4.21082092       5.67260996      22.29206802        3       0.00000000      -0.01208981       0.00621233      -0.03183307
Pt       7.01803486       5.67261036      22.29206779        3       0.00000000       0.03922693      -0.01967528      -0.07329424
Pt       9.82524821       5.67261064      22.29206811        3       0.00000000      -0.04554247      -0.01961042      -0.10043411
Pt      -0.00000056       1.62074568      24.58417368        2       0.00000000       0.01252538      -0.21847183       0.24644580
Pt       2.80721445       1.62074548      24.58417389        2       0.00000000       0.02097915      -0.01346760      -0.02713570
Pt       5.61442782       1.62074538      24.58417372        2       0.00000000       0.01284064      -0.01261473      -0.03288536
Pt       1.40360637       4.05186441      24.58417385        2       0.00000000      -0.04171723       0.02130866      -0.13880493
Pt       4.21082090       4.05186400      24.58417377        2       0.00000000       0.02309348      -0.01854778      -0.02910147
Pt       7.01803502       4.05186405      24.58417403        2       0.00000000       0.06643227       0.00766888      -0.09925052
Pt       2.80721280       6.48298343      24.58417368        2       0.00000000       0.20125844       0.09242993       0.26284528
Pt       5.61442797       6.48298325      24.58417384        2       0.00000000      -0.23562679       0.14490347       0.40646270
Pt       8.42164223       6.48298339      24.58417376        2       0.00000000       0.02701820      -0.06157701      -0.10467943
Pt       0.04971932      -0.03170086      27.03624091        1       0.00000000       0.00686920      -0.00598604       0.01667850
Pt       2.85782001      -0.01499525      26.90192784        1       0.00000000      -0.01507949       0.00072239      -0.00166104
Pt       5.61960138      -0.01684712      26.89700123        1       0.00000000      -0.00178881      -0.00055862      -0.00241083
Pt       1.43472209       2.43953723      26.89451725        1       0.00000000       0.00338336      -0.00295808      -0.00513600
Pt       4.23282353       2.41688913      26.91800564        1       0.00000000       0.00312312      -0.00052156       0.00629625
Pt       7.03519801       2.43201102      26.89698821        1       0.00000000      -0.00198326       0.00484421      -0.00337766
Pt       2.81435493       4.82661819      26.89648001        1       0.00000000       0.00613363      -0.00041087      -0.00492449
Pt       5.64998410       4.82523185      26.90134552        1       0.00000000      -0.00769000       0.01025490      -0.00306746
Pt       8.44550519       4.84822058      26.92514898        1       0.00000000       0.00045201      -0.00240815       0.00735846
N       -0.01991552       0.01194484      28.99074661        0       1.00000000      -0.02402953       0.02205205      -0.01259232
H       -0.45995833      -0.73088183      29.53308305        0       0.00000000       0.00768836      -0.00983110       0.00102048
H        0.39960775       0.76899303      29.52980189        0       0.00000000       0.00587159      -0.00362493      -0.00072014
