39
Lattice="8.421641763931781 0.0 0.0 4.2108208819658905 7.293355709136913 0.0 0.0 0.0 46.87624170604845" Properties=species:S:1:pos:R:3:tags:I:1:initial_magmoms:R:1:forces:R:3 charge=0 spin=0 energy=-202.0637607612934 free_energy=-202.0637607612934 stress="0.010098808445036411 5.55692968191579e-05 7.677500252611935e-05 5.55692968191579e-05 0.010010916739702225 3.193426164216362e-05 7.677500252611935e-05 3.193426164216362e-05 -0.00029053629259578884" pbc="T T T"
Pt       0.00000001       0.00000022      19.95723437        4       0.00000000      -0.00326313      -0.00052732       0.01371315
Pt       2.80721395      -0.00000019      19.95723451        4       0.00000000      -0.00129928      -0.00529428       0.01775076
Pt       5.61442781      -0.00000015      19.95723452        4       0.00000000      -0.00285166      -0.00733072       0.01960754
Pt       1.40360719       2.43111837      19.95723437        4       0.00000000      -0.00684606       0.00466438       0.01953780
Pt       4.21082081       2.43111836      19.95723446        4       0.00000000      -0.00248578      -0.00030088       0.02351056
Pt       7.01803482       2.43111848      19.95723434        4       0.00000000       0.00181554       0.00153513       0.01746757
Pt       2.80721406       4.86223725      19.95723406        4       0.00000000      -0.01017413       0.00072353       0.01638373
Pt       5.61442807       4.86223733      19.95723425        4       0.00000000       0.00154574       0.00201104       0.01886566
Pt       8.42164141       4.86223722      19.95723441        4       0.00000000       0.00323449       0.00126422      -0.04548405
Pt       1.40360726       0.81037259      22.29206792        3       0.00000000      -0.01264426      -0.00687110      -0.01276925
Pt       4.21082127       0.81037250      22.29206797        3       0.00000000      -0.00788712      -0.00422192      -0.06989729
Pt       7.01803474       0.81037256      22.29206789        3       0.00000000      -0.00457418       0.00655869      -0.02227199
Pt       2.80721450       3.24149124      22.29206781        3       0.00000000      -0.01334179      -0.00459088      -0.06012911
Pt       5.61442761       3.24149125      22.29206792        3       0.00000000      -0.00301925       0.00458454      -0.07041705
Pt       8.42164154       3.24149129      22.29206811        3       0.00000000      -0.01582198       0.06072938      -0.12561698
Pt       4.21082092       5.67260996      22.29206802        3       0.00000000      -0.00686378       0.00262286      -0.02197343
Pt       7.01803486       5.67261036      22.29206779        3       0.00000000       0.04528131      -0.03007833      -0.12615710
Pt       9.82524821       5.67261064      22.29206811        3       0.00000000      -0.05698222      -0.02770831      -0.08804079
Pt      -0.00000056       1.62074568      24.58417368        2       0.00000000       0.03146943      -0.21663451       0.25228962
Pt       2.80721445       1.62074548      24.58417389        2       0.00000000       0.03346202       0.00090094      -0.02156633
Pt       5.61442782       1.62074538      24.58417372        2       0.00000000       0.02130909      -0.00550633      -0.01476767
Pt       1.40360637       4.05186441      24.58417385        2       0.00000000      -0.01044361       0.02853982      -0.10501862
Pt       4.21082090       4.05186400      24.58417377        2       0.00000000       0.01822573       0.00689202      -0.02379281
Pt       7.01803502       4.05186405      24.58417403        2       0.00000000       0.07981492       0.02089829      -0.09726126
Pt       2.80721280       6.48298343      24.58417368        2       0.00000000       0.22409478       0.11261461       0.27523142
Pt       5.61442797       6.48298325      24.58417384        2       0.00000000      -0.18066271       0.13955973       0.29276115
Pt       8.42164223       6.48298339      24.58417376        2       0.00000000       0.04197489      -0.02945215      -0.05815206
Pt       0.03120905      -0.00437981      27.07320793        1       0.00000000      -0.00544894      -0.01811043       0.03045422
Pt       2.85523297       0.00345940      26.89667153        1       0.00000000       0.00700537      -0.00753885      -0.00799135
Pt       5.64396234       0.00172701      26.90356947        1       0.00000000      -0.02240874       0.00309181      -0.00058768
Pt       1.44477459       2.44984395      26.89297531        1       0.00000000      -0.01208175      -0.01113117       0.00581591
Pt       4.25121558       2.43972325      26.91717443        1       0.00000000      -0.02405154      -0.03554200      -0.01342537
Pt       7.05350893       2.44539802      26.89626695        1       0.00000000      -0.01708470      -0.00644714       0.00458708
Pt       2.83031421       4.85257174      26.90009307        1       0.00000000      -0.00364875       0.00856031       0.00856435
Pt       5.65805250       4.85462561      26.88946743        1       0.00000000      -0.00189328      -0.00133685       0.00394793
Pt       8.46189342       4.86662171      26.92416233        1       0.00000000      -0.03602973       0.00240842      -0.01141025
N        0.14657768      -0.01029731      29.08631210        0       1.00000000      -0.03280657      -0.00054878      -0.00381806
H       -0.34286918      -0.84306897      29.45316425        0       0.00000000      -0.00504132       0.02699448      -0.00531888
H       -0.35167561       0.81182399      29.46481254        0       0.00000000      -0.00957699      -0.01598236      -0.01462097
