39
Lattice="8.421641763931781 0.0 0.0 4.2108208819658905 7.293355709136913 0.0 0.0 0.0 46.87624170604845" Properties=species:S:1:pos:R:3:tags:I:1:initial_magmoms:R:1:forces:R:3 charge=0 spin=0 energy=-202.06235695269964 free_energy=-202.06235695269964 stress="0.010106729343533516 9.32388793444261e-05 0.00011793744488386437 9.32388793444261e-05 0.009993457235395908 6.109006790211424e-05 0.00011793744488386437 6.109006790211424e-05 -0.00031161156948655844" pbc="T T T"
Pt       0.00000001       0.00000022      19.95723437        4       0.00000000      -0.00298734      -0.00122244       0.01360246
Pt       2.80721395      -0.00000019      19.95723451        4       0.00000000      -0.00042659      -0.00737879       0.01768918
Pt       5.61442781      -0.00000015      19.95723452        4       0.00000000      -0.00330277      -0.00895776       0.01874662
Pt       1.40360719       2.43111837      19.95723437        4       0.00000000      -0.00651275       0.00275491       0.02019339
Pt       4.21082081       2.43111836      19.95723446        4       0.00000000      -0.00203756      -0.00083184       0.02345182
Pt       7.01803482       2.43111848      19.95723434        4       0.00000000       0.00085263      -0.00040702       0.01695055
Pt       2.80721406       4.86223725      19.95723406        4       0.00000000      -0.01010302       0.00022118       0.01776210
Pt       5.61442807       4.86223733      19.95723425        4       0.00000000       0.00158126       0.00077919       0.01854547
Pt       8.42164141       4.86223722      19.95723441        4       0.00000000       0.00329311       0.00150466      -0.04536659
Pt       1.40360726       0.81037259      22.29206792        3       0.00000000      -0.01239257      -0.01015165      -0.01270289
Pt       4.21082127       0.81037250      22.29206797        3       0.00000000      -0.00860935      -0.00678762      -0.06491800
Pt       7.01803474       0.81037256      22.29206789        3       0.00000000      -0.00397837       0.00281656      -0.02005004
Pt       2.80721450       3.24149124      22.29206781        3       0.00000000      -0.01424991      -0.00787089      -0.06517983
Pt       5.61442761       3.24149125      22.29206792        3       0.00000000      -0.00324410       0.00271424      -0.06940361
Pt       8.42164154       3.24149129      22.29206811        3       0.00000000      -0.01317685       0.05711923      -0.13019276
Pt       4.21082092       5.67260996      22.29206802        3       0.00000000      -0.00470247      -0.00172575      -0.02421429
Pt       7.01803486       5.67261036      22.29206779        3       0.00000000       0.04553837      -0.03604585      -0.13133077
Pt       9.82524821       5.67261064      22.29206811        3       0.00000000      -0.05494534      -0.03453429      -0.08121540
Pt      -0.00000056       1.62074568      24.58417368        2       0.00000000       0.03247752      -0.21599452       0.26920596
Pt       2.80721445       1.62074548      24.58417389        2       0.00000000       0.02875308       0.01499988      -0.03378090
Pt       5.61442782       1.62074538      24.58417372        2       0.00000000       0.02093587       0.00108176      -0.02171797
Pt       1.40360637       4.05186441      24.58417385        2       0.00000000       0.00289420       0.04428191      -0.06563850
Pt       4.21082090       4.05186400      24.58417377        2       0.00000000       0.01334917       0.02189140      -0.01570749
Pt       7.01803502       4.05186405      24.58417403        2       0.00000000       0.07686594       0.04499360      -0.11979678
Pt       2.80721280       6.48298343      24.58417368        2       0.00000000       0.23080993       0.12499359       0.29210022
Pt       5.61442797       6.48298325      24.58417384        2       0.00000000      -0.16455165       0.13692473       0.26224300
Pt       8.42164223       6.48298339      24.58417376        2       0.00000000       0.04476531      -0.02018414      -0.06123431
Pt       0.02789991       0.01228133      27.07452307        1       0.00000000      -0.01468493      -0.00546480       0.00946706
Pt       2.85613314       0.01869084      26.89503893        1       0.00000000       0.00359664      -0.02187004      -0.00183725
Pt       5.64452674       0.01906744      26.90617295        1       0.00000000      -0.03521524      -0.02243469      -0.00713420
Pt       1.44633194       2.46093532      26.89434599        1       0.00000000      -0.01813622       0.01549373      -0.00151113
Pt       4.24803806       2.45029161      26.91483892        1       0.00000000      -0.01786382      -0.01016568      -0.00268055
Pt       7.04894525       2.46476129      26.89194469        1       0.00000000      -0.00790128      -0.02310461       0.00878656
Pt       2.83857132       4.87544699      26.90662120        1       0.00000000      -0.03765154      -0.01772736      -0.00739302
Pt       5.66016906       4.86873468      26.89046259        1       0.00000000      -0.02493798       0.00494317       0.00919731
Pt       8.45603167       4.87955721      26.92326121        1       0.00000000       0.00775380       0.00390100      -0.01303752
N        0.14050020       0.08037270      29.08664003        0       1.00000000      -0.00260572      -0.00153994      -0.04354025
H        0.12336109      -0.88264681      29.45682482        0       0.00000000      -0.01351151      -0.03293492       0.02067656
H       -0.70060739       0.54919986      29.45753878        0       0.00000000      -0.03573824       0.00591973       0.02096589
