39
Lattice="8.421641763931781 0.0 0.0 4.2108208819658905 7.293355709136913 0.0 0.0 0.0 46.87624170604845" Properties=species:S:1:pos:R:3:tags:I:1:initial_magmoms:R:1:forces:R:3 charge=0 spin=0 energy=-202.06375694659613 free_energy=-202.06375694659613 stress="0.010098674334585667 5.560360295930877e-05 7.664148870389909e-05 5.560360295930877e-05 0.010011276230216026 3.186685353284702e-05 7.664148870389909e-05 3.186685353284702e-05 -0.00029064249247312546" pbc="T T T"
Pt       0.00000001       0.00000022      19.95723437        4       0.00000000      -0.00326025      -0.00052277       0.01371413
Pt       2.80721395      -0.00000019      19.95723451        4       0.00000000      -0.00129725      -0.00529251       0.01775260
Pt       5.61442781      -0.00000015      19.95723452        4       0.00000000      -0.00284947      -0.00733143       0.01961061
Pt       1.40360719       2.43111837      19.95723437        4       0.00000000      -0.00684653       0.00467053       0.01953896
Pt       4.21082081       2.43111836      19.95723446        4       0.00000000      -0.00247953      -0.00029869       0.02351005
Pt       7.01803482       2.43111848      19.95723434        4       0.00000000       0.00181799       0.00153928       0.01746499
Pt       2.80721406       4.86223725      19.95723406        4       0.00000000      -0.01017461       0.00072376       0.01638806
Pt       5.61442807       4.86223733      19.95723425        4       0.00000000       0.00154765       0.00201102       0.01886587
Pt       8.42164141       4.86223722      19.95723441        4       0.00000000       0.00322907       0.00126172      -0.04548702
Pt       1.40360726       0.81037259      22.29206792        3       0.00000000      -0.01263326      -0.00685862      -0.01278870
Pt       4.21082127       0.81037250      22.29206797        3       0.00000000      -0.00787725      -0.00421443      -0.06990273
Pt       7.01803474       0.81037256      22.29206789        3       0.00000000      -0.00455737       0.00656557      -0.02227647
Pt       2.80721450       3.24149124      22.29206781        3       0.00000000      -0.01332739      -0.00458626      -0.06013269
Pt       5.61442761       3.24149125      22.29206792        3       0.00000000      -0.00301049       0.00459040      -0.07041264
Pt       8.42164154       3.24149129      22.29206811        3       0.00000000      -0.01581202       0.06072760      -0.12559886
Pt       4.21082092       5.67260996      22.29206802        3       0.00000000      -0.00685122       0.00263560      -0.02197879
Pt       7.01803486       5.67261036      22.29206779        3       0.00000000       0.04527935      -0.03006570      -0.12614962
Pt       9.82524821       5.67261064      22.29206811        3       0.00000000      -0.05697956      -0.02770232      -0.08801664
Pt      -0.00000056       1.62074568      24.58417368        2       0.00000000       0.03141725      -0.21662869       0.25215623
Pt       2.80721445       1.62074548      24.58417389        2       0.00000000       0.03340749       0.00089534      -0.02166499
Pt       5.61442782       1.62074538      24.58417372        2       0.00000000       0.02127463      -0.00551770      -0.01480278
Pt       1.40360637       4.05186441      24.58417385        2       0.00000000      -0.01046681       0.02856856      -0.10507365
Pt       4.21082090       4.05186400      24.58417377        2       0.00000000       0.01816909       0.00690473      -0.02371233
Pt       7.01803502       4.05186405      24.58417403        2       0.00000000       0.07979575       0.02085605      -0.09737387
Pt       2.80721280       6.48298343      24.58417368        2       0.00000000       0.22408231       0.11258413       0.27536422
Pt       5.61442797       6.48298325      24.58417384        2       0.00000000      -0.18063501       0.13945039       0.29271337
Pt       8.42164223       6.48298339      24.58417376        2       0.00000000       0.04199446      -0.02947785      -0.05818908
Pt       0.03121864      -0.00445660      27.07314957        1       0.00000000      -0.00571308      -0.01814842       0.03047227
Pt       2.85522958       0.00344985      26.89665447        1       0.00000000       0.00687779      -0.00765355      -0.00792252
Pt       5.64393473       0.00173690      26.90357939        1       0.00000000      -0.02231859       0.00288661      -0.00061355
Pt       1.44470524       2.44983487      26.89295601        1       0.00000000      -0.01196338      -0.01118126       0.00584907
Pt       4.25113542       2.43967465      26.91716436        1       0.00000000      -0.02388192      -0.03538825      -0.01336493
Pt       7.05347817       2.44535728      26.89626151        1       0.00000000      -0.01713772      -0.00650980       0.00464959
Pt       2.83023665       4.85253557      26.90010837        1       0.00000000      -0.00346163       0.00865836       0.00850311
Pt       5.65805595       4.85453056      26.88947558        1       0.00000000      -0.00214542      -0.00112685       0.00389982
Pt       8.46181040       4.86659238      26.92414996        1       0.00000000      -0.03578591       0.00247317      -0.01133334
N        0.14684349      -0.01024803      29.08620990        0       1.00000000      -0.03390419      -0.00083132      -0.00235680
H       -0.35144237       0.81184893      29.46479319        0       0.00000000      -0.00910829      -0.01685436      -0.01507568
H       -0.34234822      -0.84309660      29.45333655        0       0.00000000      -0.00441444       0.02818803      -0.00622551
