39
Lattice="8.421641763931781 0.0 0.0 4.2108208819658905 7.293355709136913 0.0 0.0 0.0 46.87624170604845" Properties=species:S:1:pos:R:3:tags:I:1:initial_magmoms:R:1:forces:R:3 charge=0 spin=0 energy=-202.06396294024847 free_energy=-202.06396294024847 stress="0.010109122842550278 6.147642125142738e-05 7.125957927200943e-05 6.147642125142738e-05 0.010028705932199955 2.443955236230977e-05 7.125957927200943e-05 2.443955236230977e-05 -0.0002665315696503967" pbc="T T T"
Pt       0.00000001       0.00000022      19.95723437        4       0.00000000      -0.00332869      -0.00004862       0.01377872
Pt       2.80721395      -0.00000019      19.95723451        4       0.00000000      -0.00117522      -0.00507085       0.01793621
Pt       5.61442781      -0.00000015      19.95723452        4       0.00000000      -0.00319954      -0.00750243       0.01947442
Pt       1.40360719       2.43111837      19.95723437        4       0.00000000      -0.00710878       0.00454202       0.01951998
Pt       4.21082081       2.43111836      19.95723446        4       0.00000000      -0.00251493      -0.00003646       0.02351132
Pt       7.01803482       2.43111848      19.95723434        4       0.00000000       0.00185261       0.00154059       0.01762077
Pt       2.80721406       4.86223725      19.95723406        4       0.00000000      -0.01031708       0.00120423       0.01633547
Pt       5.61442807       4.86223733      19.95723425        4       0.00000000       0.00122329       0.00227182       0.01892249
Pt       8.42164141       4.86223722      19.95723441        4       0.00000000       0.00368637       0.00136730      -0.04560825
Pt       1.40360726       0.81037259      22.29206792        3       0.00000000      -0.01272419      -0.00601117      -0.01097097
Pt       4.21082127       0.81037250      22.29206797        3       0.00000000      -0.00814693      -0.00331932      -0.06941550
Pt       7.01803474       0.81037256      22.29206789        3       0.00000000      -0.00547675       0.00756187      -0.02269738
Pt       2.80721450       3.24149124      22.29206781        3       0.00000000      -0.01362707      -0.00324556      -0.06169681
Pt       5.61442761       3.24149125      22.29206792        3       0.00000000      -0.00370522       0.00589923      -0.07092437
Pt       8.42164154       3.24149129      22.29206811        3       0.00000000      -0.01626048       0.06130791      -0.12580103
Pt       4.21082092       5.67260996      22.29206802        3       0.00000000      -0.00721495       0.00339110      -0.02206525
Pt       7.01803486       5.67261036      22.29206779        3       0.00000000       0.04547577      -0.02983861      -0.12790728
Pt       9.82524821       5.67261064      22.29206811        3       0.00000000      -0.05710296      -0.02711838      -0.08753090
Pt      -0.00000056       1.62074568      24.58417368        2       0.00000000       0.03507510      -0.21742447       0.26262066
Pt       2.80721445       1.62074548      24.58417389        2       0.00000000       0.03020966      -0.00841410      -0.01495524
Pt       5.61442782       1.62074538      24.58417372        2       0.00000000       0.02440128      -0.01113283      -0.01644201
Pt       1.40360637       4.05186441      24.58417385        2       0.00000000      -0.00608271       0.02694027      -0.10632296
Pt       4.21082090       4.05186400      24.58417377        2       0.00000000       0.01982289       0.00390882      -0.01336063
Pt       7.01803502       4.05186405      24.58417403        2       0.00000000       0.07973022       0.01520663      -0.09722908
Pt       2.80721280       6.48298343      24.58417368        2       0.00000000       0.22735865       0.11007738       0.27449840
Pt       5.61442797       6.48298325      24.58417384        2       0.00000000      -0.18324612       0.14314000       0.29902041
Pt       8.42164223       6.48298339      24.58417376        2       0.00000000       0.04354079      -0.02660121      -0.05306948
Pt       0.03278081      -0.00398979      27.07616222        1       0.00000000      -0.00670130      -0.03013231       0.01617163
Pt       2.85554227      -0.00470055      26.90067620        1       0.00000000       0.01111121       0.01632798      -0.02275352
Pt       5.64924744      -0.00276941      26.90560234        1       0.00000000      -0.04244052       0.00799669      -0.00648616
Pt       1.44899243       2.45198714      26.89425733        1       0.00000000      -0.02351689      -0.03383083       0.00185118
Pt       4.25111999       2.42897596      26.91520985        1       0.00000000      -0.01918166      -0.00102878      -0.00942580
Pt       7.05178091       2.44227930      26.89749764        1       0.00000000      -0.00440727       0.00031090      -0.00351227
Pt       2.83271856       4.85174591      26.90174184        1       0.00000000       0.00326193      -0.00206733       0.00217287
Pt       5.66097060       4.85473530      26.88923697        1       0.00000000      -0.01767250      -0.01922602       0.00516080
Pt       8.46362465       4.86314295      26.92234662        1       0.00000000      -0.03591609       0.00216761      -0.00327930
N        0.13521238      -0.00918806      29.08805971        0       1.00000000      -0.02024471      -0.00165485       0.02240684
H       -0.34874568      -0.84307047      29.45988774        0       0.00000000      -0.00382129       0.02646729      -0.02616397
H       -0.36652974       0.81149075      29.46431570        0       0.00000000      -0.01161591      -0.00792566      -0.01338414
