39
Lattice="8.421641763931781 0.0 0.0 4.2108208819658905 7.293355709136913 0.0 0.0 0.0 46.87624170604845" Properties=species:S:1:pos:R:3:tags:I:1:initial_magmoms:R:1:forces:R:3 charge=0 spin=0 energy=-202.0637664833393 free_energy=-202.0637664833393 stress="0.009984922595322132 9.982741175917909e-06 -1.0551179911999498e-05 9.982741175917909e-06 0.010126780718564987 -8.291411359095946e-05 -1.0551179911999498e-05 -8.291411359095946e-05 -0.00028906328952871263" pbc="T T T"
Pt       0.00000001       0.00000022      19.95723437        4       0.00000000       0.00118700       0.00307731       0.01372471
Pt       2.80721395      -0.00000019      19.95723451        4       0.00000000       0.00042798      -0.00235191       0.01746889
Pt       5.61442781      -0.00000015      19.95723452        4       0.00000000       0.00096988      -0.00235220       0.01887342
Pt       1.40360719       2.43111837      19.95723437        4       0.00000000      -0.00491905       0.00613126       0.01957762
Pt       4.21082081       2.43111836      19.95723446        4       0.00000000       0.00099057       0.00230672       0.02351736
Pt       7.01803482       2.43111848      19.95723434        4       0.00000000       0.00571182       0.00844099       0.01631883
Pt       2.80721406       4.86223725      19.95723406        4       0.00000000      -0.00393559       0.00377396       0.01781526
Pt       5.61442807       4.86223733      19.95723425        4       0.00000000       0.00745597       0.00358655       0.01956303
Pt       8.42164141       4.86223722      19.95723441        4       0.00000000      -0.00052998      -0.00342819      -0.04549841
Pt       1.40360726       0.81037259      22.29206792        3       0.00000000       0.00789865       0.00066574      -0.02221752
Pt       4.21082127       0.81037250      22.29206797        3       0.00000000       0.00548065       0.00033714      -0.07062190
Pt       7.01803474       0.81037256      22.29206789        3       0.00000000       0.00574598       0.00466168      -0.02213057
Pt       2.80721450       3.24149124      22.29206781        3       0.00000000       0.00024153       0.00889453      -0.06970182
Pt       5.61442761       3.24149125      22.29206792        3       0.00000000       0.00276466       0.01380719      -0.06007746
Pt       8.42164154       3.24149129      22.29206811        3       0.00000000       0.00449185       0.06323684      -0.08806526
Pt       4.21082092       5.67260996      22.29206802        3       0.00000000       0.00041337       0.01429121      -0.01259689
Pt       7.01803486       5.67261036      22.29206779        3       0.00000000       0.06047620      -0.01669466      -0.12564549
Pt       9.82524821       5.67261064      22.29206811        3       0.00000000      -0.04866667      -0.02419724      -0.12623309
Pt      -0.00000056       1.62074568      24.58417368        2       0.00000000      -0.01444324      -0.25062060       0.27535450
Pt       2.80721445       1.62074548      24.58417389        2       0.00000000      -0.01562239      -0.01573281      -0.01468878
Pt       5.61442782       1.62074538      24.58417372        2       0.00000000      -0.00319639      -0.01899892      -0.02373344
Pt       1.40360637       4.05186441      24.58417385        2       0.00000000      -0.04649742      -0.02180709      -0.05816020
Pt       4.21082090       4.05186400      24.58417377        2       0.00000000      -0.01587873      -0.02928560      -0.02151632
Pt       7.01803502       4.05186405      24.58417403        2       0.00000000       0.02995527      -0.00528093      -0.10517170
Pt       2.80721280       6.48298343      24.58417368        2       0.00000000       0.21127295       0.08694410       0.29308471
Pt       5.61442797       6.48298325      24.58417384        2       0.00000000      -0.20333795       0.08124974       0.25252143
Pt       8.42164223       6.48298339      24.58417376        2       0.00000000      -0.02197008      -0.07920906      -0.09690370
Pt      -0.01959886      -0.02475696      27.07345422        1       0.00000000      -0.01219100       0.01374605       0.03002823
Pt       2.80175494      -0.03772889      26.89635584        1       0.00000000       0.00305027       0.01783888       0.00429960
Pt       5.58600552      -0.03381865      26.88949408        1       0.00000000      -0.00052216       0.00202816       0.00392060
Pt       1.39027189       2.40470809      26.90365081        1       0.00000000       0.01402699       0.01799455      -0.00082566
Pt       4.19800087       2.39194548      26.91711109        1       0.00000000      -0.01854577       0.03863578      -0.01326856
Pt       6.99817697       2.41598175      26.90005518        1       0.00000000       0.00870430      -0.00075138       0.00892275
Pt       2.78615645       4.81902472      26.89669170        1       0.00000000      -0.00989194      -0.00241746      -0.00832583
Pt       5.61011524       4.81736144      26.89295724        1       0.00000000      -0.00397103       0.01583915       0.00572664
Pt       8.40530243       4.82529820      26.92405479        1       0.00000000       0.02007365       0.02999281      -0.01108462
N       -0.08241185      -0.12187423      29.08649651        0       1.00000000       0.01605333       0.02924284      -0.00251661
H       -0.55811955       0.71869674      29.45373667        0       0.00000000       0.02695175      -0.01023642      -0.00644271
H        0.87869852      -0.10270157      29.46512231        0       0.00000000      -0.01022525       0.01664131      -0.01529095
