39
Lattice="8.421641763931781 0.0 0.0 4.2108208819658905 7.293355709136913 0.0 0.0 0.0 46.87624170604845" Properties=species:S:1:pos:R:3:tags:I:1:initial_magmoms:R:1:forces:R:3 charge=0 spin=0 energy=-202.06377983477972 free_energy=-202.06377983477972 stress="0.01008283905684948 -6.599396147066727e-05 -6.633761222474277e-05 -6.599396147066727e-05 0.010028878226876259 5.157128180144355e-05 -6.633761222474277e-05 5.157128180144355e-05 -0.0002873800112865865" pbc="T T T"
Pt       0.00000001       0.00000022      19.95723437        4       0.00000000       0.00209283      -0.00256122       0.01372611
Pt       2.80721395      -0.00000019      19.95723451        4       0.00000000       0.00445808      -0.00917620       0.01629599
Pt       5.61442781      -0.00000015      19.95723452        4       0.00000000      -0.00060220      -0.00824744       0.01957919
Pt       1.40360719       2.43111837      19.95723437        4       0.00000000      -0.00251785       0.00033359       0.01882414
Pt       4.21082081       2.43111836      19.95723446        4       0.00000000       0.00150838      -0.00201445       0.02351306
Pt       7.01803482       2.43111848      19.95723434        4       0.00000000       0.00524471       0.00151529       0.01775705
Pt       2.80721406       4.86223725      19.95723406        4       0.00000000      -0.00224442       0.00081731       0.01753027
Pt       5.61442807       4.86223733      19.95723425        4       0.00000000       0.00776451       0.00119256       0.01959339
Pt       8.42164141       4.86223722      19.95723441        4       0.00000000      -0.00269761       0.00217271      -0.04547244
Pt       1.40360726       0.81037259      22.29206792        3       0.00000000       0.00115402      -0.00730119      -0.02213779
Pt       4.21082127       0.81037250      22.29206797        3       0.00000000       0.01059135      -0.00924967      -0.06032378
Pt       7.01803474       0.81037256      22.29206789        3       0.00000000       0.01223294      -0.00744859      -0.01270320
Pt       2.80721450       3.24149124      22.29206781        3       0.00000000      -0.00244982      -0.00495776      -0.07046419
Pt       5.61442761       3.24149125      22.29206792        3       0.00000000       0.00764724      -0.00467735      -0.06964704
Pt       8.42164154       3.24149129      22.29206811        3       0.00000000       0.00340621       0.05426862      -0.12619399
Pt       4.21082092       5.67260996      22.29206802        3       0.00000000      -0.00330229      -0.00726724      -0.02204779
Pt       7.01803486       5.67261036      22.29206779        3       0.00000000       0.05254064      -0.03554352      -0.08812203
Pt       9.82524821       5.67261064      22.29206811        3       0.00000000      -0.04463977      -0.04407292      -0.12569407
Pt      -0.00000056       1.62074568      24.58417368        2       0.00000000      -0.03054761      -0.22689475       0.29332817
Pt       2.80721445       1.62074548      24.58417389        2       0.00000000      -0.01508283       0.01229183      -0.02380129
Pt       5.61442782       1.62074538      24.58417372        2       0.00000000      -0.01753375       0.02851643      -0.02132521
Pt       1.40360637       4.05186441      24.58417385        2       0.00000000      -0.05794151       0.05857955      -0.09676239
Pt       4.21082090       4.05186400      24.58417377        2       0.00000000      -0.00591368       0.02141000      -0.01467454
Pt       7.01803502       4.05186405      24.58417403        2       0.00000000       0.00458157       0.05113728      -0.05826748
Pt       2.80721280       6.48298343      24.58417368        2       0.00000000       0.17205547       0.13585073       0.25305972
Pt       5.61442797       6.48298325      24.58417384        2       0.00000000      -0.20989874       0.13800146       0.27525958
Pt       8.42164223       6.48298339      24.58417376        2       0.00000000      -0.01954989      -0.02317663      -0.10486359
Pt      -0.01171184       0.02927103      27.07377700        1       0.00000000       0.01714030       0.00409058       0.03048995
Pt       2.80390839       0.02486713      26.90004211        1       0.00000000      -0.00506575      -0.00732372       0.00885903
Pt       5.57756498       0.02632553      26.89301692        1       0.00000000       0.01618730      -0.00490393       0.00563766
Pt       1.38829134       2.47260834      26.88946260        1       0.00000000       0.00220356      -0.00030910       0.00413016
Pt       4.18311435       2.46188736      26.91714885        1       0.00000000       0.04301055      -0.00330022      -0.01344657
Pt       6.99106359       2.47103036      26.89669996        1       0.00000000       0.00274133       0.00938298      -0.00836698
Pt       2.77707771       4.88582924      26.89630428        1       0.00000000       0.01404410      -0.01118041       0.00469598
Pt       5.59819773       4.88702016      26.90354784        1       0.00000000       0.00800702      -0.02111308      -0.00040700
Pt       8.39758586       4.89499316      26.92419032        1       0.00000000       0.01665331      -0.03267308      -0.01155951
N       -0.06405265       0.13178310      29.08700574        0       1.00000000       0.01524720      -0.02615116      -0.00780986
H       -0.52769926      -0.71035009      29.46535252        0       0.00000000       0.01804692      -0.00191314      -0.01409156
H        0.90188986       0.12325062      29.45359854        0       0.00000000      -0.01857168      -0.01810436      -0.00409713
