39
Lattice="8.421641763931781 0.0 0.0 4.2108208819658905 7.293355709136913 0.0 0.0 0.0 46.87624170604845" Properties=species:S:1:pos:R:3:tags:I:1:initial_magmoms:R:1:forces:R:3 charge=0 spin=0 energy=-201.9339599647846 free_energy=-201.9339599647846 stress="0.009741200134158134 -1.1085320693382528e-05 -2.5870622266666032e-06 -1.1085320693382528e-05 0.009829697199165821 -5.123396113049239e-05 -2.5870622266666032e-06 -5.123396113049239e-05 -0.00029181918944232166" pbc="T T T"
Pt       0.00000001       0.00000022      19.95723437        4       0.00000000       0.00058449      -0.00189542       0.01554618
Pt       2.80721395      -0.00000019      19.95723451        4       0.00000000       0.00380070      -0.00767641       0.01637417
Pt       5.61442781      -0.00000015      19.95723452        4       0.00000000      -0.00337335      -0.00912316       0.01748884
Pt       1.40360719       2.43111837      19.95723437        4       0.00000000      -0.00589861       0.00416360       0.02046947
Pt       4.21082081       2.43111836      19.95723446        4       0.00000000       0.00034501      -0.00161190       0.02350409
Pt       7.01803482       2.43111848      19.95723434        4       0.00000000       0.00412236       0.00448643       0.02019971
Pt       2.80721406       4.86223725      19.95723406        4       0.00000000      -0.00788481      -0.00076660       0.02002675
Pt       5.61442807       4.86223733      19.95723425        4       0.00000000       0.00884077      -0.00033237       0.02156317
Pt       8.42164141       4.86223722      19.95723441        4       0.00000000      -0.00044253       0.00242746      -0.05480805
Pt       1.40360726       0.81037259      22.29206792        3       0.00000000       0.00065204      -0.01360767      -0.03198891
Pt       4.21082127       0.81037250      22.29206797        3       0.00000000       0.00376361      -0.00948986      -0.06747190
Pt       7.01803474       0.81037256      22.29206789        3       0.00000000       0.00223037      -0.01090006      -0.03314811
Pt       2.80721450       3.24149124      22.29206781        3       0.00000000      -0.00152058      -0.00878806      -0.06691864
Pt       5.61442761       3.24149125      22.29206792        3       0.00000000      -0.00345119      -0.00367018      -0.06813826
Pt       8.42164154       3.24149129      22.29206811        3       0.00000000      -0.00259118       0.04374926      -0.07327653
Pt       4.21082092       5.67260996      22.29206802        3       0.00000000      -0.00421955      -0.00619366      -0.03639470
Pt       7.01803486       5.67261036      22.29206779        3       0.00000000       0.03977477      -0.02968319      -0.10040938
Pt       9.82524821       5.67261064      22.29206811        3       0.00000000      -0.04039540      -0.03488414      -0.10397723
Pt      -0.00000056       1.62074568      24.58417368        2       0.00000000      -0.00762942      -0.27653062       0.40633938
Pt       2.80721445       1.62074548      24.58417389        2       0.00000000       0.00454641       0.02921440      -0.02888872
Pt       5.61442782       1.62074538      24.58417372        2       0.00000000       0.00101166       0.02505649      -0.02711029
Pt       1.40360637       4.05186441      24.58417385        2       0.00000000      -0.03978152       0.05356325      -0.09918755
Pt       4.21082090       4.05186400      24.58417377        2       0.00000000       0.00451213       0.01749796      -0.03281870
Pt       7.01803502       4.05186405      24.58417403        2       0.00000000       0.03982628       0.05426124      -0.10484096
Pt       2.80721280       6.48298343      24.58417368        2       0.00000000       0.18291637       0.12008598       0.24640758
Pt       5.61442797       6.48298325      24.58417384        2       0.00000000      -0.18058690       0.12807411       0.26276216
Pt       8.42164223       6.48298339      24.58417376        2       0.00000000       0.00235256      -0.04684882      -0.13873728
Pt       0.00259643       0.05890439      27.03624736        1       0.00000000       0.00175460       0.00887143       0.01662960
Pt       2.83449384       0.02399428      26.89647799        1       0.00000000      -0.00270969       0.00550338      -0.00491225
Pt       5.59158401       0.02273885      26.89451651        1       0.00000000       0.00085372       0.00438642      -0.00512059
Pt       1.41787991       2.48041439      26.90134457        1       0.00000000      -0.00502959      -0.01178266      -0.00304463
Pt       4.21214575       2.45728700      26.91801000        1       0.00000000      -0.00111104       0.00297789       0.00627339
Pt       7.00572117       2.48243928      26.90192458        1       0.00000000       0.00699810      -0.01338937      -0.00182599
Pt       2.79786152       4.87665590      26.89699194        1       0.00000000      -0.00329376      -0.00413871      -0.00322130
Pt       5.62643184       4.87514418      26.89700153        1       0.00000000       0.00137727      -0.00127745      -0.00243507
Pt       8.42185121       4.88991086      26.92515224        1       0.00000000       0.00186012       0.00160452       0.00734082
N       -0.00038960      -0.02314196      28.99075270        0       1.00000000      -0.00681431      -0.03156064      -0.01253035
H        0.86294092      -0.03293016      29.53308891        0       0.00000000       0.00454002       0.01145392       0.00092909
H       -0.86577275      -0.03846060      29.52980150        0       0.00000000       0.00006989       0.00677311      -0.00064881
