39
Lattice="8.421641763931781 0.0 0.0 4.2108208819658905 7.293355709136913 0.0 0.0 0.0 46.87624170604845" Properties=species:S:1:pos:R:3:tags:I:1:initial_magmoms:R:1:forces:R:3 charge=0 spin=0 energy=-201.93396187213324 free_energy=-201.93396187213324 stress="0.009816739708185196 -3.406582254683599e-05 -4.4382308260537684e-05 -3.406582254683599e-05 0.009754103608429432 2.7870337362401187e-05 -4.4382308260537684e-05 2.7870337362401187e-05 -0.0002917986421380192" pbc="T T T"
Pt       0.00000001       0.00000022      19.95723437        4       0.00000000      -0.00193241       0.00044399       0.01551669
Pt       2.80721395      -0.00000019      19.95723451        4       0.00000000       0.00182559      -0.00583010       0.02018404
Pt       5.61442781      -0.00000015      19.95723452        4       0.00000000      -0.00472107      -0.00750111       0.02158300
Pt       1.40360719       2.43111837      19.95723437        4       0.00000000      -0.00620721       0.00748595       0.01743460
Pt       4.21082081       2.43111836      19.95723446        4       0.00000000      -0.00157014       0.00051018       0.02351586
Pt       7.01803482       2.43111848      19.95723434        4       0.00000000       0.00327356       0.00721775       0.02000240
Pt       2.80721406       4.86223725      19.95723406        4       0.00000000      -0.00854879       0.00055615       0.01641448
Pt       5.61442807       4.86223733      19.95723425        4       0.00000000       0.00655605       0.00303298       0.02050410
Pt       8.42164141       4.86223722      19.95723441        4       0.00000000       0.00233533      -0.00083783      -0.05479116
Pt       1.40360726       0.81037259      22.29206792        3       0.00000000      -0.01066974       0.00351506      -0.03320080
Pt       4.21082127       0.81037250      22.29206797        3       0.00000000      -0.00148298       0.00487871      -0.06837987
Pt       7.01803474       0.81037256      22.29206789        3       0.00000000      -0.00323944       0.00681742      -0.03656533
Pt       2.80721450       3.24149124      22.29206781        3       0.00000000      -0.01018083       0.00146591      -0.06727585
Pt       5.61442761       3.24149125      22.29206792        3       0.00000000      -0.00678685       0.00570441      -0.06684489
Pt       8.42164154       3.24149129      22.29206811        3       0.00000000      -0.00999981       0.05240802      -0.10389467
Pt       4.21082092       5.67260996      22.29206802        3       0.00000000      -0.01208981       0.00621291      -0.03183376
Pt       7.01803486       5.67261036      22.29206779        3       0.00000000       0.03922695      -0.01967495      -0.07329319
Pt       9.82524821       5.67261064      22.29206811        3       0.00000000      -0.04554279      -0.01961054      -0.10043422
Pt      -0.00000056       1.62074568      24.58417368        2       0.00000000       0.01252717      -0.21846999       0.24644743
Pt       2.80721445       1.62074548      24.58417389        2       0.00000000       0.02097781      -0.01346655      -0.02713361
Pt       5.61442782       1.62074538      24.58417372        2       0.00000000       0.01284083      -0.01261525      -0.03288377
Pt       1.40360637       4.05186441      24.58417385        2       0.00000000      -0.04171531       0.02130500      -0.13880572
Pt       4.21082090       4.05186400      24.58417377        2       0.00000000       0.02309408      -0.01854842      -0.02910251
Pt       7.01803502       4.05186405      24.58417403        2       0.00000000       0.06643104       0.00766800      -0.09925196
Pt       2.80721280       6.48298343      24.58417368        2       0.00000000       0.20125908       0.09242947       0.26284721
Pt       5.61442797       6.48298325      24.58417384        2       0.00000000      -0.23562737       0.14490372       0.40646356
Pt       8.42164223       6.48298339      24.58417376        2       0.00000000       0.02701706      -0.06157593      -0.10468304
Pt       0.04971836      -0.03170035      27.03624238        1       0.00000000       0.00687702      -0.00598845       0.01668163
Pt       2.85781972      -0.01499542      26.90192775        1       0.00000000      -0.01508325       0.00072210      -0.00166030
Pt       5.61960082      -0.01684753      26.89700152        1       0.00000000      -0.00178284      -0.00055609      -0.00241161
Pt       1.43472263       2.43953701      26.89451886        1       0.00000000       0.00338079      -0.00295931      -0.00514514
Pt       4.23282374       2.41688906      26.91800407        1       0.00000000       0.00312191      -0.00052224       0.00629682
Pt       7.03519823       2.43201148      26.89698871        1       0.00000000      -0.00197979       0.00484279      -0.00337940
Pt       2.81435526       4.82661734      26.89648136        1       0.00000000       0.00613112      -0.00040679      -0.00492318
Pt       5.64998412       4.82523224      26.90134539        1       0.00000000      -0.00768968       0.01025639      -0.00306768
Pt       8.44550579       4.84822001      26.92514715        1       0.00000000       0.00044775      -0.00240826       0.00736652
N       -0.01991911       0.01194753      28.99074703        0       1.00000000      -0.02406947       0.02201157      -0.01255159
H        0.39960902       0.76899213      29.52980409        0       0.00000000       0.00588160      -0.00361954      -0.00072862
H       -0.45995668      -0.73088242      29.53308482        0       0.00000000       0.00771522      -0.00979739       0.00098308
