36
Lattice="8.421641763931781 0.0 0.0 4.2108208819658905 7.293355709136913 0.0 0.0 0.0 46.87624170604845" Properties=species:S:1:pos:R:3:tags:I:1:forces:R:3 charge=0 spin=0 energy=-186.93033381965532 free_energy=-186.93033381965532 stress="0.00856211967766285 -1.7862067380747249e-09 -4.440657286330918e-10 -1.7862067380747249e-09 0.008562121540307999 -2.721866287913599e-09 -4.440657286330918e-10 -2.721866287913599e-09 -0.003328339196741581" pbc="T T T"
Pt       0.00000000       0.00000000      20.00000000        4       0.00000197      -0.00000287      -0.22563674
Pt       2.80721392       0.00000000      20.00000000        4       0.00000028      -0.00000205      -0.22563586
Pt       5.61442784       0.00000000      20.00000000        4      -0.00000240      -0.00000129      -0.22563516
Pt       1.40360696       2.43111857      20.00000000        4       0.00000127       0.00000003      -0.22563794
Pt       4.21082088       2.43111857      20.00000000        4       0.00000193       0.00000001      -0.22563611
Pt       7.01803480       2.43111857      20.00000000        4      -0.00000253      -0.00000027      -0.22563814
Pt       2.80721392       4.86223714      20.00000000        4       0.00000081       0.00000103      -0.22563758
Pt       5.61442784       4.86223714      20.00000000        4      -0.00000237       0.00000163      -0.22563598
Pt       8.42164176       4.86223714      20.00000000        4       0.00000138       0.00000261      -0.22563733
Pt       1.40360696       0.81037286      22.29208057        3       0.00000148      -0.00000383       0.21236126
Pt       4.21082088       0.81037286      22.29208057        3       0.00000368      -0.00000312       0.21236090
Pt       7.01803480       0.81037286      22.29208057        3      -0.00000395      -0.00000294       0.21236154
Pt       2.80721392       3.24149143      22.29208057        3       0.00000087      -0.00000077       0.21235913
Pt       5.61442784       3.24149143      22.29208057        3      -0.00000339       0.00000013       0.21236056
Pt       8.42164176       3.24149143      22.29208057        3       0.00000271       0.00000092       0.21236099
Pt       4.21082088       5.67261000      22.29208057        3       0.00000485       0.00000160       0.21235865
Pt       7.01803480       5.67261000      22.29208057        3      -0.00000233       0.00000347       0.21235973
Pt       9.82524872       5.67261000      22.29208057        3      -0.00000262       0.00000392       0.21236129
Pt       0.00000000       1.62074571      24.58416114        2       0.00000321      -0.00000152      -0.21236053
Pt       2.80721392       1.62074571      24.58416114        2       0.00000095      -0.00000289      -0.21236001
Pt       5.61442784       1.62074571      24.58416114        2      -0.00000300      -0.00000312      -0.21236071
Pt       1.40360696       4.05186428      24.58416114        2      -0.00000294       0.00000156      -0.21236053
Pt       4.21082088       4.05186428      24.58416114        2       0.00000485      -0.00000006      -0.21235985
Pt       7.01803480       4.05186428      24.58416114        2      -0.00000246       0.00000014      -0.21236068
Pt       2.80721392       6.48298285      24.58416114        2      -0.00000711       0.00000228      -0.21236080
Pt       5.61442784       6.48298285      24.58416114        2      -0.00000173       0.00000225      -0.21236086
Pt       8.42164176       6.48298285      24.58416114        2       0.00000519       0.00000377      -0.21235973
Pt       0.00000000       0.00000000      26.87624171        1       0.00000258      -0.00000212       0.22563721
Pt       2.80721392       0.00000000      26.87624171        1       0.00000067      -0.00000140       0.22563599
Pt       5.61442784       0.00000000      26.87624171        1      -0.00000213      -0.00000201       0.22563443
Pt       1.40360696       2.43111857      26.87624171        1       0.00000128      -0.00000026       0.22563829
Pt       4.21082088       2.43111857      26.87624171        1       0.00000197      -0.00000038       0.22563632
Pt       7.01803480       2.43111857      26.87624171        1      -0.00000255       0.00000011       0.22563823
Pt       2.80721392       4.86223714      26.87624171        1       0.00000041       0.00000163       0.22563742
Pt       5.61442784       4.86223714      26.87624171        1      -0.00000226       0.00000112       0.22563586
Pt       8.42164176       4.86223714      26.87624171        1       0.00000161       0.00000281       0.22563691
