36
Lattice="8.421641763931781 0.0 0.0 4.2108208819658905 7.293355709136913 0.0 0.0 0.0 46.87624170604845" Properties=species:S:1:pos:R:3:tags:I:1:forces:R:3 charge=0 spin=0 energy=-187.00367709663286 free_energy=-187.00367709663286 stress="0.010496649891138077 1.1661996923706397e-09 2.06035388750081e-09 1.1661996923706397e-09 0.010496661998331547 -1.1908655173087368e-09 2.06035388750081e-09 -1.1908655173087368e-09 4.6220793592510745e-05" pbc="T T T"
Pt      -0.00000011      -0.00000005      19.95723442        4      -0.00000098       0.00000372       0.01626876
Pt       2.80721395      -0.00000019      19.95723450        4      -0.00000097       0.00000292       0.01627044
Pt       5.61442786      -0.00000007      19.95723452        4       0.00000048       0.00000352       0.01627116
Pt       1.40360721       2.43111839      19.95723434        4      -0.00000073       0.00000180       0.01628136
Pt       4.21082082       2.43111837      19.95723444        4       0.00000248       0.00000129       0.01627160
Pt       7.01803481       2.43111844      19.95723433        4      -0.00000083       0.00000034       0.01628083
Pt       2.80721415       4.86223733      19.95723415        4      -0.00000220      -0.00000450       0.01627841
Pt       5.61442796       4.86223739      19.95723433        4       0.00000031      -0.00000537       0.01627739
Pt       8.42164143       4.86223725      19.95723439        4       0.00000209      -0.00000462       0.01627154
Pt       1.40360728       0.81037261      22.29206792        3      -0.00000145       0.00000402      -0.04298094
Pt       4.21082128       0.81037249      22.29206789        3      -0.00000107       0.00000546      -0.04298239
Pt       7.01803472       0.81037258      22.29206780        3       0.00000058       0.00000349      -0.04298434
Pt       2.80721447       3.24149123      22.29206774        3      -0.00000817       0.00000289      -0.04298382
Pt       5.61442762       3.24149120      22.29206786        3       0.00000415       0.00000187      -0.04298517
Pt       8.42164156       3.24149131      22.29206806        3       0.00000359      -0.00000089      -0.04298683
Pt       4.21082090       5.67260998      22.29206740        3       0.00000033       0.00000073      -0.04296527
Pt       7.01803486       5.67261041      22.29206774        3      -0.00000511      -0.00000510      -0.04297937
Pt       9.82524817       5.67261060      22.29206803        3       0.00000848      -0.00001015      -0.04298361
Pt      -0.00000054       1.62074568      24.58417374        2       0.00000476      -0.00000202       0.04298519
Pt       2.80721436       1.62074546      24.58417392        2      -0.00000536       0.00000490       0.04298235
Pt       5.61442782       1.62074536      24.58417379        2      -0.00000159       0.00000749       0.04298246
Pt       1.40360636       4.05186439      24.58417387        2       0.00000672      -0.00000270       0.04298600
Pt       4.21082089       4.05186396      24.58417387        2       0.00000033       0.00000765       0.04298139
Pt       7.01803504       4.05186408      24.58417404        2      -0.00000431       0.00000515       0.04298409
Pt       2.80721273       6.48298349      24.58417384        2       0.00001621      -0.00001058       0.04298089
Pt       5.61442806       6.48298330      24.58417399        2      -0.00000766      -0.00000572       0.04297948
Pt       8.42164222       6.48298344      24.58417375        2      -0.00000918      -0.00000691       0.04298496
Pt       0.00000046      -0.00000001      26.91900751        1       0.00000007       0.00000209      -0.01628053
Pt       2.80721389      -0.00000011      26.91900728        1      -0.00000060       0.00000170      -0.01627046
Pt       5.61442789      -0.00000009      26.91900709        1      -0.00000023       0.00000112      -0.01626936
Pt       1.40360736       2.43111854      26.91900745        1      -0.00000046       0.00000129      -0.01628155
Pt       4.21082083       2.43111858      26.91900724        1       0.00000156       0.00000093      -0.01627218
Pt       7.01803490       2.43111863      26.91900727        1      -0.00000015      -0.00000054      -0.01627139
Pt       2.80721397       4.86223724      26.91900753        1      -0.00000339      -0.00000219      -0.01628130
Pt       5.61442793       4.86223740      26.91900733        1      -0.00000079      -0.00000241      -0.01628055
Pt       8.42164127       4.86223704      26.91900740        1       0.00000294      -0.00000055      -0.01627937
