27
Lattice="8.421641763931781 0.0 0.0 4.2108208819658905 7.293355709136913 0.0 0.0 0.0 44.584161137365626" Properties=species:S:1:pos:R:3:tags:I:1:forces:R:3 energy=-153.11451721191406 free_energy=-153.11451721191406 stress="0.010732296854257584 3.226025696578816e-11 -8.388173489137785e-10 3.226025696578816e-11 0.010732288472354412 2.7533039737015486e-10 -8.388173489137785e-10 2.7533039737015486e-10 -5.54819853277877e-05" pbc="T T T"
Pt       1.40360696       0.81037286      20.00000000        3       0.00000086      -0.00000233      -0.00368652
Pt       4.21082088       0.81037286      20.00000000        3       0.00000249      -0.00000165      -0.00368553
Pt       7.01803480       0.81037286      20.00000000        3      -0.00000240      -0.00000198      -0.00368688
Pt       2.80721392       3.24149143      20.00000000        3       0.00000069      -0.00000028      -0.00368789
Pt       5.61442784       3.24149143      20.00000000        3      -0.00000175       0.00000001      -0.00368714
Pt       8.42164176       3.24149143      20.00000000        3       0.00000122       0.00000068      -0.00368804
Pt       4.21082088       5.67261000      20.00000000        3       0.00000191       0.00000140      -0.00368670
Pt       7.01803480       5.67261000      20.00000000        3      -0.00000192       0.00000233      -0.00368756
Pt       9.82524872       5.67261000      20.00000000        3      -0.00000107       0.00000269      -0.00368673
Pt       0.00000000       1.62074571      22.29208057        2       0.00000165      -0.00000237       0.00000902
Pt       2.80721392       1.62074571      22.29208057        2       0.00000105      -0.00000132       0.00000909
Pt       5.61442784       1.62074571      22.29208057        2      -0.00000286      -0.00000139       0.00000905
Pt       1.40360696       4.05186428      22.29208057        2       0.00000153       0.00000009       0.00000936
Pt       4.21082088       4.05186428      22.29208057        2       0.00000200       0.00000002       0.00001011
Pt       7.01803480       4.05186428      22.29208057        2      -0.00000327       0.00000014       0.00000926
Pt       2.80721392       6.48298285      22.29208057        2       0.00000001       0.00000060       0.00000911
Pt       5.61442784       6.48298285      22.29208057        2      -0.00000166       0.00000067       0.00000933
Pt       8.42164176       6.48298285      22.29208057        2       0.00000117       0.00000281       0.00000916
Pt       0.00000000       0.00000000      24.58416114        1       0.00000208      -0.00000178       0.00367695
Pt       2.80721392       0.00000000      24.58416114        1      -0.00000002      -0.00000073       0.00367722
Pt       5.61442784       0.00000000      24.58416114        1      -0.00000191      -0.00000085       0.00367692
Pt       1.40360696       2.43111857      24.58416114        1       0.00000090      -0.00000041       0.00367838
Pt       4.21082088       2.43111857      24.58416114        1       0.00000228      -0.00000033       0.00367740
Pt       7.01803480       2.43111857      24.58416114        1      -0.00000244      -0.00000005       0.00367945
Pt       2.80721392       4.86223714      24.58416114        1       0.00000042       0.00000063       0.00367793
Pt       5.61442784       4.86223714      24.58416114        1      -0.00000206       0.00000093       0.00367734
Pt       8.42164176       4.86223714      24.58416114        1       0.00000111       0.00000250       0.00367829
