36
Lattice="8.421641763931781 0.0 0.0 4.2108208819658905 7.293355709136913 0.0 0.0 0.0 46.87624170604845" Properties=species:S:1:pos:R:3:tags:I:1:forces:R:3 charge=0 spin=0 energy=-186.93033381965532 free_energy=-186.93033381965532 stress="0.00856211967766285 -1.5500143391022903e-09 -5.476072373333807e-10 -1.5500143391022903e-09 0.008562124334275723 -2.4300539358534934e-09 -5.476072373333807e-10 -2.4300539358534934e-09 -0.0033283408265560865" pbc="T T T"
Pt       0.00000000       0.00000000      20.00000000        4       0.00000209      -0.00000286      -0.22563666
Pt       2.80721392       0.00000000      20.00000000        4       0.00000030      -0.00000208      -0.22563577
Pt       5.61442784       0.00000000      20.00000000        4      -0.00000249      -0.00000127      -0.22563513
Pt       1.40360696       2.43111857      20.00000000        4       0.00000118       0.00000005      -0.22563794
Pt       4.21082088       2.43111857      20.00000000        4       0.00000195       0.00000006      -0.22563617
Pt       7.01803480       2.43111857      20.00000000        4      -0.00000262      -0.00000030      -0.22563817
Pt       2.80721392       4.86223714      20.00000000        4       0.00000077       0.00000096      -0.22563753
Pt       5.61442784       4.86223714      20.00000000        4      -0.00000229       0.00000160      -0.22563598
Pt       8.42164176       4.86223714      20.00000000        4       0.00000144       0.00000260      -0.22563732
Pt       1.40360696       0.81037286      22.29208057        3       0.00000148      -0.00000385       0.21236129
Pt       4.21082088       0.81037286      22.29208057        3       0.00000367      -0.00000315       0.21236090
Pt       7.01803480       0.81037286      22.29208057        3      -0.00000391      -0.00000296       0.21236153
Pt       2.80721392       3.24149143      22.29208057        3       0.00000091      -0.00000073       0.21235913
Pt       5.61442784       3.24149143      22.29208057        3      -0.00000339       0.00000014       0.21236059
Pt       8.42164176       3.24149143      22.29208057        3       0.00000270       0.00000095       0.21236099
Pt       4.21082088       5.67261000      22.29208057        3       0.00000480       0.00000159       0.21235862
Pt       7.01803480       5.67261000      22.29208057        3      -0.00000228       0.00000347       0.21235973
Pt       9.82524872       5.67261000      22.29208057        3      -0.00000263       0.00000392       0.21236125
Pt       0.00000000       1.62074571      24.58416114        2       0.00000321      -0.00000154      -0.21236044
Pt       2.80721392       1.62074571      24.58416114        2       0.00000089      -0.00000289      -0.21235999
Pt       5.61442784       1.62074571      24.58416114        2      -0.00000299      -0.00000312      -0.21236074
Pt       1.40360696       4.05186428      24.58416114        2      -0.00000294       0.00000156      -0.21236053
Pt       4.21082088       4.05186428      24.58416114        2       0.00000484      -0.00000005      -0.21235988
Pt       7.01803480       4.05186428      24.58416114        2      -0.00000246       0.00000015      -0.21236065
Pt       2.80721392       6.48298285      24.58416114        2      -0.00000712       0.00000226      -0.21236083
Pt       5.61442784       6.48298285      24.58416114        2      -0.00000177       0.00000227      -0.21236086
Pt       8.42164176       6.48298285      24.58416114        2       0.00000524       0.00000378      -0.21235973
Pt       0.00000000       0.00000000      26.87624171        1       0.00000257      -0.00000208       0.22563721
Pt       2.80721392       0.00000000      26.87624171        1       0.00000065      -0.00000143       0.22563598
Pt       5.61442784       0.00000000      26.87624171        1      -0.00000214      -0.00000208       0.22563441
Pt       1.40360696       2.43111857      26.87624171        1       0.00000133      -0.00000026       0.22563823
Pt       4.21082088       2.43111857      26.87624171        1       0.00000195      -0.00000036       0.22563632
Pt       7.01803480       2.43111857      26.87624171        1      -0.00000252       0.00000013       0.22563824
Pt       2.80721392       4.86223714      26.87624171        1       0.00000042       0.00000164       0.22563742
Pt       5.61442784       4.86223714      26.87624171        1      -0.00000226       0.00000108       0.22563586
Pt       8.42164176       4.86223714      26.87624171        1       0.00000156       0.00000281       0.22563691
