36
Lattice="8.421641763931781 0.0 0.0 4.2108208819658905 7.293355709136913 0.0 0.0 0.0 46.87624170604845" Properties=species:S:1:pos:R:3:tags:I:1:forces:R:3 charge=0 spin=0 energy=-187.00367709663286 free_energy=-187.00367709663286 stress="0.010496660135686398 1.4370035161803685e-09 9.666821787490676e-10 1.4370035161803685e-09 0.01049667689949274 -1.4843256623819912e-09 9.666821787490676e-10 -1.4843256623819912e-09 4.6239230869105086e-05" pbc="T T T"
Pt      -0.00000015      -0.00000006      19.95723436        4      -0.00000079       0.00000388       0.01627712
Pt       2.80721405      -0.00000018      19.95723442        4      -0.00000179       0.00000236       0.01627086
Pt       5.61442785      -0.00000006      19.95723447        4       0.00000074       0.00000317       0.01627131
Pt       1.40360720       2.43111843      19.95723428        4      -0.00000162       0.00000112       0.01628108
Pt       4.21082082       2.43111836      19.95723441        4       0.00000250       0.00000142       0.01627211
Pt       7.01803478       2.43111845      19.95723426        4      -0.00000026       0.00000020       0.01628064
Pt       2.80721413       4.86223735      19.95723414        4      -0.00000098      -0.00000399       0.01627799
Pt       5.61442796       4.86223738      19.95723429        4       0.00000062      -0.00000459       0.01627759
Pt       8.42164141       4.86223724      19.95723434        4       0.00000144      -0.00000471       0.01627956
Pt       1.40360733       0.81037260      22.29206793        3      -0.00000345       0.00000195      -0.04298406
Pt       4.21082123       0.81037251      22.29206792        3      -0.00000182       0.00000463      -0.04298269
Pt       7.01803472       0.81037256      22.29206776        3       0.00000212       0.00000209      -0.04298662
Pt       2.80721448       3.24149122      22.29206774        3      -0.00000826       0.00000346      -0.04298399
Pt       5.61442763       3.24149122      22.29206786        3       0.00000471       0.00000262      -0.04298550
Pt       8.42164156       3.24149119      22.29206803        3       0.00000310       0.00000231      -0.04298837
Pt       4.21082091       5.67260999      22.29206742        3       0.00000037       0.00000278      -0.04296791
Pt       7.01803487       5.67261041      22.29206777        3      -0.00000321      -0.00000633      -0.04298261
Pt       9.82524822       5.67261062      22.29206804        3       0.00000639      -0.00001099      -0.04298606
Pt      -0.00000032       1.62074569      24.58417384        2       0.00000310      -0.00000060       0.04298703
Pt       2.80721439       1.62074547      24.58417393        2      -0.00000754       0.00000561       0.04298254
Pt       5.61442771       1.62074538      24.58417374        2       0.00000382       0.00000655       0.04298450
Pt       1.40360637       4.05186447      24.58417391        2       0.00000697      -0.00000345       0.04298589
Pt       4.21082086       4.05186395      24.58417388        2      -0.00000011       0.00000845       0.04298200
Pt       7.01803501       4.05186413      24.58417404        2      -0.00000393       0.00000287       0.04298650
Pt       2.80721271       6.48298339      24.58417380        2       0.00001606      -0.00000957       0.04298136
Pt       5.61442803       6.48298331      24.58417399        2      -0.00000787      -0.00000528       0.04298007
Pt       8.42164222       6.48298337      24.58417377        2      -0.00000866      -0.00000751       0.04298483
Pt       0.00000048      -0.00000000      26.91900753        1      -0.00000080       0.00000061      -0.01628000
Pt       2.80721393      -0.00000013      26.91900730        1      -0.00000058       0.00000170      -0.01627044
Pt       5.61442779      -0.00000013      26.91900715        1       0.00000020       0.00000178      -0.01626946
Pt       1.40360734       2.43111852      26.91900744        1      -0.00000115       0.00000199      -0.01628134
Pt       4.21082083       2.43111857      26.91900726        1       0.00000227       0.00000124      -0.01627175
Pt       7.01803488       2.43111866      26.91900738        1      -0.00000009      -0.00000075      -0.01628007
Pt       2.80721394       4.86223723      26.91900759        1      -0.00000317      -0.00000169      -0.01628168
Pt       5.61442795       4.86223741      26.91900739        1      -0.00000074      -0.00000251      -0.01628049
Pt       8.42164129       4.86223711      26.91900738        1       0.00000240      -0.00000074      -0.01627977
