36
Lattice="8.421641763931781 0.0 0.0 4.2108208819658905 7.293355709136913 0.0 0.0 0.0 46.87624170604845" Properties=species:S:1:pos:R:3:tags:I:1:forces:R:3 charge=0 spin=0 energy=-187.00367709663286 free_energy=-187.00367709663286 stress="0.010496663860976696 1.012872008487875e-09 1.2454404174633282e-09 1.012872008487875e-09 0.01049667689949274 -7.747596453278049e-10 1.2454404174633282e-09 -7.747596453278049e-10 4.625244400813244e-05" pbc="T T T"
Pt      -0.00000012       0.00000002      19.95723426        4       0.00000201      -0.00000092       0.01627989
Pt       2.80721404      -0.00000018      19.95723442        4      -0.00000204       0.00000283       0.01627122
Pt       5.61442782      -0.00000007      19.95723448        4      -0.00000013       0.00000369       0.01627114
Pt       1.40360721       2.43111841      19.95723428        4      -0.00000072       0.00000107       0.01628119
Pt       4.21082083       2.43111835      19.95723436        4       0.00000208       0.00000192       0.01628087
Pt       7.01803478       2.43111845      19.95723424        4      -0.00000147       0.00000125       0.01628028
Pt       2.80721407       4.86223728      19.95723400        4       0.00000133      -0.00000319       0.01628113
Pt       5.61442803       4.86223733      19.95723419        4      -0.00000212      -0.00000330       0.01628015
Pt       8.42164139       4.86223726      19.95723434        4       0.00000121      -0.00000446       0.01627996
Pt       1.40360728       0.81037259      22.29206791        3      -0.00000287       0.00000384      -0.04298446
Pt       4.21082130       0.81037249      22.29206784        3      -0.00000143       0.00000754      -0.04298612
Pt       7.01803471       0.81037256      22.29206781        3       0.00000160       0.00000376      -0.04298608
Pt       2.80721448       3.24149124      22.29206773        3      -0.00000692       0.00000184      -0.04298788
Pt       5.61442763       3.24149123      22.29206786        3       0.00000266       0.00000044      -0.04298884
Pt       8.42164156       3.24149129      22.29206804        3       0.00000386       0.00000092      -0.04298930
Pt       4.21082092       5.67260997      22.29206793        3      -0.00000207       0.00000242      -0.04298545
Pt       7.01803487       5.67261037      22.29206776        3      -0.00000236      -0.00000588      -0.04298322
Pt       9.82524821       5.67261065      22.29206806        3       0.00000696      -0.00001116      -0.04298631
Pt      -0.00000053       1.62074569      24.58417386        2       0.00000345      -0.00000027       0.04298730
Pt       2.80721443       1.62074549      24.58417398        2      -0.00000806       0.00000179       0.04298583
Pt       5.61442778       1.62074537      24.58417377        2       0.00000376       0.00000647       0.04298402
Pt       1.40360637       4.05186439      24.58417390        2       0.00000645      -0.00000323       0.04298640
Pt       4.21082088       4.05186403      24.58417379        2       0.00000021       0.00000599       0.04298596
Pt       7.01803504       4.05186408      24.58417406        2      -0.00000392       0.00000294       0.04298742
Pt       2.80721282       6.48298343      24.58417376        2       0.00001366      -0.00000841       0.04298427
Pt       5.61442796       6.48298325      24.58417391        2      -0.00000353      -0.00000251       0.04298689
Pt       8.42164222       6.48298341      24.58417381        2      -0.00001034      -0.00000700       0.04298780
Pt       0.00000044       0.00000002      26.91900749        1       0.00000219       0.00000100      -0.01627949
Pt       2.80721396      -0.00000013      26.91900733        1      -0.00000083       0.00000201      -0.01628007
Pt       5.61442780      -0.00000004      26.91900714        1      -0.00000164       0.00000149      -0.01626921
Pt       1.40360720       2.43111846      26.91900749        1      -0.00000024       0.00000101      -0.01628142
Pt       4.21082089       2.43111854      26.91900728        1       0.00000153       0.00000071      -0.01627220
Pt       7.01803489       2.43111864      26.91900734        1      -0.00000028      -0.00000041      -0.01628013
Pt       2.80721397       4.86223725      26.91900759        1      -0.00000370      -0.00000240      -0.01628151
Pt       5.61442796       4.86223738      26.91900735        1      -0.00000037      -0.00000168      -0.01628021
Pt       8.42164129       4.86223711      26.91900740        1       0.00000202       0.00000004      -0.01627979
