36
Lattice="8.421641763931781 0.0 0.0 4.2108208819658905 7.293355709136913 0.0 0.0 0.0 46.87624170604845" Properties=species:S:1:pos:R:3:tags:I:1:forces:R:3 charge=0 spin=0 energy=-186.93033381965532 free_energy=-186.93033381965532 stress="0.00856211967766285 -1.7974954857891134e-09 -4.03011235494688e-10 -1.7974954857891134e-09 0.008562121540307999 -1.9991690525245076e-09 -4.03011235494688e-10 -1.9991690525245076e-09 -0.0033283375669270754" pbc="T T T"
Pt       0.00000000       0.00000000      20.00000000        4       0.00000201      -0.00000292      -0.22563678
Pt       2.80721392       0.00000000      20.00000000        4       0.00000029      -0.00000212      -0.22563586
Pt       5.61442784       0.00000000      20.00000000        4      -0.00000245      -0.00000139      -0.22563526
Pt       1.40360696       2.43111857      20.00000000        4       0.00000122       0.00000011      -0.22563814
Pt       4.21082088       2.43111857      20.00000000        4       0.00000190       0.00000012      -0.22563618
Pt       7.01803480       2.43111857      20.00000000        4      -0.00000254      -0.00000022      -0.22563814
Pt       2.80721392       4.86223714      20.00000000        4       0.00000083       0.00000099      -0.22563758
Pt       5.61442784       4.86223714      20.00000000        4      -0.00000236       0.00000165      -0.22563599
Pt       8.42164176       4.86223714      20.00000000        4       0.00000145       0.00000261      -0.22563738
Pt       1.40360696       0.81037286      22.29208057        3       0.00000147      -0.00000391       0.21236138
Pt       4.21082088       0.81037286      22.29208057        3       0.00000367      -0.00000310       0.21236089
Pt       7.01803480       0.81037286      22.29208057        3      -0.00000389      -0.00000298       0.21236154
Pt       2.80721392       3.24149143      22.29208057        3       0.00000090      -0.00000081       0.21235923
Pt       5.61442784       3.24149143      22.29208057        3      -0.00000338       0.00000014       0.21236061
Pt       8.42164176       3.24149143      22.29208057        3       0.00000266       0.00000097       0.21236101
Pt       4.21082088       5.67261000      22.29208057        3       0.00000487       0.00000165       0.21235870
Pt       7.01803480       5.67261000      22.29208057        3      -0.00000232       0.00000348       0.21235974
Pt       9.82524872       5.67261000      22.29208057        3      -0.00000263       0.00000395       0.21236129
Pt       0.00000000       1.62074571      24.58416114        2       0.00000321      -0.00000156      -0.21236044
Pt       2.80721392       1.62074571      24.58416114        2       0.00000093      -0.00000286      -0.21236004
Pt       5.61442784       1.62074571      24.58416114        2      -0.00000300      -0.00000313      -0.21236070
Pt       1.40360696       4.05186428      24.58416114        2      -0.00000295       0.00000153      -0.21236050
Pt       4.21082088       4.05186428      24.58416114        2       0.00000483      -0.00000008      -0.21235983
Pt       7.01803480       4.05186428      24.58416114        2      -0.00000248       0.00000017      -0.21236065
Pt       2.80721392       6.48298285      24.58416114        2      -0.00000712       0.00000226      -0.21236083
Pt       5.61442784       6.48298285      24.58416114        2      -0.00000174       0.00000227      -0.21236086
Pt       8.42164176       6.48298285      24.58416114        2       0.00000520       0.00000380      -0.21235973
Pt       0.00000000       0.00000000      26.87624171        1       0.00000262      -0.00000217       0.22563727
Pt       2.80721392       0.00000000      26.87624171        1       0.00000069      -0.00000146       0.22563593
Pt       5.61442784       0.00000000      26.87624171        1      -0.00000216      -0.00000206       0.22563435
Pt       1.40360696       2.43111857      26.87624171        1       0.00000122      -0.00000023       0.22563818
Pt       4.21082088       2.43111857      26.87624171        1       0.00000197      -0.00000038       0.22563629
Pt       7.01803480       2.43111857      26.87624171        1      -0.00000254       0.00000014       0.22563827
Pt       2.80721392       4.86223714      26.87624171        1       0.00000036       0.00000166       0.22563742
Pt       5.61442784       4.86223714      26.87624171        1      -0.00000224       0.00000109       0.22563589
Pt       8.42164176       4.86223714      26.87624171        1       0.00000166       0.00000280       0.22563693
