36
Lattice="8.421641763931781 0.0 0.0 4.2108208819658905 7.293355709136913 0.0 0.0 0.0 46.87624170604845" Properties=species:S:1:pos:R:3:tags:I:1:forces:R:3 charge=0 spin=0 energy=-186.93033381965532 free_energy=-186.93033381965532 stress="0.00856211967766285 -1.2515032343785037e-09 9.811110951440938e-11 -1.2515032343785037e-09 0.008562121540307999 -2.402661403166917e-09 9.811110951440938e-11 -2.402661403166917e-09 -0.0033283408265560865" pbc="T T T"
Pt       0.00000000       0.00000000      20.00000000        4       0.00000201      -0.00000281      -0.22563666
Pt       2.80721392       0.00000000      20.00000000        4       0.00000033      -0.00000205      -0.22563581
Pt       5.61442784       0.00000000      20.00000000        4      -0.00000249      -0.00000130      -0.22563516
Pt       1.40360696       2.43111857      20.00000000        4       0.00000118       0.00000004      -0.22563802
Pt       4.21082088       2.43111857      20.00000000        4       0.00000194       0.00000006      -0.22563614
Pt       7.01803480       2.43111857      20.00000000        4      -0.00000262      -0.00000031      -0.22563817
Pt       2.80721392       4.86223714      20.00000000        4       0.00000073       0.00000095      -0.22563757
Pt       5.61442784       4.86223714      20.00000000        4      -0.00000229       0.00000164      -0.22563598
Pt       8.42164176       4.86223714      20.00000000        4       0.00000138       0.00000266      -0.22563733
Pt       1.40360696       0.81037286      22.29208057        3       0.00000148      -0.00000388       0.21236126
Pt       4.21082088       0.81037286      22.29208057        3       0.00000366      -0.00000311       0.21236090
Pt       7.01803480       0.81037286      22.29208057        3      -0.00000388      -0.00000293       0.21236153
Pt       2.80721392       3.24149143      22.29208057        3       0.00000092      -0.00000078       0.21235913
Pt       5.61442784       3.24149143      22.29208057        3      -0.00000340       0.00000011       0.21236055
Pt       8.42164176       3.24149143      22.29208057        3       0.00000267       0.00000091       0.21236095
Pt       4.21082088       5.67261000      22.29208057        3       0.00000482       0.00000160       0.21235862
Pt       7.01803480       5.67261000      22.29208057        3      -0.00000233       0.00000345       0.21235976
Pt       9.82524872       5.67261000      22.29208057        3      -0.00000261       0.00000394       0.21236129
Pt       0.00000000       1.62074571      24.58416114        2       0.00000322      -0.00000153      -0.21236044
Pt       2.80721392       1.62074571      24.58416114        2       0.00000097      -0.00000286      -0.21236001
Pt       5.61442784       1.62074571      24.58416114        2      -0.00000299      -0.00000310      -0.21236074
Pt       1.40360696       4.05186428      24.58416114        2      -0.00000296       0.00000153      -0.21236056
Pt       4.21082088       4.05186428      24.58416114        2       0.00000483      -0.00000004      -0.21235989
Pt       7.01803480       4.05186428      24.58416114        2      -0.00000245       0.00000014      -0.21236065
Pt       2.80721392       6.48298285      24.58416114        2      -0.00000715       0.00000224      -0.21236084
Pt       5.61442784       6.48298285      24.58416114        2      -0.00000172       0.00000228      -0.21236084
Pt       8.42164176       6.48298285      24.58416114        2       0.00000521       0.00000376      -0.21235968
Pt       0.00000000       0.00000000      26.87624171        1       0.00000261      -0.00000212       0.22563721
Pt       2.80721392       0.00000000      26.87624171        1       0.00000060      -0.00000138       0.22563598
Pt       5.61442784       0.00000000      26.87624171        1      -0.00000217      -0.00000208       0.22563441
Pt       1.40360696       2.43111857      26.87624171        1       0.00000126      -0.00000026       0.22563827
Pt       4.21082088       2.43111857      26.87624171        1       0.00000191      -0.00000035       0.22563633
Pt       7.01803480       2.43111857      26.87624171        1      -0.00000247       0.00000013       0.22563823
Pt       2.80721392       4.86223714      26.87624171        1       0.00000040       0.00000166       0.22563747
Pt       5.61442784       4.86223714      26.87624171        1      -0.00000225       0.00000111       0.22563589
Pt       8.42164176       4.86223714      26.87624171        1       0.00000164       0.00000275       0.22563687
