36
Lattice="8.421641763931781 0.0 0.0 4.2108208819658905 7.293355709136913 0.0 0.0 0.0 46.87624170604845" Properties=species:S:1:pos:R:3:tags:I:1:forces:R:3 charge=0 spin=0 energy=-187.00367709663286 free_energy=-187.00367709663286 stress="0.010496675968170166 7.308305072228904e-10 1.2104748314811786e-09 7.308305072228904e-10 0.010496686212718487 2.882150351712909e-10 1.2104748314811786e-09 2.882150351712909e-10 4.626593363354914e-05" pbc="T T T"
Pt      -0.00000005       0.00000022      19.95723419        4       0.00000291      -0.00000153       0.01627987
Pt       2.80721406      -0.00000018      19.95723436        4      -0.00000222       0.00000258       0.01627937
Pt       5.61442778      -0.00000006      19.95723442        4      -0.00000079       0.00000367       0.01627131
Pt       1.40360717       2.43111838      19.95723425        4       0.00000012       0.00000097       0.01628115
Pt       4.21082080       2.43111835      19.95723435        4       0.00000153       0.00000160       0.01628045
Pt       7.01803478       2.43111843      19.95723423        4      -0.00000170       0.00000173       0.01628062
Pt       2.80721408       4.86223724      19.95723395        4       0.00000117      -0.00000366       0.01628132
Pt       5.61442803       4.86223730      19.95723413        4      -0.00000176      -0.00000300       0.01628026
Pt       8.42164138       4.86223726      19.95723427        4       0.00000083      -0.00000389       0.01627996
Pt       1.40360728       0.81037260      22.29206790        3      -0.00000133       0.00000202      -0.04298748
Pt       4.21082128       0.81037250      22.29206784        3      -0.00000355       0.00000550      -0.04298795
Pt       7.01803477       0.81037260      22.29206779        3       0.00000170       0.00000180      -0.04298647
Pt       2.80721450       3.24149125      22.29206775        3      -0.00000700       0.00000183      -0.04298786
Pt       5.61442762       3.24149123      22.29206790        3       0.00000293       0.00000092      -0.04298861
Pt       8.42164156       3.24149116      22.29206805        3       0.00000320       0.00000261      -0.04298957
Pt       4.21082094       5.67260998      22.29206797        3      -0.00000249       0.00000359      -0.04298560
Pt       7.01803488       5.67261038      22.29206774        3      -0.00000227      -0.00000403      -0.04298602
Pt       9.82524823       5.67261061      22.29206804        3       0.00000686      -0.00001079      -0.04298665
Pt      -0.00000056       1.62074572      24.58417389        2       0.00000365      -0.00000121       0.04298844
Pt       2.80721443       1.62074548      24.58417398        2      -0.00000629       0.00000276       0.04298788
Pt       5.61442779       1.62074532      24.58417370        2       0.00000251       0.00000957       0.04298749
Pt       1.40360636       4.05186439      24.58417390        2       0.00000654      -0.00000322       0.04298659
Pt       4.21082088       4.05186401      24.58417381        2       0.00000080       0.00000363       0.04298819
Pt       7.01803503       4.05186407      24.58417407        2      -0.00000417       0.00000228       0.04298737
Pt       2.80721279       6.48298345      24.58417372        2       0.00001421      -0.00000838       0.04298508
Pt       5.61442797       6.48298324      24.58417392        2      -0.00000358      -0.00000238       0.04298668
Pt       8.42164222       6.48298343      24.58417383        2      -0.00001047      -0.00000705       0.04298752
Pt       0.00000050      -0.00000004      26.91900759        1       0.00000051       0.00000297      -0.01628083
Pt       2.80721394      -0.00000012      26.91900734        1      -0.00000099       0.00000248      -0.01627998
Pt       5.61442779      -0.00000004      26.91900719        1      -0.00000060       0.00000227      -0.01626938
Pt       1.40360724       2.43111849      26.91900751        1      -0.00000012       0.00000028      -0.01628153
Pt       4.21082085       2.43111852      26.91900734        1       0.00000193       0.00000047      -0.01627977
Pt       7.01803490       2.43111867      26.91900736        1      -0.00000091      -0.00000085      -0.01628034
Pt       2.80721398       4.86223727      26.91900763        1      -0.00000306      -0.00000283      -0.01628142
Pt       5.61442794       4.86223742      26.91900740        1      -0.00000040      -0.00000282      -0.01628015
Pt       8.42164128       4.86223712      26.91900745        1       0.00000197      -0.00000019      -0.01627981
