32
Lattice="8.421641763931781 0.0 0.0 4.2108208819658905 7.293355709136913 0.0 0.0 0.0 44.584161137365626" Properties=species:S:1:pos:R:3:tags:I:1:forces:R:3 charge=0 spin=0 energy=-161.47695121282072 free_energy=-161.47695121282072 stress="0.012248086743056774 -1.965863884834107e-05 -4.6241661948442925e-06 -1.965863884834107e-05 0.012316104955971241 -1.9430688553256914e-05 -4.6241661948442925e-06 -1.9430688553256914e-05 -0.00019881695334333926" pbc="T T T"
Pt       1.40360727       0.81037244      19.95766877        3       0.00463622       0.00663634      -0.02402432
Pt       4.21082123       0.81037256      19.95766888        3       0.00377740       0.00557014      -0.02254809
Pt       7.01803445       0.81037243      19.95766851        3       0.00239969       0.00744381      -0.02353533
Pt       2.80721413       3.24149135      19.95766844        3       0.00328833       0.01029197      -0.02306652
Pt       5.61442751       3.24149134      19.95766853        3       0.00490595       0.01050582      -0.02476115
Pt       8.42164211       3.24149148      19.95766852        3       0.00364649       0.01071729      -0.02264775
Pt       4.21082074       5.67261030      19.95766878        3       0.00366004       0.00683903      -0.02558390
Pt       7.01803477       5.67261047      19.95766871        3       0.00452526       0.00691808      -0.02554075
Pt       9.82524854       5.67261039      19.95766860        3       0.00315972       0.00738681      -0.02544022
Pt       0.00000046       1.62074540      22.29208304        2      -0.00653752      -0.01176444       0.04654012
Pt       2.80721419       1.62074531      22.29208311        2      -0.01173849      -0.02053674       0.03175611
Pt       5.61442748       1.62074566      22.29208290        2      -0.00182172      -0.02039392       0.03091329
Pt       1.40360675       4.05186459      22.29208313        2      -0.01499242      -0.03101418       0.02159069
Pt       4.21082083       4.05186449      22.29208278        2      -0.01074972      -0.02606852       0.00565632
Pt       7.01803481       4.05186460      22.29208288        2      -0.00100092      -0.02685808       0.02601794
Pt       2.80721463       6.48298242      22.29208276        2      -0.01007169      -0.00558291       0.00991365
Pt       5.61442775       6.48298327      22.29208278        2      -0.00558857      -0.00464902       0.02187751
Pt       8.42164096       6.48298261      22.29208273        2      -0.01036168      -0.00772885       0.03141242
Pt      -0.01410628      -0.02753832      24.63160025        1       0.02327974       0.03172652       0.00693457
Pt       2.79553862      -0.02554050      24.63649641        1       0.00347734       0.00777740      -0.01793142
Pt       5.60429790      -0.03006468      24.63600841        1      -0.00837203       0.03617511      -0.00957599
Pt       1.39526459       2.40331022      24.63672139        1      -0.02288528       0.01271160      -0.02476352
Pt       4.20128323       2.40248479      24.63024491        1      -0.00546202       0.01240501       0.00950691
Pt       7.00329649       2.40404121      24.63650321        1       0.03579299       0.01290534      -0.02357426
Pt       2.79508089       4.83725507      24.62590583        1       0.00707601      -0.01080792       0.03010954
Pt       5.60220470       4.83710219      24.62522410        1       0.01816819       0.00097947       0.02712442
Pt       8.41208939       4.83881524      24.63189064        1      -0.01300277      -0.02164284      -0.01464438
C        8.42913944       4.90282266      29.25110633        0      -0.00330765       0.01120671      -0.00340855
H        8.23262685       5.78354579      29.88012175        0       0.00263992       0.01937847       0.02428416
H        8.58222156       4.02073756      29.89113821        0      -0.00247474      -0.00636615      -0.00267987
H        9.33108501       5.08040697      28.64623965        0       0.00176046      -0.00740506      -0.00310490
H        7.56874206       4.73185467      28.58690551        0       0.00217336      -0.01675622      -0.00680675
