32
Lattice="8.421641763931781 0.0 0.0 4.2108208819658905 7.293355709136913 0.0 0.0 0.0 44.584161137365626" Properties=species:S:1:pos:R:3:tags:I:1:forces:R:3 charge=0 spin=0 energy=-161.48122653478117 free_energy=-161.48122653478117 stress="0.012166636064648628 -7.49624268792104e-06 6.240551897462865e-07 -7.49624268792104e-06 0.012203209102153778 -5.859427346877055e-06 6.240551897462865e-07 -5.859427346877055e-06 -0.0003303730918560177" pbc="T T T"
Pt       1.40360727       0.81037244      19.95766877        3       0.00226236       0.00268349      -0.02385672
Pt       4.21082123       0.81037256      19.95766888        3       0.00206978       0.00504490      -0.02361240
Pt       7.01803445       0.81037243      19.95766851        3       0.00252536       0.00680145      -0.02495214
Pt       2.80721413       3.24149135      19.95766844        3       0.00212368       0.00534025      -0.02226690
Pt       5.61442751       3.24149134      19.95766853        3       0.00445200       0.00648192      -0.02393310
Pt       8.42164211       3.24149148      19.95766852        3       0.00141902       0.00504364      -0.02340619
Pt       4.21082074       5.67261030      19.95766878        3       0.00366512       0.00532218      -0.02271932
Pt       7.01803477       5.67261047      19.95766871        3       0.00328243       0.00454317      -0.02274487
Pt       9.82524854       5.67261039      19.95766860        3       0.00143415       0.00621102      -0.02346936
Pt       0.00000046       1.62074540      22.29208304        2      -0.00328716      -0.00954410       0.00235939
Pt       2.80721419       1.62074531      22.29208311        2       0.00030510      -0.00340769       0.02172302
Pt       5.61442748       1.62074566      22.29208290        2      -0.00966625      -0.01489361       0.01190366
Pt       1.40360675       4.05186459      22.29208313        2       0.00632794      -0.01378405       0.01376130
Pt       4.21082083       4.05186449      22.29208278        2      -0.01871879      -0.01198749       0.01096149
Pt       7.01803481       4.05186460      22.29208288        2      -0.00666480      -0.01400448      -0.01527015
Pt       2.80721463       6.48298242      22.29208276        2      -0.00689963      -0.02126333       0.01736433
Pt       5.61442775       6.48298327      22.29208278        2      -0.01143835      -0.00526909      -0.00830845
Pt       8.42164096       6.48298261      22.29208273        2      -0.00011308      -0.00867282      -0.00770256
Pt      -0.00984552      -0.01272727      24.62632563        1       0.00279620      -0.01614920       0.02605182
Pt       2.80115635      -0.02053085      24.62559382        1      -0.00200088       0.04097429       0.02627198
Pt       5.60460825      -0.02261629      24.62742218        1       0.01727169       0.03309376       0.01999736
Pt       1.39597040       2.41158224      24.62988544        1       0.01541923       0.01448674       0.00985937
Pt       4.20853413       2.41762144      24.63100464        1      -0.02910486      -0.01869991       0.00220354
Pt       7.00882601       2.41817284      24.62642495        1       0.00640614      -0.02664265       0.02549792
Pt       2.79929080       4.84102494      24.63445603        1       0.00507027       0.02315669      -0.00892071
Pt       5.60644172       4.84990475      24.62455593        1      -0.01253044      -0.01165844       0.03585209
Pt       8.41267814       4.84190242      24.62550694        1       0.02351758       0.01660285       0.03295417
C        6.91885050       5.03669230      29.63540903        0      -0.00152051      -0.00415075      -0.01739401
H        6.17915823       4.50244180      30.24951085        0      -0.00595948      -0.01283189       0.03147499
H        7.61159803       5.59010861      30.28667613        0      -0.00226987       0.01066817       0.01973421
H        6.39767531       5.73920221      28.96914438        0      -0.00627222       0.03029431      -0.01940161
H        7.48536628       4.31304374      29.03165840        0       0.01609838      -0.02378937      -0.02001231
