32
Lattice="8.421641763931781 0.0 0.0 4.2108208819658905 7.293355709136913 0.0 0.0 0.0 44.584161137365626" Properties=species:S:1:pos:R:3:tags:I:1:forces:R:3 charge=0 spin=0 energy=-161.4831586789462 free_energy=-161.4831586789462 stress="0.012215712107717991 -2.4723984097363427e-05 -1.1948836800002027e-06 -2.4723984097363427e-05 0.012277781963348389 -1.0663749890227336e-05 -1.1948836800002027e-06 -1.0663749890227336e-05 -0.00023099318786989897" pbc="T T T"
Pt       1.40360727       0.81037244      19.95766877        3       0.00449413       0.00525550      -0.02404224
Pt       4.21082123       0.81037256      19.95766888        3       0.00468159       0.00462409      -0.02350430
Pt       7.01803445       0.81037243      19.95766851        3       0.00456506       0.00660584      -0.02440873
Pt       2.80721413       3.24149135      19.95766844        3       0.00419353       0.00579990      -0.02337207
Pt       5.61442751       3.24149134      19.95766853        3       0.00592445       0.00621510      -0.02401917
Pt       8.42164211       3.24149148      19.95766852        3       0.00360230       0.00602525      -0.02400466
Pt       4.21082074       5.67261030      19.95766878        3       0.00561958       0.00432872      -0.02395922
Pt       7.01803477       5.67261047      19.95766871        3       0.00458364       0.00379306      -0.02365278
Pt       9.82524854       5.67261039      19.95766860        3       0.00353337       0.00459579      -0.02407892
Pt       0.00000046       1.62074540      22.29208304        2      -0.01049855      -0.01356084       0.01951168
Pt       2.80721419       1.62074531      22.29208311        2      -0.00969367      -0.01186831       0.01800879
Pt       5.61442748       1.62074566      22.29208290        2      -0.00809923      -0.01081696       0.01871645
Pt       1.40360675       4.05186459      22.29208313        2      -0.00838803      -0.01215498       0.01291703
Pt       4.21082083       4.05186449      22.29208278        2      -0.01109216      -0.01124753       0.01779239
Pt       7.01803481       4.05186460      22.29208288        2      -0.01236828      -0.01351516       0.01783247
Pt       2.80721463       6.48298242      22.29208276        2      -0.00978635      -0.01064452       0.01707828
Pt       5.61442775       6.48298327      22.29208278        2      -0.01088417      -0.01175306       0.01657417
Pt       8.42164096       6.48298261      22.29208273        2      -0.00828651      -0.00781267       0.01347281
Pt      -0.01419291      -0.01761511      24.62987054        1       0.00493428       0.00718896       0.01071857
Pt       2.79296368      -0.01821587      24.63006399        1       0.00362549       0.01155010       0.00779972
Pt       5.60006557      -0.01727167      24.63013254        1       0.00767494       0.00696428       0.01233849
Pt       1.38893873       2.41393391      24.62993837        1       0.00860700       0.00284047       0.00703253
Pt       4.19676138       2.41342664      24.63021971        1       0.00516848       0.00678027       0.00755210
Pt       7.00372092       2.41373338      24.63233990        1       0.00531009       0.00497654      -0.00417596
Pt       2.79308967       4.84428808      24.63026546        1       0.00732677       0.00781249       0.01282055
Pt       5.60018673       4.84492960      24.63155062        1       0.00575481       0.00377629      -0.00068079
Pt       8.40819011       4.84525503      24.62950924        1       0.00088439       0.00308470       0.00669474
C        7.08354030       4.12797437      29.50671771        0       0.00519638       0.00254453       0.00530606
H        6.79923634       4.98691503      30.13403798        0      -0.00501005      -0.00250675      -0.01206607
H        7.25418372       3.24876138      30.14710920        0      -0.00522268       0.00002422      -0.01343625
H        8.00546014       4.36597054      28.95542054        0       0.01983047       0.00465727       0.00603630
H        6.27817215       3.91134093      28.78867560        0      -0.01618105      -0.00356253       0.01719796
