32
Lattice="8.421641763931781 0.0 0.0 4.2108208819658905 7.293355709136913 0.0 0.0 0.0 44.584161137365626" Properties=species:S:1:pos:R:3:tags:I:1:forces:R:3 charge=0 spin=0 energy=-161.4818912457797 free_energy=-161.4818912457797 stress="0.012237206101417542 3.2319314868800575e-06 1.1582089882722357e-06 3.2319314868800575e-06 0.012312605045735836 -1.0562761417531874e-05 1.1582089882722357e-06 -1.0562761417531874e-05 -0.0001949339493876323" pbc="T T T"
Pt       1.40360727       0.81037244      19.95766877        3       0.00094545       0.00818230      -0.02405148
Pt       4.21082123       0.81037256      19.95766888        3       0.00020304       0.00807151      -0.02399955
Pt       7.01803445       0.81037243      19.95766851        3       0.00096219       0.01060835      -0.02414062
Pt       2.80721413       3.24149135      19.95766844        3       0.00055999       0.01000151      -0.02258630
Pt       5.61442751       3.24149134      19.95766853        3       0.00246171       0.01058419      -0.02415892
Pt       8.42164211       3.24149148      19.95766852        3      -0.00095343       0.01066959      -0.02446073
Pt       4.21082074       5.67261030      19.95766878        3       0.00225706       0.00892510      -0.02446336
Pt       7.01803477       5.67261047      19.95766871        3       0.00057133       0.00872661      -0.02414222
Pt       9.82524854       5.67261039      19.95766860        3      -0.00061091       0.00899534      -0.02457854
Pt       0.00000046       1.62074540      22.29208304        2      -0.00145405      -0.02142456       0.02135380
Pt       2.80721419       1.62074531      22.29208311        2      -0.00007385      -0.01808701       0.02218476
Pt       5.61442748       1.62074566      22.29208290        2      -0.00000746      -0.01981615       0.02073247
Pt       1.40360675       4.05186459      22.29208313        2       0.00365469      -0.02022194       0.02204000
Pt       4.21082083       4.05186449      22.29208278        2      -0.00757512      -0.02029655       0.02231571
Pt       7.01803481       4.05186460      22.29208288        2      -0.00088695      -0.02249275       0.02293196
Pt       2.80721463       6.48298242      22.29208276        2      -0.00259205      -0.02239640       0.02450121
Pt       5.61442775       6.48298327      22.29208278        2      -0.00142740      -0.01816807       0.01865369
Pt       8.42164096       6.48298261      22.29208273        2      -0.00064930      -0.01617930       0.02016853
Pt      -0.00123244      -0.03130173      24.63103413        1      -0.00034099       0.01269062       0.00843454
Pt       2.80573044      -0.03002104      24.63194407        1       0.00010389       0.00507891      -0.00157835
Pt       5.61260971      -0.03099066      24.63127781        1       0.00224574       0.01043213       0.00759943
Pt       1.40179612       2.40030951      24.63104091        1       0.00098242       0.01216537       0.00634534
Pt       4.21017990       2.39994438      24.63120414        1      -0.00157372       0.01263493       0.00631678
Pt       7.01658727       2.39956680      24.63242456        1       0.00174084       0.01650615      -0.00339380
Pt       2.80596861       4.83088651      24.63341194        1       0.00000686       0.01153181      -0.00296973
Pt       5.61155713       4.83182491      24.63078686        1       0.01060883       0.00682333      -0.00005882
Pt       8.42188606       4.83195497      24.63073524        1      -0.00930016       0.00662699      -0.00017608
C        7.01395109       4.86781564      29.46055370        0      -0.00002340       0.00007749       0.02095442
H        7.84482696       5.21379326      30.09526551        0      -0.00939404      -0.00183690      -0.01584540
H        6.18540461       4.52384034      30.09939603        0       0.00966002       0.00129895      -0.01620645
H        7.35841902       4.03849573      28.82475245        0       0.00198944      -0.01072975       0.00629490
H        6.66710078       5.69521519      28.82359625        0      -0.00209049       0.01101822       0.00598298
