32
Lattice="8.421641763931781 0.0 0.0 4.2108208819658905 7.293355709136913 0.0 0.0 0.0 44.584161137365626" Properties=species:S:1:pos:R:3:tags:I:1:forces:R:3 charge=0 spin=0 energy=-161.48362025731535 free_energy=-161.48362025731535 stress="0.012281293980777264 -1.9333549062139355e-05 -7.853936040191911e-06 -1.9333549062139355e-05 0.012321947142481804 -6.60723071632674e-06 -7.853936040191911e-06 -6.60723071632674e-06 -0.0001627500168979168" pbc="T T T"
Pt       1.40360727       0.81037244      19.95766877        3       0.00410282       0.00378221      -0.02296306
Pt       4.21082123       0.81037256      19.95766888        3       0.00554594       0.00521936      -0.02427510
Pt       7.01803445       0.81037243      19.95766851        3       0.00361372       0.00541620      -0.02441467
Pt       2.80721413       3.24149135      19.95766844        3       0.00609223       0.00471843      -0.02429300
Pt       5.61442751       3.24149134      19.95766853        3       0.00459010       0.00443193      -0.02388581
Pt       8.42164211       3.24149148      19.95766852        3       0.00254436       0.00469272      -0.02469571
Pt       4.21082074       5.67261030      19.95766878        3       0.00481043       0.00315184      -0.02479821
Pt       7.01803477       5.67261047      19.95766871        3       0.00360129       0.00283010      -0.02492203
Pt       9.82524854       5.67261039      19.95766860        3       0.00442150       0.00442293      -0.02479605
Pt       0.00000046       1.62074540      22.29208304        2      -0.00443486      -0.01218560       0.02982639
Pt       2.80721419       1.62074531      22.29208311        2      -0.01415808      -0.01081394       0.03093863
Pt       5.61442748       1.62074566      22.29208290        2      -0.00981733      -0.01139752       0.02366807
Pt       1.40360675       4.05186459      22.29208313        2      -0.01021355      -0.01127943       0.02937442
Pt       4.21082083       4.05186449      22.29208278        2      -0.01284591      -0.00961859       0.02313321
Pt       7.01803481       4.05186460      22.29208288        2      -0.00685574      -0.00794223       0.02275471
Pt       2.80721463       6.48298242      22.29208276        2      -0.00803957      -0.00981554       0.02827636
Pt       5.61442775       6.48298327      22.29208278        2      -0.00829005      -0.00309494       0.02962912
Pt       8.42164096       6.48298261      22.29208273        2      -0.01024171      -0.00796477       0.02880295
Pt      -0.01407244      -0.01448829      24.63377989        1       0.00794795       0.00618885      -0.00452013
Pt       2.79394150      -0.01448051      24.63387662        1       0.00224657       0.00588234      -0.00627759
Pt       5.60076506      -0.01407181      24.63207054        1       0.00423957       0.00232960       0.00082010
Pt       1.38999031       2.41688064      24.63375620        1       0.00418311       0.00222322      -0.00745028
Pt       4.19651422       2.41639481      24.63236378        1       0.00689902       0.00536687      -0.00411691
Pt       7.00516261       2.41655776      24.63157324        1       0.00227810       0.00556749      -0.00118486
Pt       2.79389120       4.84748562      24.63221213        1       0.00124265       0.00789926      -0.00157866
Pt       5.60057455       4.84850268      24.63115619        1       0.00509107       0.00302221      -0.00128134
Pt       8.40732659       4.84759138      24.63224569        1       0.00984424       0.00733770      -0.00196740
C        5.65634877       3.29479028      29.55447179        0       0.00094600      -0.00077525       0.00249129
H        4.77681822       3.04329136      30.16693855        0       0.00312108       0.00063736      -0.00208212
H        6.51231097       3.50990059      30.21249728        0      -0.00360826      -0.00022157      -0.00113504
H        5.43410341       4.17977140      28.93929133        0      -0.00091419       0.00514171       0.00124851
H        5.90253204       2.44595506      28.89871149        0       0.00205741      -0.00515300      -0.00032558
