32
Lattice="8.421641763931781 0.0 0.0 4.2108208819658905 7.293355709136913 0.0 0.0 0.0 44.584161137365626" Properties=species:S:1:pos:R:3:tags:I:1:forces:R:3 charge=0 spin=0 energy=-161.4826579999301 free_energy=-161.4826579999301 stress="0.012241225689649582 1.7826969269663095e-05 8.90359569893917e-06 1.7826969269663095e-05 0.012242737226188183 -5.160286946193082e-06 8.90359569893917e-06 -5.160286946193082e-06 -0.00024259282508865" pbc="T T T"
Pt       1.40360727       0.81037244      19.95766877        3      -0.00684484       0.00056801      -0.02339022
Pt       4.21082123       0.81037256      19.95766888        3      -0.00758889       0.00168988      -0.02448592
Pt       7.01803445       0.81037243      19.95766851        3      -0.00862177       0.00198497      -0.02345863
Pt       2.80721413       3.24149135      19.95766844        3      -0.00610347      -0.00017273      -0.02447788
Pt       5.61442751       3.24149134      19.95766853        3      -0.00797730       0.00046936      -0.02349631
Pt       8.42164211       3.24149148      19.95766852        3      -0.00908621       0.00024280      -0.02372046
Pt       4.21082074       5.67261030      19.95766878        3      -0.00652430      -0.00131987      -0.02390509
Pt       7.01803477       5.67261047      19.95766871        3      -0.00877806      -0.00051714      -0.02391808
Pt       9.82524854       5.67261039      19.95766860        3      -0.00783316       0.00029943      -0.02338560
Pt       0.00000046       1.62074540      22.29208304        2       0.01499763      -0.00127125       0.01562133
Pt       2.80721419       1.62074531      22.29208311        2       0.01379786      -0.00133409       0.00895849
Pt       5.61442748       1.62074566      22.29208290        2       0.02065125      -0.00434645       0.01333104
Pt       1.40360675       4.05186459      22.29208313        2       0.01472046       0.00274787       0.01673410
Pt       4.21082083       4.05186449      22.29208278        2       0.01463425       0.00234837       0.01123805
Pt       7.01803481       4.05186460      22.29208288        2       0.01909747      -0.00030610       0.01726454
Pt       2.80721463       6.48298242      22.29208276        2       0.01472283      -0.00213272       0.01679484
Pt       5.61442775       6.48298327      22.29208278        2       0.01717992      -0.00036034       0.01248339
Pt       8.42164096       6.48298261      22.29208273        2       0.02073427      -0.00271250       0.01696150
Pt       0.02489940      -0.00041444      24.62866167        1      -0.00999212       0.00171920       0.01536215
Pt       2.83242505      -0.00041689      24.62862801        1      -0.00859563      -0.00239828       0.01914520
Pt       5.63954741       0.00067961      24.63095528        1      -0.00918760      -0.00860819       0.00388411
Pt       1.42890163       2.43119910      24.62861054        1      -0.01233957       0.00110425       0.01744628
Pt       4.23567893       2.43079889      24.62860007        1      -0.00762705      -0.00083089       0.01097457
Pt       7.04262818       2.43091751      24.63191487        1      -0.00448733       0.00046535      -0.00133282
Pt       2.83330918       4.86157744      24.63058944        1      -0.01827903       0.00506095       0.00668268
Pt       5.63900174       4.86183445      24.63057116        1      -0.00467254       0.00232214       0.00366362
Pt       8.44633303       4.86149349      24.63114472        1      -0.00451493       0.00376485       0.00327304
C        5.50721134       3.24003160      29.46960063        0      -0.00282401       0.00041716       0.03764491
H        6.19546769       2.63810275      30.08486102        0      -0.01880207       0.02726278      -0.02892371
H        4.91385959       3.90053899      30.12271721        0       0.02955786      -0.02015679      -0.03452367
H        4.83332786       2.57182995      28.91346419        0      -0.02398325      -0.02312547       0.00619301
H        6.08309018       3.84666973      28.75442543        0       0.01456906       0.01712538       0.02536144
