32
Lattice="8.421641763931781 0.0 0.0 4.2108208819658905 7.293355709136913 0.0 0.0 0.0 44.584161137365626" Properties=species:S:1:pos:R:3:tags:I:1:forces:R:3 charge=0 spin=0 energy=-161.48293265813322 free_energy=-161.48293265813322 stress="0.012278178706765175 8.713117495062761e-06 1.2637516419999884e-06 8.713117495062761e-06 0.012269998900592327 4.0570668602413207e-07 1.2637516419999884e-06 4.0570668602413207e-07 -0.0001833843853091821" pbc="T T T"
Pt       1.40360727       0.81037244      19.95766877        3       0.00077886      -0.00111093      -0.02311724
Pt       4.21082123       0.81037256      19.95766888        3       0.00074972       0.00163203      -0.02336433
Pt       7.01803445       0.81037243      19.95766851        3       0.00035881       0.00130957      -0.02528477
Pt       2.80721413       3.24149135      19.95766844        3       0.00107642       0.00243317      -0.02229964
Pt       5.61442751       3.24149134      19.95766853        3       0.00370583       0.00449281      -0.02480116
Pt       8.42164211       3.24149148      19.95766852        3      -0.00152685       0.00303579      -0.02341162
Pt       4.21082074       5.67261030      19.95766878        3       0.00302107      -0.00040736      -0.02454344
Pt       7.01803477       5.67261047      19.95766871        3       0.00098930       0.00170397      -0.02611814
Pt       9.82524854       5.67261039      19.95766860        3      -0.00164260       0.00146466      -0.02346607
Pt       0.00000046       1.62074540      22.29208304        2       0.00453212      -0.00360982       0.03083140
Pt       2.80721419       1.62074531      22.29208311        2      -0.00228362       0.00037597       0.02634280
Pt       5.61442748       1.62074566      22.29208290        2      -0.00383865      -0.01007200       0.02916175
Pt       1.40360675       4.05186459      22.29208313        2       0.00428009      -0.00450283       0.02657095
Pt       4.21082083       4.05186449      22.29208278        2      -0.01352825      -0.00228043       0.01993271
Pt       7.01803481       4.05186460      22.29208288        2       0.00089799      -0.01636666       0.01081587
Pt       2.80721463       6.48298242      22.29208276        2      -0.00549237      -0.00111690       0.03592031
Pt       5.61442775       6.48298327      22.29208278        2      -0.00836031       0.00825459       0.02029393
Pt       8.42164096       6.48298261      22.29208273        2       0.00827842      -0.00214540       0.02498859
Pt      -0.00364452      -0.00165202      24.63321555        1       0.01162520      -0.01553713      -0.00583453
Pt       2.80866758      -0.00593176      24.63007017        1      -0.01922572       0.01298926       0.00382083
Pt       5.60869512      -0.00724692      24.63630877        1       0.01182659       0.00349942      -0.01692082
Pt       1.40544104       2.42843270      24.63339507        1      -0.01847767      -0.01433231      -0.00643512
Pt       4.20876710       2.43112611      24.63167122        1      -0.00101479      -0.02300085       0.00312387
Pt       7.01289903       2.41834826      24.63297345        1       0.01329341       0.03085272      -0.00238176
Pt       2.80428689       4.86094460      24.63458680        1       0.00065742      -0.00752422      -0.00804050
Pt       5.61441668       4.85926757      24.62591241        1      -0.01897652      -0.00501990       0.01753394
Pt       8.41498025       4.84870808      24.63034235        1       0.02920499       0.03651572      -0.00020248
C        7.04072594       4.92818777      29.29268213        0       0.00221173      -0.00051815       0.02455821
H        6.59859941       5.69257737      29.94895784        0      -0.01443798       0.03380293      -0.01047460
H        7.49427578       4.14199092      29.91439784        0       0.01282299      -0.03561202      -0.01016830
H        7.81513828       5.38839528      28.66021334        0      -0.01490074      -0.00284498       0.00086968
H        6.25572307       4.48960842      28.65796500        0       0.01339522       0.00363945       0.00209974
