32
Lattice="8.421641763931781 0.0 0.0 4.2108208819658905 7.293355709136913 0.0 0.0 0.0 44.584161137365626" Properties=species:S:1:pos:R:3:tags:I:1:forces:R:3 charge=0 spin=0 energy=-161.47695121282072 free_energy=-161.47695121282072 stress="0.012248099781572819 -1.9648647139547393e-05 -4.614455519913463e-06 -1.9648647139547393e-05 0.012316077016294003 -1.944417817867361e-05 -4.614455519913463e-06 -1.944417817867361e-05 -0.00019882996275555342" pbc="T T T"
Pt       1.40360727       0.81037244      19.95766877        3       0.00463601       0.00663664      -0.02402438
Pt       4.21082123       0.81037256      19.95766888        3       0.00377750       0.00556947      -0.02254756
Pt       7.01803445       0.81037243      19.95766851        3       0.00239921       0.00744356      -0.02353624
Pt       2.80721413       3.24149135      19.95766844        3       0.00328769       0.01029189      -0.02306616
Pt       5.61442751       3.24149134      19.95766853        3       0.00490605       0.01050617      -0.02476089
Pt       8.42164211       3.24149148      19.95766852        3       0.00364702       0.01071707      -0.02264890
Pt       4.21082074       5.67261030      19.95766878        3       0.00365994       0.00683879      -0.02558394
Pt       7.01803477       5.67261047      19.95766871        3       0.00452543       0.00691764      -0.02554143
Pt       9.82524854       5.67261039      19.95766860        3       0.00315986       0.00738689      -0.02544041
Pt       0.00000046       1.62074540      22.29208304        2      -0.00653669      -0.01176455       0.04653970
Pt       2.80721419       1.62074531      22.29208311        2      -0.01173904      -0.02053690       0.03175561
Pt       5.61442748       1.62074566      22.29208290        2      -0.00182183      -0.02039338       0.03091417
Pt       1.40360675       4.05186459      22.29208313        2      -0.01499057      -0.03101526       0.02158715
Pt       4.21082083       4.05186449      22.29208278        2      -0.01074768      -0.02606692       0.00565975
Pt       7.01803481       4.05186460      22.29208288        2      -0.00100508      -0.02685810       0.02601803
Pt       2.80721463       6.48298242      22.29208276        2      -0.01007033      -0.00558289       0.00991464
Pt       5.61442775       6.48298327      22.29208278        2      -0.00558888      -0.00465123       0.02188197
Pt       8.42164096       6.48298261      22.29208273        2      -0.01036184      -0.00772684       0.03140941
Pt      -0.01410606      -0.02753778      24.63160017        1       0.02327898       0.03171967       0.00693510
Pt       2.79553899      -0.02554034      24.63649620        1       0.00347354       0.00777520      -0.01793233
Pt       5.60429771      -0.03006459      24.63600848        1      -0.00836969       0.03617622      -0.00957784
Pt       1.39526462       2.40331069      24.63672114        1      -0.02288321       0.01270955      -0.02476236
Pt       4.20128339       2.40248468      24.63024511        1      -0.00545889       0.01240953       0.00950612
Pt       7.00329689       2.40404128      24.63650306        1       0.03578921       0.01290648      -0.02357400
Pt       2.79508055       4.83725510      24.62590530        1       0.00708224      -0.01080661       0.03010940
Pt       5.60220536       4.83710245      24.62522426        1       0.01816413       0.00098096       0.02711619
Pt       8.41208943       4.83881510      24.63188967        1      -0.01300434      -0.02164128      -0.01463616
C        8.42913890       4.90282296      29.25108302        0      -0.00333250       0.01114681      -0.00351934
H        8.58222347       4.02073823      29.89111385        0      -0.00246981      -0.00638353      -0.00265937
H        8.23262800       5.78354477      29.88009688        0       0.00262956       0.01944679       0.02433886
H        7.56873874       4.73185328      28.58688452        0       0.00221653      -0.01674755      -0.00677876
H        9.33108293       5.08040714      28.64621441        0       0.00174731      -0.00740423      -0.00309598
