32
Lattice="8.421641763931781 0.0 0.0 4.2108208819658905 7.293355709136913 0.0 0.0 0.0 44.584161137365626" Properties=species:S:1:pos:R:3:tags:I:1:forces:R:3 charge=0 spin=0 energy=-161.48266181462736 free_energy=-161.48266181462736 stress="0.012254827655851841 -1.7023068721755408e-05 -9.374165529152378e-06 -1.7023068721755408e-05 0.012240356765687466 -5.785300800198456e-06 -9.374165529152378e-06 -5.785300800198456e-06 -0.00023534701904281974" pbc="T T T"
Pt       1.40360727       0.81037244      19.95766877        3       0.00650954      -0.00162088      -0.02332801
Pt       4.21082123       0.81037256      19.95766888        3       0.00838298      -0.00025333      -0.02363789
Pt       7.01803445       0.81037243      19.95766851        3       0.00728998      -0.00032969      -0.02445186
Pt       2.80721413       3.24149135      19.95766844        3       0.00887337      -0.00193293      -0.02371501
Pt       5.61442751       3.24149134      19.95766853        3       0.00766929      -0.00175963      -0.02344919
Pt       8.42164211       3.24149148      19.95766852        3       0.00586069      -0.00208066      -0.02463842
Pt       4.21082074       5.67261030      19.95766878        3       0.00832220      -0.00262048      -0.02402101
Pt       7.01803477       5.67261047      19.95766871        3       0.00633027      -0.00342168      -0.02369841
Pt       9.82524854       5.67261039      19.95766860        3       0.00764531      -0.00166594      -0.02354402
Pt       0.00000046       1.62074540      22.29208304        2      -0.01307103       0.00121382       0.01047811
Pt       2.80721419       1.62074531      22.29208311        2      -0.01587125       0.00367063       0.01655877
Pt       5.61442748       1.62074566      22.29208290        2      -0.01925799       0.00039177       0.01384334
Pt       1.40360675       4.05186459      22.29208313        2      -0.01619422       0.00635108       0.01738042
Pt       4.21082083       4.05186449      22.29208278        2      -0.01844242       0.00329431       0.01794740
Pt       7.01803481       4.05186460      22.29208288        2      -0.01489441       0.00758177       0.01197212
Pt       2.80721463       6.48298242      22.29208276        2      -0.01862776      -0.00018288       0.01749413
Pt       5.61442775       6.48298327      22.29208278        2      -0.01476846       0.00345387       0.01433194
Pt       8.42164096       6.48298261      22.29208273        2      -0.01393275       0.00341539       0.01763549
Pt      -0.02472421       0.00500482      24.62900664        1       0.00916716      -0.00444757       0.01720396
Pt       2.78286538       0.00480870      24.62913381        1       0.00949063      -0.00102583       0.01307225
Pt       5.58987402       0.00605812      24.63072934        1       0.00925974      -0.01091844       0.00466381
Pt       1.37943635       2.43643672      24.62913604        1       0.01091849      -0.00189839       0.01579463
Pt       4.18671864       2.43607034      24.63192185        1       0.00572308      -0.00087090      -0.00161318
Pt       6.99431043       2.43625350      24.62851107        1       0.00609246      -0.00232260       0.01114234
Pt       2.78326542       4.86686485      24.63116061        1       0.00459100       0.00256949       0.00324393
Pt       5.59034527       4.86712489      24.63100520        1       0.00485981      -0.00038173       0.00169431
Pt       8.39637590       4.86664175      24.63068646        1       0.01670503       0.00455161       0.00650594
C        5.71345184       3.22283755      29.46285832        0       0.00252266       0.00043950       0.03925243
H        5.03511721       2.63688103      30.10420646        0       0.02085963       0.02846570      -0.03156496
H        6.31913250       3.89758522      30.08950349        0      -0.02996289      -0.02089404      -0.03205080
H        5.12510913       3.81298297      28.74397924        0      -0.01315486       0.01492717       0.02402523
H        6.37749968       2.54113593      28.91119763        0       0.02110459      -0.02169851       0.00547210
