32
Lattice="8.421641763931781 0.0 0.0 4.2108208819658905 7.293355709136913 0.0 0.0 0.0 44.584161137365626" Properties=species:S:1:pos:R:3:tags:I:1:forces:R:3 charge=0 spin=0 energy=-161.47903880589934 free_energy=-161.47903880589934 stress="0.012279633432626724 2.9465545594575815e-05 2.688916356419213e-05 2.9465545594575815e-05 0.012399652972817421 -9.663467608334031e-06 2.688916356419213e-05 -9.663467608334031e-06 -0.00010971327719744295" pbc="T T T"
Pt       1.40360727       0.81037244      19.95766877        3      -0.00495618       0.01114731      -0.02206427
Pt       4.21082123       0.81037256      19.95766888        3      -0.00379904       0.01464428      -0.02572272
Pt       7.01803445       0.81037243      19.95766851        3      -0.00775602       0.01440896      -0.02409887
Pt       2.80721413       3.24149135      19.95766844        3      -0.00461312       0.01284288      -0.02480877
Pt       5.61442751       3.24149134      19.95766853        3      -0.00746123       0.01423906      -0.02513290
Pt       8.42164211       3.24149148      19.95766852        3      -0.00791986       0.01435576      -0.02453348
Pt       4.21082074       5.67261030      19.95766878        3      -0.00641518       0.01026663      -0.02569936
Pt       7.01803477       5.67261047      19.95766871        3      -0.00549904       0.01198993      -0.02593928
Pt       9.82524854       5.67261039      19.95766860        3      -0.00554254       0.01312594      -0.02698519
Pt       0.00000046       1.62074540      22.29208304        2       0.01810309      -0.03069746       0.04572881
Pt       2.80721419       1.62074531      22.29208311        2       0.00233461      -0.02792546       0.04482510
Pt       5.61442748       1.62074566      22.29208290        2       0.01866623      -0.03772892       0.03104866
Pt       1.40360675       4.05186459      22.29208313        2       0.01252637      -0.03410270       0.04067979
Pt       4.21082083       4.05186449      22.29208278        2       0.01162622      -0.02660586       0.01667475
Pt       7.01803481       4.05186460      22.29208288        2       0.02360413      -0.03201805       0.02265710
Pt       2.80721463       6.48298242      22.29208276        2       0.01559207      -0.02272761       0.04403275
Pt       5.61442775       6.48298327      22.29208278        2       0.01132734      -0.00752446       0.03368451
Pt       8.42164096       6.48298261      22.29208273        2       0.01217520      -0.02323282       0.04410154
Pt       0.01866264      -0.04118130      24.63922924        1      -0.00667332       0.01411925      -0.02623335
Pt       2.82712944      -0.03888953      24.63788016        1       0.00120480       0.01037988      -0.02128094
Pt       5.63338236      -0.04709385      24.63697571        1      -0.00175579       0.03028248      -0.02214913
Pt       1.41992676       2.38729280      24.63940263        1       0.01290170       0.02165484      -0.02947416
Pt       4.23349255       2.39065604      24.63099000        1      -0.02155687       0.00060780      -0.00141730
Pt       7.03505166       2.38706281      24.63545761        1       0.00823402       0.01701501      -0.01562449
Pt       2.83208281       4.81682376      24.63216444        1      -0.03446458       0.02748918      -0.00058134
Pt       5.63979647       4.82774094      24.62788099        1      -0.02990077      -0.01896190       0.01970997
Pt       8.44203224       4.81780605      24.63389505        1       0.00157396       0.02297763      -0.00598115
C        5.42729443       3.13611445      29.42649937        0      -0.00769901       0.03000424       0.02964989
H        5.22442021       2.60371681      30.36832779        0      -0.01821118      -0.01719209      -0.01056789
H        6.48897383       3.42244229      29.39452600        0       0.02094657       0.00078829      -0.02386801
H        4.80375466       4.04173252      29.37686729        0      -0.00393838       0.00230694       0.00199563
H        5.19342593       2.48408643      28.57181830        0       0.00734594      -0.01592893       0.00737412
