32
Lattice="8.421641763931781 0.0 0.0 4.2108208819658905 7.293355709136913 0.0 0.0 0.0 44.584161137365626" Properties=species:S:1:pos:R:3:tags:I:1:forces:R:3 charge=0 spin=0 energy=-161.4823785733554 free_energy=-161.4823785733554 stress="0.01227248553186655 -1.914368840516545e-05 -2.3421814603352686e-06 -1.914368840516545e-05 0.012297872453927994 -6.921838576090522e-06 -2.3421814603352686e-06 -6.921838576090522e-06 -0.0002001170942094177" pbc="T T T"
Pt       1.40360727       0.81037244      19.95766877        3       0.00248989       0.00027753      -0.02364321
Pt       4.21082123       0.81037256      19.95766888        3       0.00208627       0.00239731      -0.02448303
Pt       7.01803445       0.81037243      19.95766851        3       0.00223513       0.00437765      -0.02504857
Pt       2.80721413       3.24149135      19.95766844        3       0.00231048       0.00352521      -0.02163654
Pt       5.61442751       3.24149134      19.95766853        3       0.00407627       0.00469703      -0.02478085
Pt       8.42164211       3.24149148      19.95766852        3       0.00034449       0.00411073      -0.02406234
Pt       4.21082074       5.67261030      19.95766878        3       0.00382972       0.00274842      -0.02406953
Pt       7.01803477       5.67261047      19.95766871        3       0.00251912       0.00251759      -0.02445651
Pt       9.82524854       5.67261039      19.95766860        3       0.00095181       0.00407080      -0.02436051
Pt       0.00000046       1.62074540      22.29208304        2      -0.00262177      -0.00441185       0.03356317
Pt       2.80721419       1.62074531      22.29208311        2      -0.00541899      -0.00260851       0.02714531
Pt       5.61442748       1.62074566      22.29208290        2      -0.00466942      -0.01026687       0.02726061
Pt       1.40360675       4.05186459      22.29208313        2      -0.00087922      -0.01236536       0.02368598
Pt       4.21082083       4.05186449      22.29208278        2      -0.01522818      -0.00989543       0.00978527
Pt       7.01803481       4.05186460      22.29208288        2       0.00038199      -0.01112167       0.01806840
Pt       2.80721463       6.48298242      22.29208276        2      -0.00784230      -0.00947077       0.01927956
Pt       5.61442775       6.48298327      22.29208278        2      -0.00522430       0.00328429       0.01446773
Pt       8.42164096       6.48298261      22.29208273        2      -0.00297925      -0.00486536       0.02669773
Pt      -0.01110886      -0.01036208      24.63093379        1       0.02431246       0.01506500       0.00704290
Pt       2.80149338      -0.00847219      24.63085779        1      -0.00091638      -0.00599884      -0.00150201
Pt       5.60828157      -0.01415936      24.63208812        1      -0.01017818       0.02310990       0.00133592
Pt       1.39834337       2.41956020      24.63450026        1      -0.01249323       0.00137705      -0.01006882
Pt       4.20539548       2.42343112      24.63131472        1      -0.00369838      -0.01958819       0.00505385
Pt       7.00783346       2.42208984      24.63281096        1       0.02134286      -0.00483784      -0.00751438
Pt       2.80039180       4.85005235      24.63321611        1      -0.00336813       0.00881845       0.00381049
Pt       5.60458612       4.85527715      24.62557201        1       0.02602342      -0.00627883       0.02395496
Pt       8.41770495       4.84786275      24.63101080        1      -0.01717656       0.02102140      -0.00080191
C        6.90417247       4.99671372      29.58353650        0      -0.00049648       0.00333090      -0.00288993
H        7.59782994       5.63123696      30.15608480        0      -0.00556856       0.00255639       0.01114473
H        6.19392480       4.51338076      30.27173527        0       0.00898508      -0.00254597       0.00987014
H        7.47691642       4.22558787      29.04529906        0      -0.02360899       0.01725642      -0.01279880
H        6.34785761       5.61823751      28.86498552        0       0.02047944      -0.02028660      -0.01004997
