32
Lattice="8.421641763931781 0.0 0.0 4.2108208819658905 7.293355709136913 0.0 0.0 0.0 44.584161137365626" Properties=species:S:1:pos:R:3:tags:I:1:forces:R:3 charge=0 spin=0 energy=-161.48159656041594 free_energy=-161.48159656041594 stress="0.012243160977959633 2.7458132535684854e-05 6.6439802139939275e-06 2.7458132535684854e-05 0.012299716472625732 1.8671168788841896e-07 6.6439802139939275e-06 1.8671168788841896e-07 -0.00021007878240197897" pbc="T T T"
Pt       1.40360727       0.81037244      19.95766877        3      -0.00762873       0.00695907      -0.02417124
Pt       4.21082123       0.81037256      19.95766888        3      -0.00571960       0.00659843      -0.02405825
Pt       7.01803445       0.81037243      19.95766851        3      -0.00676633       0.00710168      -0.02454561
Pt       2.80721413       3.24149135      19.95766844        3      -0.00682614       0.00466494      -0.02497922
Pt       5.61442751       3.24149134      19.95766853        3      -0.00616257       0.00642625      -0.02491550
Pt       8.42164211       3.24149148      19.95766852        3      -0.00774364       0.00653529      -0.02499346
Pt       4.21082074       5.67261030      19.95766878        3      -0.00492845       0.00495477      -0.02373524
Pt       7.01803477       5.67261047      19.95766871        3      -0.00695524       0.00337722      -0.02327161
Pt       9.82524854       5.67261039      19.95766860        3      -0.00876384       0.00517835      -0.02373043
Pt       0.00000046       1.62074540      22.29208304        2       0.02165748      -0.02210994       0.01760449
Pt       2.80721419       1.62074531      22.29208311        2       0.01340725      -0.00988179       0.02243503
Pt       5.61442748       1.62074566      22.29208290        2       0.01112268      -0.01876207       0.01379815
Pt       1.40360675       4.05186459      22.29208313        2       0.01536151      -0.00782109       0.02737214
Pt       4.21082083       4.05186449      22.29208278        2       0.01473975      -0.00595034       0.03201551
Pt       7.01803481       4.05186460      22.29208288        2       0.01214665      -0.00021711       0.02050391
Pt       2.80721463       6.48298242      22.29208276        2       0.01752284      -0.01264636       0.03027906
Pt       5.61442775       6.48298327      22.29208278        2       0.01031674      -0.01828078       0.03017716
Pt       8.42164096       6.48298261      22.29208273        2       0.02004816      -0.01449569       0.02225906
Pt       0.02378328      -0.01879196      24.63369577        1      -0.01359016       0.00639199      -0.00508323
Pt       2.83009769      -0.01850747      24.62919510        1      -0.01240446       0.01200394       0.01038568
Pt       5.63651535      -0.01868768      24.63235883        1      -0.00394978       0.00649449       0.00153420
Pt       1.42473730       2.41501030      24.63087515        1       0.00259146      -0.00291326       0.00302853
Pt       4.23413907       2.41369821      24.63054440        1      -0.01714465       0.00443853       0.00486748
Pt       7.04027131       2.41415440      24.62598404        1      -0.00651862      -0.00373061       0.02649153
Pt       2.82988043       4.84467760      24.63268878        1      -0.00596559       0.00678108      -0.00051421
Pt       5.63809726       4.84306471      24.63787735        1      -0.01973760       0.01715243      -0.02920229
Pt       8.44321138       4.84381608      24.63500802        1       0.00034067       0.01228017      -0.01295317
C        6.95530567       4.10292045      29.45196986        0       0.00288888      -0.00269863      -0.00983059
H        6.28850503       4.54183642      30.20889752        0      -0.01195548      -0.00516896       0.01734442
H        7.95745147       3.95974587      29.88155102        0       0.02898983       0.00452069       0.02066354
H        7.02027090       4.77807524      28.58681193        0       0.00644118       0.02812811      -0.02746781
H        6.55730297       3.13101808      29.12592364        0      -0.02481433      -0.02531084       0.00269220
