32
Lattice="8.421641763931781 0.0 0.0 4.2108208819658905 7.293355709136913 0.0 0.0 0.0 44.584161137365626" Properties=species:S:1:pos:R:3:tags:I:1:forces:R:3 charge=0 spin=0 energy=-161.48147353642912 free_energy=-161.48147353642912 stress="0.012249169871211052 -3.572276546037756e-05 -1.778585101419594e-05 -3.572276546037756e-05 0.012273773550987244 7.3847559178830124e-06 -1.778585101419594e-05 7.3847559178830124e-06 -0.00023226298799272627" pbc="T T T"
Pt       1.40360727       0.81037244      19.95766877        3       0.00484157       0.00080283      -0.02300859
Pt       4.21082123       0.81037256      19.95766888        3       0.00756170       0.00144836      -0.02340863
Pt       7.01803445       0.81037243      19.95766851        3       0.00594788       0.00128954      -0.02502629
Pt       2.80721413       3.24149135      19.95766844        3       0.00737740      -0.00024843      -0.02404179
Pt       5.61442751       3.24149134      19.95766853        3       0.00622837      -0.00020767      -0.02355064
Pt       8.42164211       3.24149148      19.95766852        3       0.00530263      -0.00025791      -0.02542116
Pt       4.21082074       5.67261030      19.95766878        3       0.00693779      -0.00137284      -0.02433636
Pt       7.01803477       5.67261047      19.95766871        3       0.00551809      -0.00253390      -0.02290267
Pt       9.82524854       5.67261039      19.95766860        3       0.00665035      -0.00053290      -0.02432186
Pt       0.00000046       1.62074540      22.29208304        2      -0.00444335      -0.00790046       0.01715783
Pt       2.80721419       1.62074531      22.29208311        2      -0.01570475      -0.00332758       0.02764872
Pt       5.61442748       1.62074566      22.29208290        2      -0.01961585      -0.00368582       0.00870277
Pt       1.40360675       4.05186459      22.29208313        2      -0.01191832       0.00227892       0.01908368
Pt       4.21082083       4.05186449      22.29208278        2      -0.01330824       0.00244524       0.02679747
Pt       7.01803481       4.05186460      22.29208288        2      -0.01644037       0.01090469       0.01212596
Pt       2.80721463       6.48298242      22.29208276        2      -0.01129354      -0.00348061       0.02242879
Pt       5.61442775       6.48298327      22.29208278        2      -0.01114983       0.00077549       0.03612526
Pt       8.42164096       6.48298261      22.29208273        2      -0.01764225       0.00242345       0.02255758
Pt      -0.02224028      -0.00070112      24.63223338        1       0.02356708      -0.00055102      -0.00046454
Pt       2.78681748       0.00051426      24.63353431        1      -0.00048297      -0.00292063      -0.00807932
Pt       5.59366792       0.00142286      24.62958376        1       0.00776691      -0.01130697       0.01157094
Pt       1.38361826       2.43304437      24.63104388        1       0.01067482      -0.01514291       0.00742657
Pt       4.19153550       2.43058869      24.63269836        1      -0.00501029       0.00276033      -0.00714508
Pt       6.99841381       2.43185133      24.62563077        1       0.00750429      -0.00421382       0.02474752
Pt       2.78692491       4.86174082      24.63218491        1       0.00910886       0.00551968      -0.00131193
Pt       5.59431122       4.86078115      24.63531452        1       0.00245024       0.01832920      -0.02076814
Pt       8.40084422       4.86191852      24.63032303        1       0.00939916       0.00945405       0.00853906
C        5.63250004       3.25967318      29.33615907        0       0.00223854       0.00009144      -0.01877343
H        5.25768329       2.33461230      29.79868529        0      -0.01415736      -0.00495484       0.02334081
H        5.57863930       4.08665014      30.06062169        0       0.01753826      -0.01544176       0.01176781
H        5.01802642       3.50398387      28.45789504        0      -0.03435171       0.00533530      -0.02482725
H        6.67475442       3.11099766      29.01730418        0       0.02890483       0.01422153       0.01736661
