32
Lattice="8.421641763931781 0.0 0.0 4.2108208819658905 7.293355709136913 0.0 0.0 0.0 44.584161137365626" Properties=species:S:1:pos:R:3:tags:I:1:forces:R:3 charge=0 spin=0 energy=-161.4809900235507 free_energy=-161.4809900235507 stress="0.012255257926881313 -1.596170295670163e-05 2.4342518827324966e-06 -1.596170295670163e-05 0.012322775088250637 1.4044552472114447e-06 2.4342518827324966e-06 1.4044552472114447e-06 -0.00019661134865600616" pbc="T T T"
Pt       1.40360727       0.81037244      19.95766877        3       0.00491722       0.00575561      -0.02601369
Pt       4.21082123       0.81037256      19.95766888        3       0.00317881       0.00651798      -0.02455163
Pt       7.01803445       0.81037243      19.95766851        3       0.00511595       0.00924949      -0.02398692
Pt       2.80721413       3.24149135      19.95766844        3       0.00531829       0.00741134      -0.02263878
Pt       5.61442751       3.24149134      19.95766853        3       0.00647136       0.00818311      -0.02517610
Pt       8.42164211       3.24149148      19.95766852        3       0.00370372       0.00839400      -0.02321431
Pt       4.21082074       5.67261030      19.95766878        3       0.00705886       0.00756683      -0.02443045
Pt       7.01803477       5.67261047      19.95766871        3       0.00506691       0.00684649      -0.02546136
Pt       9.82524854       5.67261039      19.95766860        3       0.00304816       0.00781392      -0.02287417
Pt       0.00000046       1.62074540      22.29208304        2      -0.01748729      -0.01540030       0.01905476
Pt       2.80721419       1.62074531      22.29208311        2      -0.00264725      -0.00812975       0.02146221
Pt       5.61442748       1.62074566      22.29208290        2      -0.00661876      -0.01487803       0.03230410
Pt       1.40360675       4.05186459      22.29208313        2      -0.00715904      -0.01373656       0.02241756
Pt       4.21082083       4.05186449      22.29208278        2      -0.02206658      -0.01986461       0.01929720
Pt       7.01803481       4.05186460      22.29208288        2      -0.00592579      -0.02127390       0.02987888
Pt       2.80721463       6.48298242      22.29208276        2      -0.01501608      -0.02003862       0.03050315
Pt       5.61442775       6.48298327      22.29208278        2      -0.01744417      -0.01602165       0.00805414
Pt       8.42164096       6.48298261      22.29208273        2      -0.00014321      -0.01477210       0.01667020
Pt      -0.01700540      -0.02361339      24.63002939        1       0.00830438      -0.00019293       0.01030710
Pt       2.79195445      -0.02596164      24.62577798        1       0.01071612       0.01540893       0.02382326
Pt       5.59939696      -0.02369002      24.63404732        1       0.00830667       0.00245055      -0.00415232
Pt       1.38813431       2.40395687      24.62875552        1       0.00927280       0.02472105       0.01777296
Pt       4.20065952       2.40735095      24.63378982        1      -0.01554405       0.00030156      -0.00655732
Pt       7.00420048       2.40717758      24.63668665        1       0.00215937       0.01042191      -0.01902806
Pt       2.79105157       4.83420417      24.63472438        1       0.00679532       0.02293822      -0.00928721
Pt       5.59559525       4.83743168      24.62792187        1       0.02891816       0.00678050       0.01668670
Pt       8.40935345       4.83932088      24.63240304        1      -0.01056059      -0.00516139      -0.00576811
C        7.30631896       4.38110737      29.66956995        0       0.00068418       0.03420249       0.00607552
H        6.24956591       4.11407019      29.51200547        0       0.02311586       0.00981683       0.02296067
H        7.43337903       4.83159743      30.66657895        0      -0.02802736      -0.02919272      -0.00605287
H        7.61791639       5.10812664      28.90449693        0       0.00260187      -0.01021332      -0.02689700
H        7.92911632       3.47723742      29.59320262        0       0.00388629      -0.00590491      -0.00117832
