32
Lattice="8.421641763931781 0.0 0.0 4.2108208819658905 7.293355709136913 0.0 0.0 0.0 44.584161137365626" Properties=species:S:1:pos:R:3:tags:I:1:forces:R:3 charge=0 spin=0 energy=-161.4848323773715 free_energy=-161.4848323773715 stress="0.012277880683541298 5.29565886608907e-06 1.0626476978359278e-06 5.29565886608907e-06 0.012316759675741196 -3.1227712042891653e-06 1.0626476978359278e-06 -3.1227712042891653e-06 -0.00016693584620952606" pbc="T T T"
Pt       1.40360727       0.81037244      19.95766877        3      -0.00039574       0.00098275      -0.02382589
Pt       4.21082123       0.81037256      19.95766888        3      -0.00067414       0.00088576      -0.02376726
Pt       7.01803445       0.81037243      19.95766851        3      -0.00012562       0.00315608      -0.02473271
Pt       2.80721413       3.24149135      19.95766844        3      -0.00044006       0.00293527      -0.02259998
Pt       5.61442751       3.24149134      19.95766853        3       0.00138786       0.00361809      -0.02476893
Pt       8.42164211       3.24149148      19.95766852        3      -0.00168489       0.00360658      -0.02489563
Pt       4.21082074       5.67261030      19.95766878        3       0.00112942       0.00139393      -0.02429349
Pt       7.01803477       5.67261047      19.95766871        3      -0.00050710       0.00101391      -0.02384898
Pt       9.82524854       5.67261039      19.95766860        3      -0.00157189       0.00156940      -0.02439523
Pt       0.00000046       1.62074540      22.29208304        2       0.00188927      -0.00723432       0.02566902
Pt       2.80721419       1.62074531      22.29208311        2       0.00182125      -0.00215610       0.02705694
Pt       5.61442748       1.62074566      22.29208290        2       0.00050289      -0.00558165       0.02584195
Pt       1.40360675       4.05186459      22.29208313        2       0.00480959      -0.00539598       0.02562835
Pt       4.21082083       4.05186449      22.29208278        2      -0.00549329      -0.00513007       0.02585395
Pt       7.01803481       4.05186460      22.29208288        2       0.00098559      -0.00658488       0.02338698
Pt       2.80721463       6.48298242      22.29208276        2      -0.00016061      -0.00552168       0.03003352
Pt       5.61442775       6.48298327      22.29208278        2      -0.00057990      -0.00278008       0.02233289
Pt       8.42164096       6.48298261      22.29208273        2       0.00322033      -0.00071960       0.02266981
Pt       0.00174375      -0.00721855      24.63202277        1      -0.00409299       0.00378182       0.00216132
Pt       2.80847340      -0.00696461      24.63189721        1      -0.00068959       0.00366502      -0.00149563
Pt       5.61504674      -0.00714349      24.63222491        1       0.00379460       0.00283350       0.00141263
Pt       1.40425519       2.42443347      24.63186469        1       0.00317218       0.00151199       0.00121333
Pt       4.21279893       2.42443990      24.63206478        1      -0.00475262       0.00099595       0.00054340
Pt       7.01930263       2.42416592      24.63203714        1      -0.00064817       0.00210510      -0.00196251
Pt       2.80849346       4.85515257      24.63432601        1      -0.00043138       0.00327631      -0.00553658
Pt       5.61465805       4.85517713      24.63137514        1       0.00462902       0.00195403      -0.00487859
Pt       8.42389269       4.85558321      24.63133790        1      -0.00512392       0.00182539      -0.00492327
C        7.01730835       4.85945180      29.36266052        0       0.00003539      -0.00002838       0.03631169
H        6.82423248       3.98207179      30.00083600        0       0.00687132       0.03114935      -0.02176735
H        7.21420090       5.73877761      29.99696480        0      -0.00701634      -0.03104038      -0.02142584
H        6.13815845       5.05269877      28.72936669        0       0.00016261      -0.00076488       0.00451883
H        7.89264957       4.66425913      28.72471388        0      -0.00002317       0.00067786       0.00448340
