32
Lattice="8.421641763931781 0.0 0.0 4.2108208819658905 7.293355709136913 0.0 0.0 0.0 44.584161137365626" Properties=species:S:1:pos:R:3:tags:I:1:forces:R:3 charge=0 spin=0 energy=-161.4823785733554 free_energy=-161.4823785733554 stress="0.012272361665964127 -1.913886262627784e-05 -2.3328198039962444e-06 -1.913886262627784e-05 0.012297873385250568 -6.942164873180445e-06 -2.3328198039962444e-06 -6.942164873180445e-06 -0.0002001976390602067" pbc="T T T"
Pt       1.40360727       0.81037244      19.95766877        3       0.00249466       0.00028286      -0.02364340
Pt       4.21082123       0.81037256      19.95766888        3       0.00208525       0.00240517      -0.02448677
Pt       7.01803445       0.81037243      19.95766851        3       0.00223349       0.00438707      -0.02504773
Pt       2.80721413       3.24149135      19.95766844        3       0.00231029       0.00353331      -0.02163807
Pt       5.61442751       3.24149134      19.95766853        3       0.00407421       0.00470357      -0.02477947
Pt       8.42164211       3.24149148      19.95766852        3       0.00034567       0.00411625      -0.02406107
Pt       4.21082074       5.67261030      19.95766878        3       0.00382655       0.00275498      -0.02406885
Pt       7.01803477       5.67261047      19.95766871        3       0.00252115       0.00252690      -0.02445511
Pt       9.82524854       5.67261039      19.95766860        3       0.00095324       0.00407999      -0.02436272
Pt       0.00000046       1.62074540      22.29208304        2      -0.00264311      -0.00441362       0.03356101
Pt       2.80721419       1.62074531      22.29208311        2      -0.00542766      -0.00263985       0.02712654
Pt       5.61442748       1.62074566      22.29208290        2      -0.00464382      -0.01028275       0.02725882
Pt       1.40360675       4.05186459      22.29208313        2      -0.00088524      -0.01237851       0.02368496
Pt       4.21082083       4.05186449      22.29208278        2      -0.01522218      -0.00990496       0.00973543
Pt       7.01803481       4.05186460      22.29208288        2       0.00038650      -0.01114260       0.01807652
Pt       2.80721463       6.48298242      22.29208276        2      -0.00784645      -0.00949209       0.01927231
Pt       5.61442775       6.48298327      22.29208278        2      -0.00521175       0.00327924       0.01444795
Pt       8.42164096       6.48298261      22.29208273        2      -0.00298632      -0.00488985       0.02672300
Pt      -0.01110898      -0.01038098      24.63092801        1       0.02429075       0.01505902       0.00707256
Pt       2.80149447      -0.00849360      24.63086325        1      -0.00089026      -0.00602076      -0.00153233
Pt       5.60828521      -0.01418686      24.63208387        1      -0.01019418       0.02311364       0.00133727
Pt       1.39833963       2.41952794      24.63449810        1      -0.01248254       0.00142472      -0.01004696
Pt       4.20539742       2.42340777      24.63130272        1      -0.00368910      -0.01960522       0.00511958
Pt       7.00782958       2.42207607      24.63282213        1       0.02135392      -0.00488171      -0.00756626
Pt       2.80040092       4.85001514      24.63321388        1      -0.00343827       0.00890201       0.00382310
Pt       5.60458185       4.85526492      24.62556631        1       0.02607219      -0.00632006       0.02399902
Pt       8.41770685       4.84782897      24.63101371        1      -0.01717583       0.02109347      -0.00081628
C        6.90416044       4.99672785      29.58388669        0      -0.00051349       0.00331443      -0.00297582
H        6.19391046       4.51340008      30.27208558        0       0.00892581      -0.00251579       0.00992267
H        7.59781607       5.63125782      30.15642569        0      -0.00550882       0.00255485       0.01120727
H        6.34785739       5.61824841      28.86532523        0       0.02043159      -0.02029910      -0.01005754
H        7.47689677       4.22559046      29.04566104        0      -0.02354629       0.01725553      -0.01282951
