32
Lattice="8.421641763931781 0.0 0.0 4.2108208819658905 7.293355709136913 0.0 0.0 0.0 44.584161137365626" Properties=species:S:1:pos:R:3:tags:I:1:forces:R:3 charge=0 spin=0 energy=-161.48427829259367 free_energy=-161.48427829259367 stress="0.012271678075194359 -1.1197168532817159e-05 -2.588613369880477e-06 -1.1197168532817159e-05 0.012275490909814835 -1.5052561366246664e-06 -2.588613369880477e-06 -1.5052561366246664e-06 -0.0002128389896824956" pbc="T T T"
Pt       1.40360727       0.81037244      19.95766877        3       0.00305267       0.00074416      -0.02429932
Pt       4.21082123       0.81037256      19.95766888        3       0.00275350       0.00039063      -0.02523428
Pt       7.01803445       0.81037243      19.95766851        3       0.00189792       0.00078390      -0.02390511
Pt       2.80721413       3.24149135      19.95766844        3       0.00240384       0.00051270      -0.02496412
Pt       5.61442751       3.24149134      19.95766853        3       0.00248954       0.00042896      -0.02541225
Pt       8.42164211       3.24149148      19.95766852        3       0.00220309       0.00100268      -0.02324067
Pt       4.21082074       5.67261030      19.95766878        3       0.00243602      -0.00010201      -0.02414029
Pt       7.01803477       5.67261047      19.95766871        3       0.00309269      -0.00003249      -0.02329209
Pt       9.82524854       5.67261039      19.95766860        3       0.00194472       0.00028809      -0.02320212
Pt       0.00000046       1.62074540      22.29208304        2      -0.00479780      -0.00015772       0.01875461
Pt       2.80721419       1.62074531      22.29208311        2      -0.00623208      -0.00211701       0.02245760
Pt       5.61442748       1.62074566      22.29208290        2      -0.00376172      -0.00145756       0.02319279
Pt       1.40360675       4.05186459      22.29208313        2      -0.01083745       0.00085924       0.02740340
Pt       4.21082083       4.05186449      22.29208278        2      -0.00554624       0.00019709       0.02294336
Pt       7.01803481       4.05186460      22.29208288        2      -0.00028543       0.00273158       0.02717511
Pt       2.80721463       6.48298242      22.29208276        2      -0.00645901      -0.00092525       0.01880239
Pt       5.61442775       6.48298327      22.29208278        2      -0.00496317      -0.00201272       0.01957642
Pt       8.42164096       6.48298261      22.29208273        2      -0.00469080      -0.00695530       0.02736450
Pt      -0.00820041      -0.00172817      24.62902515        1       0.00365199       0.00048520       0.01022024
Pt       2.79983209      -0.00249630      24.63108070        1       0.00007051       0.00475400       0.00438553
Pt       5.60572644      -0.00260084      24.63137614        1       0.00609431       0.00566636       0.00231895
Pt       1.39491206       2.43001407      24.63127309        1       0.00642623      -0.00132109       0.00343097
Pt       4.20263592       2.42954063      24.62971841        1       0.00365097       0.00049701       0.00515537
Pt       7.01045480       2.43063596      24.63114963        1      -0.00025822      -0.00553331       0.00368110
Pt       2.79840258       4.86033685      24.63113290        1       0.00745828       0.00081701       0.00363296
Pt       5.60778698       4.86069900      24.63128553        1      -0.00305289      -0.00009413       0.00274386
Pt       8.41400202       4.86055026      24.63784298        1       0.00132778       0.00064704      -0.02698288
C        8.41672819       4.86378876      29.82988804        0       0.00008392       0.00005647      -0.02505874
H        9.06290139       4.23544237      30.46057352        0       0.00506597      -0.00597952       0.02398241
H        7.77563082       5.49153797      30.46631731        0      -0.00490052       0.00599847       0.02395405
H        7.78680545       4.22074365      29.19709338        0      -0.00170482      -0.00238319      -0.01082270
H        9.04157951       5.50742130      29.19265866        0       0.00138612       0.00221072      -0.01062109
