32
Lattice="8.421641763931781 0.0 0.0 4.2108208819658905 7.293355709136913 0.0 0.0 0.0 44.584161137365626" Properties=species:S:1:pos:R:3:tags:I:1:forces:R:3 charge=0 spin=0 energy=-161.48362025731535 free_energy=-161.48362025731535 stress="0.01229464914649725 2.6759240427054465e-05 8.58279690874042e-06 2.6759240427054465e-05 0.012308629229664803 -4.6350405682460405e-06 8.58279690874042e-06 -4.6350405682460405e-06 -0.00016274848894681782" pbc="T T T"
Pt       1.40360727       0.81037244      19.95766877        3      -0.00532599       0.00166119      -0.02296317
Pt       4.21082123       0.81037256      19.95766888        3      -0.00514105       0.00256897      -0.02478674
Pt       7.01803445       0.81037243      19.95766851        3      -0.00713287       0.00291260      -0.02428267
Pt       2.80721413       3.24149135      19.95766844        3      -0.00426185       0.00168971      -0.02492336
Pt       5.61442751       3.24149134      19.95766853        3      -0.00612804       0.00173764      -0.02388621
Pt       8.42164211       3.24149148      19.95766852        3      -0.00730292       0.00218785      -0.02427527
Pt       4.21082074       5.67261030      19.95766878        3      -0.00533218      -0.00015091      -0.02470475
Pt       7.01803477       5.67261047      19.95766871        3      -0.00649351       0.00040288      -0.02442387
Pt       9.82524854       5.67261039      19.95766860        3      -0.00605022       0.00160092      -0.02479503
Pt       0.00000046       1.62074540      22.29208304        2       0.01643536      -0.00683177       0.03093096
Pt       2.80721419       1.62074531      22.29208311        2       0.00683826      -0.00560191       0.02962150
Pt       5.61442748       1.62074566      22.29208290        2       0.01475764      -0.00629733       0.02311811
Pt       1.40360675       4.05186459      22.29208313        2       0.01203749      -0.00487250       0.02879535
Pt       4.21082083       4.05186449      22.29208278        2       0.01031434      -0.00194548       0.02276772
Pt       7.01803481       4.05186460      22.29208288        2       0.01477768      -0.00278907       0.02368454
Pt       2.80721463       6.48298242      22.29208276        2       0.01486726      -0.00317514       0.02936512
Pt       5.61442775       6.48298327      22.29208278        2       0.01276654       0.00229053       0.02984184
Pt       8.42164096       6.48298261      22.29208273        2       0.01253454      -0.00201198       0.02828714
Pt       0.01914449      -0.00463721      24.63376084        1      -0.00401820       0.00248808      -0.00745846
Pt       2.82680036      -0.00490324      24.63377826        1      -0.00934055       0.00374931      -0.00449948
Pt       5.63386945      -0.00411498      24.63221444        1      -0.00745375      -0.00288033      -0.00159578
Pt       1.42279118       2.42690371      24.63387763        1      -0.00623927      -0.00101213      -0.00627517
Pt       4.22964714       2.42602856      24.63116002        1      -0.00518630       0.00288303      -0.00129020
Pt       7.03795235       2.42613437      24.63236558        1      -0.00810547       0.00330690      -0.00414108
Pt       2.82706120       4.85719901      24.63224658        1      -0.01126531       0.00483728      -0.00196878
Pt       5.63348282       4.85840252      24.63157119        1      -0.00595408      -0.00083230      -0.00117979
Pt       8.44066957       4.85748416      24.63206430        1      -0.00411714       0.00250863       0.00082901
C        5.54730763       3.25114078      29.55439023        0       0.00024577       0.00120238       0.00253356
H        4.93303272       3.88486932      30.21241516        0       0.00201207      -0.00303063      -0.00114514
H        6.20488055       2.61519493      30.16685601        0      -0.00215093       0.00242457      -0.00210876
H        6.15932819       3.88876174      28.89862953        0       0.00341660       0.00434445      -0.00031124
H        4.89201672       2.61617769      28.93920879        0      -0.00400387      -0.00336547       0.00124023
