32
Lattice="8.421641763931781 0.0 0.0 4.2108208819658905 7.293355709136913 0.0 0.0 0.0 44.584161137365626" Properties=species:S:1:pos:R:3:tags:I:1:forces:R:3 charge=0 spin=0 energy=-161.4812856625888 free_energy=-161.4812856625888 stress="0.012258656322956085 1.696688741503749e-05 2.8026963718730258e-06 1.696688741503749e-05 0.01231675036251545 9.281672532779339e-07 2.8026963718730258e-06 9.281672532779339e-07 -0.00020222776220180094" pbc="T T T"
Pt       1.40360727       0.81037244      19.95766877        3      -0.00361901       0.00530126      -0.02432453
Pt       4.21082123       0.81037256      19.95766888        3      -0.00524678       0.00465326      -0.02568330
Pt       7.01803445       0.81037243      19.95766851        3      -0.00527990       0.00850637      -0.02401497
Pt       2.80721413       3.24149135      19.95766844        3      -0.00539400       0.00636632      -0.02217002
Pt       5.61442751       3.24149134      19.95766853        3      -0.00340095       0.00758732      -0.02339290
Pt       8.42164211       3.24149148      19.95766852        3      -0.00644539       0.00728253      -0.02514989
Pt       4.21082074       5.67261030      19.95766878        3      -0.00331733       0.00645826      -0.02309302
Pt       7.01803477       5.67261047      19.95766871        3      -0.00498476       0.00572904      -0.02570277
Pt       9.82524854       5.67261039      19.95766860        3      -0.00717909       0.00689224      -0.02441128
Pt       0.00000046       1.62074540      22.29208304        2       0.00881566      -0.01557610       0.03139489
Pt       2.80721419       1.62074531      22.29208311        2       0.00455259      -0.00591912       0.02072622
Pt       5.61442748       1.62074566      22.29208290        2       0.01878972      -0.01192240       0.01920598
Pt       1.40360675       4.05186459      22.29208313        2       0.02225069      -0.01795835       0.01787516
Pt       4.21082083       4.05186449      22.29208278        2       0.00501780      -0.01171045       0.02090913
Pt       7.01803481       4.05186460      22.29208288        2       0.00616395      -0.02022588       0.02872215
Pt       2.80721463       6.48298242      22.29208276        2       0.01484576      -0.01722438       0.03124850
Pt       5.61442775       6.48298327      22.29208278        2       0.00232885      -0.01343667       0.01637140
Pt       8.42164096       6.48298261      22.29208273        2       0.01885372      -0.00975791       0.00788176
Pt       0.01679236      -0.01939912      24.63423633        1      -0.00905547       0.00184329      -0.00428572
Pt       2.82439252      -0.02130126      24.62591948        1      -0.01186192       0.01145082       0.02291571
Pt       5.63309258      -0.01934563      24.63051380        1      -0.00823815      -0.00144887       0.00778783
Pt       1.41616262       2.41123833      24.63353730        1       0.01274901       0.00131149      -0.00580270
Pt       4.22820988       2.40859212      24.62906655        1      -0.00893198       0.02012428       0.01639031
Pt       7.03415247       2.41088785      24.63625916        1      -0.00533021       0.01281333      -0.01786651
Pt       2.82524176       4.83865097      24.63483206        1      -0.00882666       0.02126328      -0.00951382
Pt       5.62750233       4.84355731      24.63163394        1       0.01513639      -0.00683125      -0.00308131
Pt       8.44213823       4.84171536      24.62665756        1      -0.02998200       0.00594032       0.02120363
C        6.72867515       4.36691990      29.66938413        0       0.00499026       0.04254154       0.00886176
H        6.60616632       4.82227817      30.66473914        0       0.02704530      -0.02874201      -0.00393828
H        7.78609799       4.10443114      29.50733852        0      -0.02956847       0.01057948       0.01962896
H        6.40819332       5.08898197      28.90290448        0      -0.00038770      -0.02084034      -0.02321300
H        6.10986590       3.45958776      29.60258075        0      -0.00449006      -0.00505062      -0.00547896
