32
Lattice="8.421641763931781 0.0 0.0 4.2108208819658905 7.293355709136913 0.0 0.0 0.0 44.584161137365626" Properties=species:S:1:pos:R:3:tags:I:1:forces:R:3 charge=0 spin=0 energy=-161.4839015912387 free_energy=-161.4839015912387 stress="0.012247986160218716 -8.283437637146562e-06 -1.141920165537158e-06 -8.283437637146562e-06 0.012266711331903934 -3.0256674108386505e-06 -1.141920165537158e-06 -3.0256674108386505e-06 -0.00023034884361550212" pbc="T T T"
Pt       1.40360727       0.81037244      19.95766877        3       0.00235917       0.00252874      -0.02438458
Pt       4.21082123       0.81037256      19.95766888        3       0.00155792       0.00226913      -0.02536823
Pt       7.01803445       0.81037243      19.95766851        3       0.00048112       0.00267480      -0.02402867
Pt       2.80721413       3.24149135      19.95766844        3       0.00172104       0.00188347      -0.02543916
Pt       5.61442751       3.24149134      19.95766853        3       0.00097279       0.00209087      -0.02592207
Pt       8.42164211       3.24149148      19.95766852        3       0.00130894       0.00230490      -0.02268554
Pt       4.21082074       5.67261030      19.95766878        3       0.00155129       0.00103419      -0.02380019
Pt       7.01803477       5.67261047      19.95766871        3       0.00154004       0.00171313      -0.02262010
Pt       9.82524854       5.67261039      19.95766860        3       0.00151727       0.00187130      -0.02255874
Pt       0.00000046       1.62074540      22.29208304        2      -0.00323119       0.00074264       0.01641838
Pt       2.80721419       1.62074531      22.29208311        2      -0.00677385      -0.00695733       0.01707205
Pt       5.61442748       1.62074566      22.29208290        2       0.00178617      -0.00707893       0.01869973
Pt       1.40360675       4.05186459      22.29208313        2      -0.01271978      -0.00021135       0.03155557
Pt       4.21082083       4.05186449      22.29208278        2      -0.00321459       0.00035268       0.01719064
Pt       7.01803481       4.05186460      22.29208288        2       0.00594852       0.00138949       0.03183270
Pt       2.80721463       6.48298242      22.29208276        2      -0.00851442      -0.00637456       0.01404963
Pt       5.61442775       6.48298327      22.29208278        2       0.00106407      -0.00763663       0.01487749
Pt       8.42164096       6.48298261      22.29208273        2      -0.00164805      -0.01399767       0.03272877
Pt      -0.00485356      -0.00730544      24.62562512        1       0.00354365       0.00579311       0.02511333
Pt       2.80326095      -0.00710221      24.63096324        1       0.00080070       0.00137853       0.00363742
Pt       5.60962764      -0.00756087      24.63174154        1       0.00130122       0.00334050      -0.00020625
Pt       1.39857189       2.42517489      24.63121006        1       0.00058317       0.00109529       0.00233114
Pt       4.20646781       2.42428271      24.62669397        1       0.00041421       0.00135603       0.02029975
Pt       7.01337397       2.42608599      24.63133979        1       0.00549396      -0.00442237       0.00185061
Pt       2.80194452       4.85459853      24.63109286        1       0.00257381       0.00617964       0.00342279
Pt       5.61117159       4.85496438      24.63136409        1      -0.00034688       0.00630262       0.00183810
Pt       8.41752212       4.85594972      24.64124185        1      -0.00009414       0.00041031      -0.04264800
C        8.42025661       4.85821381      29.80142834        0       0.00009571       0.00001291      -0.01970956
H        8.19664107       5.73053206      30.43281309        0      -0.00369168       0.01899550       0.02152191
H        8.64040979       3.98917222      30.43851394        0       0.00356731      -0.01903639       0.02173843
H        9.29185262       5.07840650      29.16744992        0       0.01525566       0.00549179      -0.00831806
H        7.55214632       4.63473797      29.16382893        0      -0.01520329      -0.00549633      -0.00848940
