32
Lattice="8.421641763931781 0.0 0.0 4.2108208819658905 7.293355709136913 0.0 0.0 0.0 44.584161137365626" Properties=species:S:1:pos:R:3:tags:I:1:forces:R:3 charge=0 spin=0 energy=-161.4809900235507 free_energy=-161.4809900235507 stress="0.012255300767719746 -1.5947578503983095e-05 2.4139444576576352e-06 -1.5947578503983095e-05 0.012322787195444107 1.3700695262741647e-06 2.4139444576576352e-06 1.3700695262741647e-06 -0.00019661207625176758" pbc="T T T"
Pt       1.40360727       0.81037244      19.95766877        3       0.00491659       0.00575555      -0.02601303
Pt       4.21082123       0.81037256      19.95766888        3       0.00317889       0.00651809      -0.02455129
Pt       7.01803445       0.81037243      19.95766851        3       0.00511557       0.00924930      -0.02398715
Pt       2.80721413       3.24149135      19.95766844        3       0.00531821       0.00740986      -0.02263864
Pt       5.61442751       3.24149134      19.95766853        3       0.00647025       0.00818203      -0.02517699
Pt       8.42164211       3.24149148      19.95766852        3       0.00370300       0.00839361      -0.02321527
Pt       4.21082074       5.67261030      19.95766878        3       0.00705803       0.00756664      -0.02443062
Pt       7.01803477       5.67261047      19.95766871        3       0.00506659       0.00684680      -0.02546000
Pt       9.82524854       5.67261039      19.95766860        3       0.00304730       0.00781364      -0.02287349
Pt       0.00000046       1.62074540      22.29208304        2      -0.01748273      -0.01539983       0.01905098
Pt       2.80721419       1.62074531      22.29208311        2      -0.00264726      -0.00812836       0.02146384
Pt       5.61442748       1.62074566      22.29208290        2      -0.00662068      -0.01487528       0.03229716
Pt       1.40360675       4.05186459      22.29208313        2      -0.00716152      -0.01373347       0.02242377
Pt       4.21082083       4.05186449      22.29208278        2      -0.02206505      -0.01986370       0.01929576
Pt       7.01803481       4.05186460      22.29208288        2      -0.00592055      -0.02126959       0.02988790
Pt       2.80721463       6.48298242      22.29208276        2      -0.01501316      -0.02003912       0.03049904
Pt       5.61442775       6.48298327      22.29208278        2      -0.01744152      -0.01602063       0.00805464
Pt       8.42164096       6.48298261      22.29208273        2      -0.00014442      -0.01477672       0.01667241
Pt      -0.01700313      -0.02361212      24.63003036        1       0.00830792      -0.00018966       0.01030538
Pt       2.79195674      -0.02596002      24.62577789        1       0.01071256       0.01540749       0.02382347
Pt       5.59939934      -0.02368866      24.63404515        1       0.00830153       0.00244499      -0.00414259
Pt       1.38813554       2.40395944      24.62875630        1       0.00927541       0.02471549       0.01777315
Pt       4.20066105       2.40735305      24.63378875        1      -0.01554580       0.00029859      -0.00655842
Pt       7.00420217       2.40717599      24.63668391        1       0.00215777       0.01044277      -0.01902247
Pt       2.79105426       4.83420670      24.63472332        1       0.00678794       0.02293115      -0.00928609
Pt       5.59559615       4.83743348      24.62792266        1       0.02892852       0.00677856       0.01668611
Pt       8.40935519       4.83932235      24.63240691        1      -0.01056584      -0.00516490      -0.00578671
C        7.30632618       4.38111632      29.66965327        0       0.00061682       0.03415846       0.00585160
H        7.43336471       4.83160740      30.66665975        0      -0.02799745      -0.02913651      -0.00596271
H        6.24957452       4.11407359      29.51206930        0       0.02320596       0.00984965       0.02296811
H        7.92912596       3.47724568      29.59329831        0       0.00387779      -0.00588138      -0.00116005
H        7.61793754       5.10813260      28.90457724        0       0.00255956      -0.01028349      -0.02678781
