32
Lattice="8.421641763931781 0.0 0.0 4.2108208819658905 7.293355709136913 0.0 0.0 0.0 44.584161137365626" Properties=species:S:1:pos:R:3:tags:I:1:forces:R:3 charge=0 spin=0 energy=-161.48380622380705 free_energy=-161.48380622380705 stress="0.012310477904975414 -7.480100521206623e-06 -2.4787459551589563e-06 -7.480100521206623e-06 0.012265433557331562 6.7392866185400635e-06 -2.4787459551589563e-06 6.7392866185400635e-06 -0.000191696613910608" pbc="T T T"
Pt       1.40360727       0.81037244      19.95766877        3       0.00311495      -0.00492627      -0.02397720
Pt       4.21082123       0.81037256      19.95766888        3       0.00263241      -0.00670060      -0.02499643
Pt       7.01803445       0.81037243      19.95766851        3       0.00143889      -0.00517555      -0.02422349
Pt       2.80721413       3.24149135      19.95766844        3       0.00084441      -0.00463149      -0.02460863
Pt       5.61442751       3.24149134      19.95766853        3       0.00354254      -0.00496537      -0.02454739
Pt       8.42164211       3.24149148      19.95766852        3       0.00216811      -0.00524001      -0.02424582
Pt       4.21082074       5.67261030      19.95766878        3       0.00206169      -0.00640076      -0.02437958
Pt       7.01803477       5.67261047      19.95766871        3       0.00299482      -0.00589481      -0.02409836
Pt       9.82524854       5.67261039      19.95766860        3       0.00158806      -0.00545269      -0.02435640
Pt       0.00000046       1.62074540      22.29208304        2      -0.00260807       0.01269550       0.02513519
Pt       2.80721419       1.62074531      22.29208311        2      -0.00808858       0.00856851       0.02965355
Pt       5.61442748       1.62074566      22.29208290        2      -0.00298747       0.01068373       0.02923595
Pt       1.40360675       4.05186459      22.29208313        2      -0.00170010       0.00808422       0.02717447
Pt       4.21082083       4.05186449      22.29208278        2      -0.00511451       0.01441906       0.02502333
Pt       7.01803481       4.05186460      22.29208288        2      -0.00867052       0.01119193       0.02360608
Pt       2.80721463       6.48298242      22.29208276        2      -0.00540716       0.01263154       0.02563373
Pt       5.61442775       6.48298327      22.29208278        2      -0.00449298       0.01180042       0.02703896
Pt       8.42164096       6.48298261      22.29208273        2      -0.00506174       0.01521114       0.02352553
Pt      -0.00817886       0.01842231      24.63075648        1       0.00342494      -0.00940125       0.00532562
Pt       2.79996538       0.01587539      24.63354346        1      -0.00184012       0.00463386      -0.00680641
Pt       5.60558717       0.01622446      24.63285137        1       0.00763722       0.00385246      -0.00538648
Pt       1.39550834       2.44850872      24.63403504        1       0.00556024      -0.00724042      -0.00994775
Pt       4.20178377       2.44945195      24.62966873        1       0.00897985      -0.01171391       0.00648531
Pt       7.01067355       2.44940265      24.63248480        1      -0.00443593      -0.01267337      -0.00374055
Pt       2.79975839       4.88041390      24.63286360        1       0.00131329      -0.00946649      -0.00360862
Pt       5.60677032       4.88051148      24.63300369        1       0.00048841      -0.01001469      -0.00407145
Pt       8.41392571       4.87905222      24.63123531        1       0.00283651      -0.00422757       0.00141673
C        8.42491923       4.85788003      29.81917761        0      -0.00022728       0.00029973      -0.00189854
H        9.28643840       4.60131436      30.45331769        0       0.01669985      -0.00456713       0.01410142
H        7.56445959       5.11168453      30.45586907        0      -0.01668775       0.00427078       0.01407245
H        8.16938240       3.99695956      29.18328851        0       0.00050302       0.00249859      -0.01102885
H        8.67941859       5.72160871      29.18671755        0      -0.00050704      -0.00214920      -0.01150623
