32
Lattice="8.421641763931781 0.0 0.0 4.2108208819658905 7.293355709136913 0.0 0.0 0.0 44.584161137365626" Properties=species:S:1:pos:R:3:tags:I:1:forces:R:3 charge=0 spin=0 energy=-161.48354300969572 free_energy=-161.48354300969572 stress="0.012324285693466663 3.8130066968733445e-05 5.22864183949423e-06 3.8130066968733445e-05 0.012325437739491463 2.6571901798888575e-06 5.22864183949423e-06 2.6571901798888575e-06 -0.00013174886407796293" pbc="T T T"
Pt       1.40360727       0.81037244      19.95766877        3      -0.00619411      -0.00022811      -0.02384607
Pt       4.21082123       0.81037256      19.95766888        3      -0.00568817       0.00008060      -0.02420839
Pt       7.01803445       0.81037243      19.95766851        3      -0.00537666       0.00188242      -0.02442989
Pt       2.80721413       3.24149135      19.95766844        3      -0.00546765       0.00062868      -0.02401524
Pt       5.61442751       3.24149134      19.95766853        3      -0.00427365       0.00117587      -0.02454400
Pt       8.42164211       3.24149148      19.95766852        3      -0.00739832       0.00098501      -0.02494279
Pt       4.21082074       5.67261030      19.95766878        3      -0.00433158      -0.00046753      -0.02443433
Pt       7.01803477       5.67261047      19.95766871        3      -0.00606547      -0.00132567      -0.02480443
Pt       9.82524854       5.67261039      19.95766860        3      -0.00708103      -0.00053228      -0.02482162
Pt       0.00000046       1.62074540      22.29208304        2       0.01308804      -0.00441486       0.02920932
Pt       2.80721419       1.62074531      22.29208311        2       0.01298496       0.00021457       0.02969485
Pt       5.61442748       1.62074566      22.29208290        2       0.01249541      -0.00366245       0.02973051
Pt       1.40360675       4.05186459      22.29208313        2       0.01361872       0.00180995       0.03023825
Pt       4.21082083       4.05186449      22.29208278        2       0.00656711       0.00049090       0.02890196
Pt       7.01803481       4.05186460      22.29208288        2       0.01417451      -0.00094650       0.02982405
Pt       2.80721463       6.48298242      22.29208276        2       0.01145083      -0.00089744       0.03679683
Pt       5.61442775       6.48298327      22.29208278        2       0.01015923       0.00131599       0.02743823
Pt       8.42164096       6.48298261      22.29208273        2       0.01641521       0.00197552       0.03088537
Pt       0.01906863       0.00033707      24.63414413        1      -0.00941837      -0.00268169      -0.00560768
Pt       2.82607583      -0.00082072      24.63192154        1      -0.00705345       0.00523374      -0.00220379
Pt       5.63306401      -0.00001592      24.63414557        1      -0.00367047      -0.00060121      -0.00826577
Pt       1.42201377       2.43147362      24.63207855        1      -0.00409364      -0.00136836      -0.00053153
Pt       4.23045164       2.43126116      24.63238973        1      -0.01187275      -0.00268796      -0.00391814
Pt       7.03689227       2.43029684      24.63323560        1      -0.00655507       0.00460853      -0.00821039
Pt       2.82552465       4.86173473      24.63435545        1      -0.00508272       0.00370836      -0.00662074
Pt       5.63222612       4.86236223      24.63221801        1      -0.00217910      -0.00096346      -0.00587819
Pt       8.44107161       4.86261312      24.63384821        1      -0.00924785      -0.00211435      -0.01074948
C        6.95291174       4.05849949      29.55722198        0       0.00173835      -0.00610900       0.03665910
H        7.59479411       4.69634914      30.18601409        0      -0.02254014      -0.02208694      -0.01975402
H        6.31955685       3.42660965      30.20058639        0       0.02336234       0.02350510      -0.01950516
H        7.58287995       3.41905722      28.92031443        0       0.00231769      -0.00247100       0.00156334
H        6.31450502       4.69120048      28.92242072        0      -0.00478245       0.00594351       0.00035004
