32
Lattice="8.421641763931781 0.0 0.0 4.2108208819658905 7.293355709136913 0.0 0.0 0.0 44.584161137365626" Properties=species:S:1:pos:R:3:tags:I:1:forces:R:3 charge=0 spin=0 energy=-161.48177203649016 free_energy=-161.48177203649016 stress="0.012232483364641666 2.022154831138323e-06 7.569371064164443e-06 2.022154831138323e-06 0.012334266677498817 -1.1896131582034286e-05 7.569371064164443e-06 -1.1896131582034286e-05 -0.00019377640273887664" pbc="T T T"
Pt       1.40360727       0.81037244      19.95766877        3      -0.00151115       0.00941904      -0.02401183
Pt       4.21082123       0.81037256      19.95766888        3      -0.00204208       0.00920041      -0.02369247
Pt       7.01803445       0.81037243      19.95766851        3      -0.00208642       0.01205641      -0.02481333
Pt       2.80721413       3.24149135      19.95766844        3      -0.00162370       0.01182110      -0.02211514
Pt       5.61442751       3.24149134      19.95766853        3      -0.00002775       0.01201787      -0.02514319
Pt       8.42164211       3.24149148      19.95766852        3      -0.00368981       0.01234137      -0.02443448
Pt       4.21082074       5.67261030      19.95766878        3      -0.00056829       0.00999148      -0.02440068
Pt       7.01803477       5.67261047      19.95766871        3      -0.00194996       0.00978643      -0.02414156
Pt       9.82524854       5.67261039      19.95766860        3      -0.00322760       0.01060190      -0.02457987
Pt       0.00000046       1.62074540      22.29208304        2       0.00587897      -0.02474987       0.02328338
Pt       2.80721419       1.62074531      22.29208311        2       0.00401716      -0.02049857       0.02299822
Pt       5.61442748       1.62074566      22.29208290        2       0.00606397      -0.02222317       0.02202811
Pt       1.40360675       4.05186459      22.29208313        2       0.01046620      -0.02484822       0.02184805
Pt       4.21082083       4.05186449      22.29208278        2      -0.00299566      -0.02323304       0.02262867
Pt       7.01803481       4.05186460      22.29208288        2       0.00468712      -0.02581313       0.02186227
Pt       2.80721463       6.48298242      22.29208276        2       0.00532850      -0.02486010       0.02536733
Pt       5.61442775       6.48298327      22.29208278        2       0.00355939      -0.02007779       0.01993910
Pt       8.42164096       6.48298261      22.29208273        2       0.00497048      -0.01839968       0.01853506
Pt       0.00752586      -0.03582086      24.63164333        1      -0.00646630       0.01376790       0.00653732
Pt       2.81382660      -0.03423000      24.63204671        1      -0.00114043       0.00622238      -0.00086965
Pt       5.62147531      -0.03543202      24.63114447        1      -0.00259877       0.01328556       0.00864338
Pt       1.40978230       2.39597578      24.63189441        1       0.00050988       0.01347773       0.00422851
Pt       4.21803282       2.39572675      24.63145424        1      -0.00283690       0.01330426       0.00564496
Pt       7.02528904       2.39538071      24.63249290        1      -0.00450378       0.01648015      -0.00272879
Pt       2.81405660       4.82652572      24.63461359        1      -0.00117942       0.01300009      -0.00441858
Pt       5.61980685       4.82720733      24.63051143        1       0.00765483       0.00920117      -0.00084747
Pt       8.43043928       4.82757829      24.63027995        1      -0.01467970       0.00894292       0.00055659
C        7.02773412       4.87076347      29.33733588        0      -0.00002641       0.00047238       0.02138558
H        6.50670086       5.60556971      29.97128828        0       0.01284076      -0.01302326      -0.01624861
H        7.54360631       4.13619100      29.97579526        0      -0.01334241       0.01299192      -0.01745621
H        7.76397161       5.38808564      28.70387480        0       0.00625406       0.00588274       0.00695338
H        6.29669200       4.35337922      28.69794074        0      -0.00573448      -0.00653850       0.00746188
