32
Lattice="8.421641763931781 0.0 0.0 4.2108208819658905 7.293355709136913 0.0 0.0 0.0 44.584161137365626" Properties=species:S:1:pos:R:3:tags:I:1:forces:R:3 charge=0 spin=0 energy=-161.48362025731535 free_energy=-161.48362025731535 stress="0.01232893392443657 -7.47676449464052e-06 -7.192790576482366e-07 -7.47676449464052e-06 0.01227410975843668 1.1257377082074527e-05 -7.192790576482366e-07 1.1257377082074527e-05 -0.0001628826285013929" pbc="T T T"
Pt       1.40360727       0.81037244      19.95766877        3       0.00122191      -0.00544460      -0.02296378
Pt       4.21082123       0.81037256      19.95766888        3       0.00279076      -0.00455923      -0.02469533
Pt       7.01803445       0.81037243      19.95766851        3       0.00066583      -0.00454009      -0.02491323
Pt       2.80721413       3.24149135      19.95766844        3       0.00288678      -0.00584112      -0.02442633
Pt       5.61442751       3.24149134      19.95766853        3       0.00155986      -0.00619546      -0.02388812
Pt       8.42164211       3.24149148      19.95766852        3       0.00033138      -0.00574414      -0.02478638
Pt       4.21082074       5.67261030      19.95766878        3       0.00176031      -0.00742674      -0.02428346
Pt       7.01803477       5.67261047      19.95766871        3       0.00104459      -0.00764957      -0.02428853
Pt       9.82524854       5.67261039      19.95766860        3       0.00163086      -0.00605690      -0.02479219
Pt       0.00000046       1.62074540      22.29208304        2       0.00143129       0.00874740       0.02957688
Pt       2.80721419       1.62074531      22.29208311        2      -0.00835024       0.00994252       0.02980754
Pt       5.61442748       1.62074566      22.29208290        2      -0.00346882       0.00990941       0.02272264
Pt       1.40360675       4.05186459      22.29208313        2      -0.00450397       0.01189514       0.02828850
Pt       4.21082083       4.05186449      22.29208278        2      -0.00497594       0.01422367       0.02368659
Pt       7.01803481       4.05186460      22.29208288        2      -0.00190784       0.01596067       0.02312805
Pt       2.80721463       6.48298242      22.29208276        2      -0.00180956       0.01287819       0.02876889
Pt       5.61442775       6.48298327      22.29208278        2      -0.00229576       0.01768173       0.03091341
Pt       8.42164096       6.48298261      22.29208273        2      -0.00465577       0.01449237       0.02936629
Pt      -0.00592650       0.01875970      24.63386956        1       0.00398540      -0.00493039      -0.00625770
Pt       2.80166884       0.01893752      24.63375157        1      -0.00015909      -0.00475706      -0.00740965
Pt       5.60887443       0.01974622      24.63225061        1       0.00144014      -0.01217631      -0.00198078
Pt       1.39807187       2.45057623      24.63377092        1       0.00141480      -0.00998110      -0.00446600
Pt       4.20462205       2.44957807      24.63156961        1       0.00366763      -0.00475400      -0.00115992
Pt       7.01304466       2.45000497      24.63115387        1       0.00009763      -0.00592407      -0.00126367
Pt       2.80182653       4.88113110      24.63207111        1      -0.00009617      -0.00484917       0.00081497
Pt       5.60880376       4.88200622      24.63235921        1       0.00119545      -0.00867292      -0.00410351
Pt       8.41550256       4.88116964      24.63221814        1       0.00622362      -0.00502608      -0.00159518
C        5.63962916       3.17852992      29.55444301        0      -0.00118270      -0.00039322       0.00234427
H        5.39794015       2.32969479      30.21246917        0       0.00158200       0.00313272      -0.00107167
H        5.86158727       4.06597465      30.16690664        0      -0.00099035      -0.00293822      -0.00203586
H        4.78142712       3.38974398      28.89867783        0      -0.00547494       0.00078818      -0.00028575
H        6.51716771       2.92851072      28.93926231        0       0.00494077      -0.00179161       0.00124901
