32
Lattice="8.421641763931781 0.0 0.0 4.2108208819658905 7.293355709136913 0.0 0.0 0.0 44.584161137365626" Properties=species:S:1:pos:R:3:tags:I:1:forces:R:3 charge=0 spin=0 energy=-161.48373660558195 free_energy=-161.48373660558195 stress="0.012296957895159721 7.876520612626337e-06 5.48258981325489e-07 7.876520612626337e-06 0.012265374884009361 7.251143415487604e-06 5.48258981325489e-07 7.251143415487604e-06 -0.00020259497978258878" pbc="T T T"
Pt       1.40360727       0.81037244      19.95766877        3      -0.00223087      -0.00423865      -0.02401611
Pt       4.21082123       0.81037256      19.95766888        3      -0.00328401      -0.00590264      -0.02511019
Pt       7.01803445       0.81037243      19.95766851        3      -0.00413168      -0.00433037      -0.02411552
Pt       2.80721413       3.24149135      19.95766844        3      -0.00457149      -0.00426775      -0.02491119
Pt       5.61442751       3.24149134      19.95766853        3      -0.00174583      -0.00393755      -0.02467245
Pt       8.42164211       3.24149148      19.95766852        3      -0.00290097      -0.00477268      -0.02400490
Pt       4.21082074       5.67261030      19.95766878        3      -0.00316985      -0.00597930      -0.02422430
Pt       7.01803477       5.67261047      19.95766871        3      -0.00289676      -0.00470477      -0.02405994
Pt       9.82524854       5.67261039      19.95766860        3      -0.00402353      -0.00490390      -0.02396849
Pt       0.00000046       1.62074540      22.29208304        2       0.00772898       0.01093301       0.02485513
Pt       2.80721419       1.62074531      22.29208311        2       0.00336308       0.00791025       0.03277662
Pt       5.61442748       1.62074566      22.29208290        2       0.01010303       0.00790168       0.02852687
Pt       1.40360675       4.05186459      22.29208313        2       0.01120623       0.00676126       0.01826318
Pt       4.21082083       4.05186449      22.29208278        2       0.00549863       0.01475820       0.02682528
Pt       7.01803481       4.05186460      22.29208288        2       0.00053513       0.00820922       0.02156072
Pt       2.80721463       6.48298242      22.29208276        2       0.00640701       0.01198475       0.02759426
Pt       5.61442775       6.48298327      22.29208278        2       0.00590348       0.00981343       0.02453835
Pt       8.42164096       6.48298261      22.29208273        2       0.00817336       0.01531183       0.01750835
Pt       0.01089348       0.01707617      24.63038841        1      -0.00755579      -0.01047313       0.00537575
Pt       2.81883706       0.01254693      24.63264104        1      -0.01428542       0.01942340      -0.00336681
Pt       5.62314413       0.01367124      24.63336528        1       0.00672342       0.01028697      -0.00593923
Pt       1.41288995       2.44907528      24.63337925        1       0.00726854      -0.02420980      -0.00719105
Pt       4.22195864       2.44786503      24.62909513        1      -0.01038725      -0.01204118       0.00718912
Pt       7.02863511       2.44732856      24.63302639        1      -0.01059577      -0.01382508      -0.00450902
Pt       2.81526505       4.87869241      24.63276916        1       0.01313147      -0.00755692      -0.00227892
Pt       5.62466116       4.87893818      24.63321148        1      -0.01062130      -0.01046398      -0.00477335
Pt       8.43144906       4.87691643      24.62968472        1      -0.00383435      -0.00225875       0.01306786
C        8.41762131       4.86212799      29.84064178        0      -0.00000392       0.00067496      -0.00570216
H        7.55830603       4.59549164      30.47297982        0      -0.02464426      -0.00965813       0.02355735
H        9.27972569       5.10568069      30.47849008        0       0.02449194       0.00864704       0.02317364
H        8.15952747       5.73630803      29.22425235        0       0.00473968      -0.00758770      -0.02090246
H        8.67281416       4.01096905      29.19169918        0      -0.00439078       0.00849637      -0.02106650
