32
Lattice="8.421641763931781 0.0 0.0 4.2108208819658905 7.293355709136913 0.0 0.0 0.0 44.584161137365626" Properties=species:S:1:pos:R:3:tags:I:1:forces:R:3 charge=0 spin=0 energy=-161.47716769689055 free_energy=-161.47716769689055 stress="0.012280579656362534 -3.600326817831956e-05 -1.5516370694967918e-05 -3.600326817831956e-05 0.012277642264962196 1.560483724460937e-06 -1.5516370694967918e-05 1.560483724460937e-06 -0.00020146944734733552" pbc="T T T"
Pt       1.40360727       0.81037244      19.95766877        3       0.00765068      -0.00053606      -0.02406126
Pt       4.21082123       0.81037256      19.95766888        3       0.00960522      -0.00396111      -0.02331541
Pt       7.01803445       0.81037243      19.95766851        3       0.00722464      -0.00142223      -0.02526036
Pt       2.80721413       3.24149135      19.95766844        3       0.00638454      -0.00057680      -0.02253747
Pt       5.61442751       3.24149134      19.95766853        3       0.01064253      -0.00232482      -0.02447775
Pt       8.42164211       3.24149148      19.95766852        3       0.00773489      -0.00044121      -0.02517455
Pt       4.21082074       5.67261030      19.95766878        3       0.00741443      -0.00282796      -0.02371264
Pt       7.01803477       5.67261047      19.95766871        3       0.01037493      -0.00351075      -0.02275923
Pt       9.82524854       5.67261039      19.95766860        3       0.00787926      -0.00217534      -0.02555843
Pt       0.00000046       1.62074540      22.29208304        2      -0.00443410       0.00052752       0.01970658
Pt       2.80721419       1.62074531      22.29208311        2      -0.02194616      -0.00049902       0.03132664
Pt       5.61442748       1.62074566      22.29208290        2      -0.02454328       0.00714829       0.00683251
Pt       1.40360675       4.05186459      22.29208313        2      -0.01146239      -0.00276398       0.03033936
Pt       4.21082083       4.05186449      22.29208278        2      -0.02022735       0.00911776       0.02947675
Pt       7.01803481       4.05186460      22.29208288        2      -0.02239705       0.01477534       0.02341829
Pt       2.80721463       6.48298242      22.29208276        2      -0.01070001      -0.00194809       0.01051025
Pt       5.61442775       6.48298327      22.29208278        2      -0.01339529       0.00107603       0.04554724
Pt       8.42164096       6.48298261      22.29208273        2      -0.03219768       0.00529619       0.02368445
Pt      -0.02989730       0.00462174      24.63115004        1       0.03927904      -0.00148277       0.00894911
Pt       2.77926147       0.00935649      24.63700002        1       0.00361319      -0.02868762      -0.02562400
Pt       5.58730429       0.00436211      24.62650199        1      -0.00423078       0.00913233       0.02635133
Pt       1.37679300       2.43652210      24.63624988        1       0.01108701      -0.00179466      -0.01622389
Pt       4.18300224       2.43872775      24.63001547        1       0.00560030      -0.00893768       0.01048835
Pt       6.99221825       2.43544323      24.62565594        1       0.00627375       0.01184710       0.02692929
Pt       2.77843823       4.87068354      24.63529447        1       0.02289992      -0.02363857      -0.00864342
Pt       5.58607450       4.86486238      24.63566040        1       0.02310188       0.02544863      -0.02029628
Pt       8.39764926       4.86770652      24.63185263        1      -0.02125209       0.00297456      -0.01428796
C        8.45071592       4.84056258      29.24885757        0       0.00634197      -0.00679824      -0.00389209
H        9.14224363       4.25617340      29.87367614        0       0.01987868      -0.00364781       0.01972126
H        7.79264793       5.44251771      29.89355574        0      -0.01080961      -0.00091082      -0.00016333
H        7.84433398       4.15352110      28.63963956        0      -0.01306875       0.01156589      -0.00475482
H        9.02649431       5.50675955      28.58885444        0      -0.00232183      -0.00002394      -0.00253843
