32
Lattice="8.421641763931781 0.0 0.0 4.2108208819658905 7.293355709136913 0.0 0.0 0.0 44.584161137365626" Properties=species:S:1:pos:R:3:tags:I:1:forces:R:3 charge=0 spin=0 energy=-161.48165091985197 free_energy=-161.48165091985197 stress="0.012300840578973293 -4.284399437892716e-06 -1.7514568753540516e-05 -4.284399437892716e-06 0.012225696817040443 1.12347916001454e-05 -1.7514568753540516e-05 1.12347916001454e-05 -0.00022929963597562164" pbc="T T T"
Pt       1.40360727       0.81037244      19.95766877        3       0.00065836      -0.00506952      -0.02311081
Pt       4.21082123       0.81037256      19.95766888        3       0.00395532      -0.00402134      -0.02288123
Pt       7.01803445       0.81037243      19.95766851        3       0.00221064      -0.00447718      -0.02500771
Pt       2.80721413       3.24149135      19.95766844        3       0.00380436      -0.00569463      -0.02422082
Pt       5.61442751       3.24149134      19.95766853        3       0.00232386      -0.00557099      -0.02350328
Pt       8.42164211       3.24149148      19.95766852        3       0.00133415      -0.00568171      -0.02543761
Pt       4.21082074       5.67261030      19.95766878        3       0.00285229      -0.00661338      -0.02426177
Pt       7.01803477       5.67261047      19.95766871        3       0.00144622      -0.00784288      -0.02327309
Pt       9.82524854       5.67261039      19.95766860        3       0.00291434      -0.00575974      -0.02444470
Pt       0.00000046       1.62074540      22.29208304        2       0.00572167       0.00726668       0.01774816
Pt       2.80721419       1.62074531      22.29208311        2      -0.00564167       0.01164107       0.03694408
Pt       5.61442748       1.62074566      22.29208290        2      -0.01509344       0.00889327       0.01157706
Pt       1.40360675       4.05186459      22.29208313        2      -0.00382144       0.01187880       0.02391628
Pt       4.21082083       4.05186449      22.29208278        2      -0.00732012       0.00922396       0.02756584
Pt       7.01803481       4.05186460      22.29208288        2      -0.00640246       0.02074071       0.00939841
Pt       2.80721463       6.48298242      22.29208276        2      -0.00477559       0.00818965       0.01852426
Pt       5.61442775       6.48298327      22.29208278        2      -0.00158999       0.01532152       0.02772726
Pt       8.42164096       6.48298261      22.29208273        2      -0.00837558       0.01620601       0.02267661
Pt      -0.00987074       0.01675651      24.63113360        1       0.01754698      -0.00078236       0.00729735
Pt       2.79825487       0.01767194      24.63358065        1       0.00238117       0.00227123      -0.00782913
Pt       5.60647649       0.01867629      24.63032164        1      -0.00587123      -0.01402299       0.00872932
Pt       1.39535244       2.45087153      24.63236628        1       0.01078904      -0.01877725      -0.00171751
Pt       4.20452952       2.44916688      24.63547191        1      -0.01909324      -0.00896191      -0.02177447
Pt       7.00960065       2.44842041      24.62541825        1       0.00892606      -0.00350006       0.02574230
Pt       2.79931341       4.88068066      24.63195187        1      -0.00122848      -0.01243325      -0.00060038
Pt       5.60643987       4.87975324      24.63316330        1      -0.00301217       0.00103663      -0.00867945
Pt       8.41155672       4.88036528      24.62977013        1       0.01460336      -0.00383612       0.01019359
C        5.60121482       3.21172362      29.33801771        0       0.00220712      -0.00252861      -0.01780596
H        4.86203173       2.85419476      30.07116272        0       0.02285108      -0.00614768       0.01059592
H        6.22005748       4.00191615      29.78826200        0      -0.00327339       0.01617350       0.02479078
H        5.07706782       3.61332247      28.45904449        0      -0.02212239       0.02566987      -0.02491204
H        6.24774150       2.37911400      29.02360041        0       0.00109505      -0.03279141       0.01603254
