32
Lattice="8.421641763931781 0.0 0.0 4.2108208819658905 7.293355709136913 0.0 0.0 0.0 44.584161137365626" Properties=species:S:1:pos:R:3:tags:I:1:forces:R:3 charge=0 spin=0 energy=-161.48362407201262 free_energy=-161.48362407201262 stress="0.012313660234212875 -2.940277954621706e-05 -7.228298727568472e-06 -2.940277954621706e-05 0.012298321351408958 2.1412222395156277e-06 -7.228298727568472e-06 2.1412222395156277e-06 -0.00015609594993293285" pbc="T T T"
Pt       1.40360727       0.81037244      19.95766877        3       0.00552891      -0.00163881      -0.02392328
Pt       4.21082123       0.81037256      19.95766888        3       0.00659506      -0.00205003      -0.02350252
Pt       7.01803445       0.81037243      19.95766851        3       0.00575357      -0.00015586      -0.02456009
Pt       2.80721413       3.24149135      19.95766844        3       0.00580231      -0.00105232      -0.02374412
Pt       5.61442751       3.24149134      19.95766853        3       0.00759279      -0.00087506      -0.02502656
Pt       8.42164211       3.24149148      19.95766852        3       0.00443957      -0.00063572      -0.02450914
Pt       4.21082074       5.67261030      19.95766878        3       0.00714973      -0.00260083      -0.02490010
Pt       7.01803477       5.67261047      19.95766871        3       0.00609798      -0.00364436      -0.02478150
Pt       9.82524854       5.67261039      19.95766860        3       0.00436413      -0.00219550      -0.02443861
Pt       0.00000046       1.62074540      22.29208304        2      -0.01033689      -0.00262766       0.02773538
Pt       2.80721419       1.62074531      22.29208311        2      -0.01334028       0.00270762       0.02882095
Pt       5.61442748       1.62074566      22.29208290        2      -0.01342341       0.00005785       0.02647306
Pt       1.40360675       4.05186459      22.29208313        2      -0.00830272       0.00397042       0.02658818
Pt       4.21082083       4.05186449      22.29208278        2      -0.01766687       0.00443337       0.02837637
Pt       7.01803481       4.05186460      22.29208288        2      -0.01411890       0.00350097       0.02460869
Pt       2.80721463       6.48298242      22.29208276        2      -0.01185652       0.00305405       0.03672939
Pt       5.61442775       6.48298327      22.29208278        2      -0.01567581       0.00518024       0.02876565
Pt       8.42164096       6.48298261      22.29208273        2      -0.00934877       0.00841418       0.02639639
Pt      -0.01917999       0.00493418      24.63415385        1       0.00269297      -0.00222533      -0.00799031
Pt       2.78754476       0.00429449      24.63217146        1       0.00704590       0.00348855      -0.00270260
Pt       5.59463446       0.00520695      24.63422010        1       0.00988264      -0.00451194      -0.00547240
Pt       1.38357607       2.43643063      24.63228298        1       0.01158691      -0.00434660      -0.00292467
Pt       4.19175093       2.43620309      24.63194645        1       0.00373973      -0.00265049      -0.00006571
Pt       6.99876868       2.43505899      24.63171366        1       0.00586217       0.00228695      -0.00204544
Pt       2.78791860       4.86664571      24.63429629        1       0.00666418       0.00244814      -0.00693393
Pt       5.59427106       4.86750741      24.63255621        1       0.00894719      -0.00289991      -0.00523073
Pt       8.40285608       4.86771422      24.63137287        1       0.00383631      -0.00384720      -0.00197557
C        7.08750563       4.04253268      29.55327686        0      -0.00031850      -0.00127616       0.00348433
H        6.42982999       4.67945183      30.16465880        0       0.00239171      -0.00270169      -0.00268903
H        7.70154155       3.40974830      30.21247318        0      -0.00226185       0.00331876      -0.00182594
H        7.74301033       4.67652019      28.93731235        0       0.00397846       0.00329722       0.00135957
H        6.47560138       3.40397411      28.89830861        0      -0.00330173      -0.00422277      -0.00009585
