32
Lattice="8.421641763931781 0.0 0.0 4.2108208819658905 7.293355709136913 0.0 0.0 0.0 44.584161137365626" Properties=species:S:1:pos:R:3:tags:I:1:forces:R:3 charge=0 spin=0 energy=-161.48442229741545 free_energy=-161.48442229741545 stress="0.012273619882762432 4.852113306696992e-06 -6.953603701731481e-07 4.852113306696992e-06 0.012243100441992283 9.189122351926926e-07 -6.953603701731481e-07 9.189122351926926e-07 -0.00020956130174454302" pbc="T T T"
Pt       1.40360727       0.81037244      19.95766877        3       0.00123238      -0.00001548      -0.02392023
Pt       4.21082123       0.81037256      19.95766888        3       0.00031418      -0.00232621      -0.02421709
Pt       7.01803445       0.81037243      19.95766851        3      -0.00031477      -0.00005867      -0.02404750
Pt       2.80721413       3.24149135      19.95766844        3      -0.00129006       0.00006915      -0.02403751
Pt       5.61442751       3.24149134      19.95766853        3       0.00194864       0.00019372      -0.02383950
Pt       8.42164211       3.24149148      19.95766852        3       0.00049198      -0.00029057      -0.02402646
Pt       4.21082074       5.67261030      19.95766878        3       0.00037970      -0.00150609      -0.02417900
Pt       7.01803477       5.67261047      19.95766871        3       0.00074214      -0.00053269      -0.02408982
Pt       9.82524854       5.67261039      19.95766860        3      -0.00008487      -0.00069912      -0.02416522
Pt       0.00000046       1.62074540      22.29208304        2      -0.00026984       0.00434690       0.01923697
Pt       2.80721419       1.62074531      22.29208311        2      -0.00353198      -0.00096481       0.01732764
Pt       5.61442748       1.62074566      22.29208290        2       0.00229306      -0.00005386       0.01832361
Pt       1.40360675       4.05186459      22.29208313        2       0.00285070      -0.00084387       0.02282080
Pt       4.21082083       4.05186449      22.29208278        2      -0.00139841       0.00499815       0.01919254
Pt       7.01803481       4.05186460      22.29208288        2      -0.00478186      -0.00005207       0.02246718
Pt       2.80721463       6.48298242      22.29208276        2      -0.00383301       0.00001665       0.02014303
Pt       5.61442775       6.48298327      22.29208278        2       0.00141369      -0.00165480       0.01964857
Pt       8.42164096       6.48298261      22.29208273        2      -0.00046115       0.00529594       0.02230523
Pt      -0.00128121       0.00188967      24.62821026        1      -0.00004222      -0.00122031       0.01751592
Pt       2.80542642       0.00276158      24.63199752        1       0.00456813      -0.00899549      -0.00055443
Pt       5.61354949       0.00230231      24.63208930        1      -0.00328561      -0.00737604      -0.00143850
Pt       1.40288975       2.43239376      24.63203267        1      -0.00512806       0.00607921      -0.00080948
Pt       4.20954309       2.43289929      24.62778720        1       0.00109368       0.00028816       0.01850487
Pt       7.01608933       2.43238418      24.63210148        1       0.00576066       0.00523696      -0.00115254
Pt       2.80669776       4.86407952      24.63231670        1      -0.00678648      -0.00010565      -0.00178545
Pt       5.61259933       4.86395433      24.63235059        1       0.00739610       0.00040354      -0.00195383
Pt       8.42031162       4.86399794      24.62945906        1       0.00074314      -0.00019900       0.00516686
C        8.42257235       4.86391277      29.82749025        0      -0.00007278       0.00011200       0.03099603
H        9.29058001       5.09575548      30.46442378        0      -0.01249148      -0.00250143      -0.01588885
H        7.55305554       4.63486656      30.46337309        0       0.01245399       0.00245954      -0.01577309
H        8.65384820       3.99593414      29.19270534        0       0.00598425      -0.02668014       0.00118162
H        8.19279596       5.72907890      29.18833166        0      -0.00589365       0.02657624       0.00104748
