32
Lattice="8.421641763931781 0.0 0.0 4.2108208819658905 7.293355709136913 0.0 0.0 0.0 44.584161137365626" Properties=species:S:1:pos:R:3:tags:I:1:forces:R:3 charge=0 spin=0 energy=-161.48441848271818 free_energy=-161.48441848271818 stress="0.012247343547642231 1.0745098734332714e-05 1.0132359875569819e-06 1.0745098734332714e-05 0.012271146290004253 2.0723504690067784e-07 1.0132359875569819e-06 2.0723504690067784e-07 -0.00020895162015222013" pbc="T T T"
Pt       1.40360727       0.81037244      19.95766877        3       0.00010552       0.00031448      -0.02405331
Pt       4.21082123       0.81037256      19.95766888        3      -0.00080343      -0.00176698      -0.02384747
Pt       7.01803445       0.81037243      19.95766851        3      -0.00148768       0.00043635      -0.02416726
Pt       2.80721413       3.24149135      19.95766844        3      -0.00216594       0.00089500      -0.02422504
Pt       5.61442751       3.24149134      19.95766853        3       0.00070286       0.00108400      -0.02404811
Pt       8.42164211       3.24149148      19.95766852        3      -0.00056272       0.00042627      -0.02416047
Pt       4.21082074       5.67261030      19.95766878        3      -0.00062907      -0.00105009      -0.02392852
Pt       7.01803477       5.67261047      19.95766871        3      -0.00049299      -0.00028988      -0.02403681
Pt       9.82524854       5.67261039      19.95766860        3      -0.00083052      -0.00038129      -0.02408776
Pt       0.00000046       1.62074540      22.29208304        2       0.00189205       0.00327621       0.02022858
Pt       2.80721419       1.62074531      22.29208311        2      -0.00117979      -0.00197731       0.01844204
Pt       5.61442748       1.62074566      22.29208290        2       0.00504572      -0.00130598       0.01932256
Pt       1.40360675       4.05186459      22.29208313        2       0.00476048      -0.00223756       0.02237678
Pt       4.21082083       4.05186449      22.29208278        2       0.00093756       0.00350876       0.01747435
Pt       7.01803481       4.05186460      22.29208288        2      -0.00212849      -0.00204889       0.02294147
Pt       2.80721463       6.48298242      22.29208276        2      -0.00212581      -0.00036396       0.01978146
Pt       5.61442775       6.48298327      22.29208278        2       0.00386886      -0.00193436       0.01939657
Pt       8.42164096       6.48298261      22.29208273        2       0.00235111       0.00412238       0.02262600
Pt       0.00226803       0.00014727      24.62824751        1      -0.00103612       0.00069756       0.01732025
Pt       2.80927534       0.00101765      24.63212463        1       0.00161877      -0.00747896      -0.00128700
Pt       5.61681810       0.00068487      24.63237552        1      -0.00328792      -0.00644404      -0.00213034
Pt       1.40603583       2.43072534      24.63210326        1      -0.00470737       0.00641558      -0.00153288
Pt       4.21300267       2.43131626      24.62781319        1      -0.00030027      -0.00112307       0.01834475
Pt       7.01989021       2.43065179      24.63234278        1       0.00322922       0.00577757      -0.00196946
Pt       2.81048590       4.86238341      24.63200254        1      -0.00995061       0.00056469      -0.00059427
Pt       5.61588694       4.86220972      24.63204564        1       0.00774764       0.00138467      -0.00088660
Pt       8.42382565       4.86249272      24.62951761        1      -0.00055445      -0.00053726       0.00489549
C        8.42263697       4.86059475      29.82640335        0       0.00002228       0.00008762       0.03193206
H        8.65903861       5.72816573      30.46229744        0      -0.00427305      -0.01272062      -0.01613091
H        8.18940803       3.99293212      30.46334472        0       0.00425784       0.01273188      -0.01622380
H        9.28680674       4.62699957      29.18727001        0       0.02562364      -0.00809137       0.00101084
H        7.55527746       5.09430285      29.19164243        0      -0.02564719       0.00802876       0.00121644
