32
Lattice="8.421641763931781 0.0 0.0 4.2108208819658905 7.293355709136913 0.0 0.0 0.0 44.584161137365626" Properties=species:S:1:pos:R:3:tags:I:1:forces:R:3 charge=0 spin=0 energy=-161.48177203649016 free_energy=-161.48177203649016 stress="0.01223246194422245 2.019639168793219e-06 7.572958111268235e-06 2.019639168793219e-06 0.01233424711972475 -1.1896714568138123e-05 7.572958111268235e-06 -1.1896714568138123e-05 -0.0001937990600708872" pbc="T T T"
Pt       1.40360727       0.81037244      19.95766877        3      -0.00151061       0.00941937      -0.02401272
Pt       4.21082123       0.81037256      19.95766888        3      -0.00204255       0.00920058      -0.02369270
Pt       7.01803445       0.81037243      19.95766851        3      -0.00208684       0.01205640      -0.02481289
Pt       2.80721413       3.24149135      19.95766844        3      -0.00162370       0.01182094      -0.02211557
Pt       5.61442751       3.24149134      19.95766853        3      -0.00002837       0.01201756      -0.02514459
Pt       8.42164211       3.24149148      19.95766852        3      -0.00368939       0.01234104      -0.02443244
Pt       4.21082074       5.67261030      19.95766878        3      -0.00056869       0.00999113      -0.02440057
Pt       7.01803477       5.67261047      19.95766871        3      -0.00195002       0.00978661      -0.02414043
Pt       9.82524854       5.67261039      19.95766860        3      -0.00322755       0.01060126      -0.02457979
Pt       0.00000046       1.62074540      22.29208304        2       0.00587473      -0.02474705       0.02328084
Pt       2.80721419       1.62074531      22.29208311        2       0.00401723      -0.02050027       0.02299145
Pt       5.61442748       1.62074566      22.29208290        2       0.00606891      -0.02222314       0.02202853
Pt       1.40360675       4.05186459      22.29208313        2       0.01046195      -0.02484613       0.02184660
Pt       4.21082083       4.05186449      22.29208278        2      -0.00299339      -0.02323210       0.02262416
Pt       7.01803481       4.05186460      22.29208288        2       0.00468991      -0.02581376       0.02186649
Pt       2.80721463       6.48298242      22.29208276        2       0.00532619      -0.02485838       0.02536246
Pt       5.61442775       6.48298327      22.29208278        2       0.00356187      -0.02007877       0.01993474
Pt       8.42164096       6.48298261      22.29208273        2       0.00497046      -0.01840171       0.01853613
Pt       0.00752640      -0.03582040      24.63164191        1      -0.00646895       0.01376838       0.00654583
Pt       2.81382685      -0.03422961      24.63204819        1      -0.00113690       0.00622288      -0.00086694
Pt       5.62147519      -0.03543155      24.63114345        1      -0.00259916       0.01328675       0.00864438
Pt       1.40978229       2.39597604      24.63189271        1       0.00050862       0.01348266       0.00423773
Pt       4.21803281       2.39572698      24.63145311        1      -0.00283469       0.01330197       0.00565249
Pt       7.02528918       2.39538139      24.63249439        1      -0.00450380       0.01648008      -0.00273880
Pt       2.81405684       4.82652607      24.63461173        1      -0.00118142       0.01299987      -0.00441150
Pt       5.61980777       4.82720795      24.63051216        1       0.00765204       0.00919931      -0.00084629
Pt       8.43043865       4.82757881      24.63028067        1      -0.01467817       0.00893989       0.00054998
C        7.02773405       4.87076357      29.33733207        0      -0.00003549       0.00045131       0.02138760
H        7.54360530       4.13619116      29.97579194        0      -0.01333169       0.01298005      -0.01744776
H        6.50670138       5.60556916      29.97128403        0       0.01282707      -0.01300184      -0.01623790
H        6.29669249       4.35337992      28.69793706        0      -0.00574657      -0.00654346       0.00745549
H        7.76397105       5.38808577      28.70387163        0       0.00627901       0.00589874       0.00693619
