32
Lattice="8.421641763931781 0.0 0.0 4.2108208819658905 7.293355709136913 0.0 0.0 0.0 44.584161137365626" Properties=species:S:1:pos:R:3:tags:I:1:forces:R:3 charge=0 spin=0 energy=-161.48315486424895 free_energy=-161.48315486424895 stress="0.012244002893567085 -4.063496817252599e-05 -7.981524504430126e-06 -4.063496817252599e-05 0.012244521640241146 1.3462088190863142e-06 -7.981524504430126e-06 1.3462088190863142e-06 -0.00023461114324163646" pbc="T T T"
Pt       1.40360727       0.81037244      19.95766877        3       0.00704441       0.00013464      -0.02412701
Pt       4.21082123       0.81037256      19.95766888        3       0.00754457      -0.00056811      -0.02338793
Pt       7.01803445       0.81037243      19.95766851        3       0.00704885       0.00121192      -0.02400441
Pt       2.80721413       3.24149135      19.95766844        3       0.00678096       0.00034023      -0.02356999
Pt       5.61442751       3.24149134      19.95766853        3       0.00849824       0.00060021      -0.02394139
Pt       8.42164211       3.24149148      19.95766852        3       0.00615331       0.00062686      -0.02355651
Pt       4.21082074       5.67261030      19.95766878        3       0.00822008      -0.00077814      -0.02440031
Pt       7.01803477       5.67261047      19.95766871        3       0.00727637      -0.00147026      -0.02392930
Pt       9.82524854       5.67261039      19.95766860        3       0.00593923      -0.00047097      -0.02400019
Pt       0.00000046       1.62074540      22.29208304        2      -0.01536077      -0.00251679       0.01592768
Pt       2.80721419       1.62074531      22.29208311        2      -0.01560161      -0.00091913       0.01770819
Pt       5.61442748       1.62074566      22.29208290        2      -0.01489047       0.00057785       0.01625936
Pt       1.40360675       4.05186459      22.29208313        2      -0.01390233      -0.00082862       0.01212628
Pt       4.21082083       4.05186449      22.29208278        2      -0.01564880       0.00053645       0.01925843
Pt       7.01803481       4.05186460      22.29208288        2      -0.01841095      -0.00081864       0.01772510
Pt       2.80721463       6.48298242      22.29208276        2      -0.01490788      -0.00027747       0.01561820
Pt       5.61442775       6.48298327      22.29208278        2      -0.01628002      -0.00210427       0.01873445
Pt       8.42164096       6.48298261      22.29208273        2      -0.01472224       0.00297525       0.01328227
Pt      -0.02323914      -0.00035214      24.62952515        1       0.00861650      -0.00019119       0.01261807
Pt       2.78381805      -0.00084230      24.63009177        1       0.00716437       0.00407122       0.00648573
Pt       5.59089878      -0.00028360      24.62997928        1       0.00986067       0.00101384       0.01425087
Pt       1.37969024       2.43107943      24.62991741        1       0.01290719      -0.00266566       0.00853420
Pt       4.18759629       2.43068854      24.63014534        1       0.00829037       0.00139256       0.00803590
Pt       6.99474710       2.43041855      24.63135261        1       0.00752248       0.00227325       0.00008509
Pt       2.78398665       4.86146671      24.62977201        1       0.01150730       0.00133598       0.01350859
Pt       5.59154015       4.86183416      24.63250530        1       0.00597945       0.00007949      -0.00472488
Pt       8.39912792       4.86216584      24.62967835        1       0.00292996      -0.00150608       0.00621362
C        7.12485395       4.05376121      29.51136692        0       0.00403910       0.00361696       0.00721660
H        7.71287143       3.39145704      30.16555536        0      -0.00572688      -0.00189876      -0.01505606
H        6.43746097       4.65638502      30.12505877        0      -0.00216371      -0.00513262      -0.01358869
H        6.54837371       3.44897476      28.79512532        0      -0.01146563      -0.01365065       0.01807120
H        7.80295360       4.72049304      28.95808890        0       0.01575767       0.01501073       0.00662676
