32
Lattice="8.421641763931781 0.0 0.0 4.2108208819658905 7.293355709136913 0.0 0.0 0.0 44.584161137365626" Properties=species:S:1:pos:R:3:tags:I:1:forces:R:3 charge=0 spin=0 energy=-161.48355063909025 free_energy=-161.48355063909025 stress="0.012305471114814281 6.204888450156432e-06 6.914626283105463e-06 6.204888450156432e-06 0.01233632117509842 -4.232452738506254e-06 6.914626283105463e-06 -4.232452738506254e-06 -0.0001377008593408391" pbc="T T T"
Pt       1.40360727       0.81037244      19.95766877        3      -0.00202694       0.00460346      -0.02343569
Pt       4.21082123       0.81037256      19.95766888        3      -0.00169205       0.00590731      -0.02452290
Pt       7.01803445       0.81037243      19.95766851        3      -0.00332823       0.00622510      -0.02433939
Pt       2.80721413       3.24149135      19.95766844        3      -0.00070613       0.00531359      -0.02453203
Pt       5.61442751       3.24149134      19.95766853        3      -0.00243932       0.00539411      -0.02359525
Pt       8.42164211       3.24149148      19.95766852        3      -0.00388907       0.00566693      -0.02446015
Pt       4.21082074       5.67261030      19.95766878        3      -0.00176345       0.00386577      -0.02509043
Pt       7.01803477       5.67261047      19.95766871        3      -0.00304878       0.00421525      -0.02492349
Pt       9.82524854       5.67261039      19.95766860        3      -0.00254717       0.00537327      -0.02480415
Pt       0.00000046       1.62074540      22.29208304        2       0.00811354      -0.01276865       0.03304686
Pt       2.80721419       1.62074531      22.29208311        2       0.00153861      -0.01141678       0.03191101
Pt       5.61442748       1.62074566      22.29208290        2       0.00647274      -0.01147370       0.02771444
Pt       1.40360675       4.05186459      22.29208313        2       0.00489478      -0.01292344       0.02983418
Pt       4.21082083       4.05186449      22.29208278        2       0.00315769      -0.01151968       0.02605377
Pt       7.01803481       4.05186460      22.29208288        2       0.00687770      -0.01173236       0.02670358
Pt       2.80721463       6.48298242      22.29208276        2       0.00721506      -0.01134499       0.02997523
Pt       5.61442775       6.48298327      22.29208278        2       0.00532609      -0.00570690       0.03155803
Pt       8.42164096       6.48298261      22.29208273        2       0.00530436      -0.00971450       0.02872642
Pt       0.00783707      -0.01639598      24.63396958        1      -0.00070646       0.00624036      -0.00604950
Pt       2.81591399      -0.01659647      24.63367582        1      -0.00634439       0.00550582      -0.00466362
Pt       5.62283049      -0.01612147      24.63219336        1      -0.00348745       0.00292566       0.00044711
Pt       1.41181023       2.41455606      24.63379112        1      -0.00161946       0.00406303      -0.00782254
Pt       4.21858352       2.41421228      24.63306395        1       0.00007835       0.00676165      -0.00743270
Pt       7.02697831       2.41420852      24.63371736        1      -0.00574869       0.00685973      -0.00984467
Pt       2.81610652       4.84501954      24.63237980        1      -0.00784502       0.00939666      -0.00313667
Pt       5.62234398       4.84641026      24.63206880        1      -0.00200657       0.00267212      -0.00525100
Pt       8.42932179       4.84527157      24.63195870        1       0.00121812       0.00829075      -0.00134378
C        5.58873828       3.29915622      29.55820971        0      -0.00431691      -0.00455846       0.03612049
H        4.72367745       3.53131294      30.20012964        0       0.03170253      -0.00839341      -0.01876425
H        6.46097156       3.06179711      30.18835319        0      -0.03016966       0.00846237      -0.01928228
H        5.81859579       4.16877858      28.92437805        0       0.00283427       0.00735921       0.00001467
H        5.35107487       2.43427694      28.92035039        0      -0.00104825      -0.00354941       0.00118892
