32
Lattice="8.421641763931781 0.0 0.0 4.2108208819658905 7.293355709136913 0.0 0.0 0.0 44.584161137365626" Properties=species:S:1:pos:R:3:tags:I:1:forces:R:3 charge=0 spin=0 energy=-161.48354396337004 free_energy=-161.48354396337004 stress="0.012358850799500942 -1.854581933002919e-05 -5.026639428251656e-06 -1.854581933002919e-05 0.012290977872908115 4.643281499738805e-06 -5.026639428251656e-06 4.643281499738805e-06 -0.00013172031322028488" pbc="T T T"
Pt       1.40360727       0.81037244      19.95766877        3       0.00219662      -0.00502890      -0.02401423
Pt       4.21082123       0.81037256      19.95766888        3       0.00330322      -0.00523506      -0.02384678
Pt       7.01803445       0.81037243      19.95766851        3       0.00257596      -0.00350298      -0.02442311
Pt       2.80721413       3.24149135      19.95766844        3       0.00278088      -0.00494841      -0.02420848
Pt       5.61442751       3.24149134      19.95766853        3       0.00418776      -0.00458347      -0.02480072
Pt       8.42164211       3.24149148      19.95766852        3       0.00112047      -0.00428194      -0.02454156
Pt       4.21082074       5.67261030      19.95766878        3       0.00401051      -0.00585365      -0.02482446
Pt       7.01803477       5.67261047      19.95766871        3       0.00285296      -0.00689211      -0.02494898
Pt       9.82524854       5.67261039      19.95766860        3       0.00106754      -0.00558714      -0.02443606
Pt       0.00000046       1.62074540      22.29208304        2      -0.00372273       0.00539097       0.02887445
Pt       2.80721419       1.62074531      22.29208311        2      -0.00670342       0.01110005       0.02969736
Pt       5.61442748       1.62074566      22.29208290        2      -0.00621726       0.00810105       0.02740249
Pt       1.40360675       4.05186459      22.29208313        2      -0.00309433       0.01261771       0.02974910
Pt       4.21082083       4.05186449      22.29208278        2      -0.00992048       0.01320947       0.03087155
Pt       7.01803481       4.05186460      22.29208288        2      -0.00628772       0.01272173       0.02982404
Pt       2.80721463       6.48298242      22.29208276        2      -0.00495359       0.01035775       0.03681110
Pt       5.61442775       6.48298327      22.29208278        2      -0.00839424       0.01086791       0.03024745
Pt       8.42164096       6.48298261      22.29208273        2      -0.00274752       0.01353115       0.02924289
Pt      -0.00874165       0.01606968      24.63436734        1      -0.00066024      -0.00623228      -0.00666599
Pt       2.79768109       0.01571388      24.63208138        1       0.00323719      -0.00285029      -0.00053246
Pt       5.60458060       0.01630478      24.63413766        1       0.00706174      -0.00677134      -0.00558041
Pt       1.39365199       2.44801355      24.63239082        1       0.00827132      -0.00895317      -0.00395387
Pt       4.20207873       2.44781930      24.63191191        1      -0.00102144      -0.00873162      -0.00219378
Pt       7.00900930       2.44643514      24.63221468        1       0.00190716      -0.00138642      -0.00589532
Pt       2.79788879       4.87834051      24.63414585        1       0.00238274      -0.00283083      -0.00825954
Pt       5.60435787       4.87883045      24.63384939        1       0.00648240      -0.00695828      -0.01074861
Pt       8.41291011       4.87894160      24.63323299        1      -0.00071842      -0.00796471      -0.00817190
C        7.04485235       3.99214478      29.55720770        0       0.00441324       0.00461690       0.03684931
H        7.90876473       3.75958934      30.20057709        0      -0.03216129       0.00850932      -0.01958706
H        6.17151128       4.22910664      30.18600118        0       0.03054374      -0.00851567      -0.01985318
H        6.81612284       3.12291373      28.92240940        0      -0.00274734      -0.00707677       0.00033640
H        7.28364365       4.85743941      28.92030340        0       0.00095467       0.00316112       0.00158024
