32
Lattice="8.421641763931781 0.0 0.0 4.2108208819658905 7.293355709136913 0.0 0.0 0.0 44.584161137365626" Properties=species:S:1:pos:R:3:tags:I:1:forces:R:3 charge=0 spin=0 energy=-161.48199996465178 free_energy=-161.48199996465178 stress="0.012238094583153725 6.565315402440319e-07 4.569992597680539e-06 6.565315402440319e-07 0.012309716083109379 -1.025005076371599e-05 4.569992597680539e-06 -1.025005076371599e-05 -0.00019478773174341768" pbc="T T T"
Pt       1.40360727       0.81037244      19.95766877        3      -0.00025971       0.00783297      -0.02408882
Pt       4.21082123       0.81037256      19.95766888        3      -0.00089114       0.00783975      -0.02392474
Pt       7.01803445       0.81037243      19.95766851        3      -0.00090677       0.01026939      -0.02424790
Pt       2.80721413       3.24149135      19.95766844        3      -0.00048133       0.00974285      -0.02260655
Pt       5.61442751       3.24149134      19.95766853        3       0.00091703       0.01013263      -0.02461196
Pt       8.42164211       3.24149148      19.95766852        3      -0.00248293       0.01041821      -0.02398081
Pt       4.21082074       5.67261030      19.95766878        3       0.00066953       0.00839083      -0.02448916
Pt       7.01803477       5.67261047      19.95766871        3      -0.00074323       0.00833947      -0.02415835
Pt       9.82524854       5.67261039      19.95766860        3      -0.00225786       0.00888869      -0.02442775
Pt       0.00000046       1.62074540      22.29208304        2       0.00244016      -0.02098825       0.02174390
Pt       2.80721419       1.62074531      22.29208311        2       0.00145491      -0.01768871       0.02192682
Pt       5.61442748       1.62074566      22.29208290        2       0.00383466      -0.01857933       0.02075107
Pt       1.40360675       4.05186459      22.29208313        2       0.00662267      -0.02038763       0.02164100
Pt       4.21082083       4.05186449      22.29208278        2      -0.00434850      -0.01896835       0.02209015
Pt       7.01803481       4.05186460      22.29208288        2       0.00210278      -0.02161649       0.02297231
Pt       2.80721463       6.48298242      22.29208276        2       0.00252255      -0.02149740       0.02381719
Pt       5.61442775       6.48298327      22.29208278        2       0.00098025      -0.01730661       0.02017897
Pt       8.42164096       6.48298261      22.29208273        2       0.00211116      -0.01578993       0.01932465
Pt       0.00361323      -0.03002915      24.63131445        1      -0.00313891       0.01095590       0.00745117
Pt       2.81009552      -0.02864492      24.63195342        1      -0.00018966       0.00396866      -0.00149141
Pt       5.61755754      -0.02998777      24.63088172        1      -0.00154250       0.01160206       0.00887385
Pt       1.40607545       2.40148006      24.63126737        1       0.00065066       0.01211598       0.00601048
Pt       4.21426405       2.40142899      24.63085369        1      -0.00081241       0.01134297       0.00689260
Pt       7.02136626       2.40066087      24.63243365        1      -0.00246212       0.01678439      -0.00337283
Pt       2.81032795       4.83220031      24.63327088        1      -0.00019465       0.01107834      -0.00285864
Pt       5.61622130       4.83309072      24.63089572        1       0.00866185       0.00656220      -0.00094472
Pt       8.42638637       4.83304069      24.63073874        1      -0.01215665       0.00667536       0.00020825
C        7.02244932       4.86776614      29.46114093        0      -0.00018119       0.00011256       0.02317789
H        6.18783497       5.20328641      30.09662525        0       0.00975869      -0.00275279      -0.01686908
H        7.85490984       4.53218944      30.09944536        0      -0.01021912       0.00233878      -0.01770013
H        7.35859254       5.70058701      28.82550209        0       0.00257015       0.01085882       0.00621588
H        6.68840856       4.03513670      28.82409547        0      -0.00202834      -0.01067517       0.00649673
