32
Lattice="8.421641763931781 0.0 0.0 4.2108208819658905 7.293355709136913 0.0 0.0 0.0 44.584161137365626" Properties=species:S:1:pos:R:3:tags:I:1:forces:R:3 charge=0 spin=0 energy=-161.483546824393 free_energy=-161.483546824393 stress="0.012358803302049637 -1.855309346865397e-05 -5.03110959471087e-06 -1.855309346865397e-05 0.012290911749005318 4.64987078885315e-06 -5.03110959471087e-06 4.64987078885315e-06 -0.0001317708083661273" pbc="T T T"
Pt       1.40360727       0.81037244      19.95766877        3       0.00219643      -0.00502888      -0.02401372
Pt       4.21082123       0.81037256      19.95766888        3       0.00330296      -0.00523494      -0.02384680
Pt       7.01803445       0.81037243      19.95766851        3       0.00257604      -0.00350350      -0.02442309
Pt       2.80721413       3.24149135      19.95766844        3       0.00278102      -0.00494857      -0.02420943
Pt       5.61442751       3.24149134      19.95766853        3       0.00418727      -0.00458385      -0.02480070
Pt       8.42164211       3.24149148      19.95766852        3       0.00112064      -0.00428231      -0.02454194
Pt       4.21082074       5.67261030      19.95766878        3       0.00401019      -0.00585365      -0.02482449
Pt       7.01803477       5.67261047      19.95766871        3       0.00285338      -0.00689208      -0.02494830
Pt       9.82524854       5.67261039      19.95766860        3       0.00106767      -0.00558750      -0.02443598
Pt       0.00000046       1.62074540      22.29208304        2      -0.00372357       0.00539224       0.02886684
Pt       2.80721419       1.62074531      22.29208311        2      -0.00670393       0.01110027       0.02968671
Pt       5.61442748       1.62074566      22.29208290        2      -0.00621639       0.00810299       0.02739177
Pt       1.40360675       4.05186459      22.29208313        2      -0.00309698       0.01261943       0.02974295
Pt       4.21082083       4.05186449      22.29208278        2      -0.00991957       0.01321051       0.03086348
Pt       7.01803481       4.05186460      22.29208288        2      -0.00628616       0.01272249       0.02981583
Pt       2.80721463       6.48298242      22.29208276        2      -0.00495217       0.01035739       0.03680113
Pt       5.61442775       6.48298327      22.29208278        2      -0.00839477       0.01086817       0.03023812
Pt       8.42164096       6.48298261      22.29208273        2      -0.00274836       0.01352809       0.02923290
Pt      -0.00874185       0.01607036      24.63436434        1      -0.00066127      -0.00623338      -0.00665859
Pt       2.79768117       0.01571414      24.63208051        1       0.00323693      -0.00285303      -0.00051906
Pt       5.60458009       0.01630518      24.63413491        1       0.00706509      -0.00677211      -0.00556489
Pt       1.39365224       2.44801383      24.63238963        1       0.00826178      -0.00894881      -0.00393943
Pt       4.20207848       2.44781947      24.63190992        1      -0.00101505      -0.00872776      -0.00217991
Pt       7.00900882       2.44643615      24.63221443        1       0.00191062      -0.00138940      -0.00588605
Pt       2.79788875       4.87834057      24.63414312        1       0.00238323      -0.00282830      -0.00825229
Pt       5.60435860       4.87883080      24.63384739        1       0.00647580      -0.00695941      -0.01073846
Pt       8.41290911       4.87894196      24.63323204        1      -0.00071128      -0.00796773      -0.00816951
C        7.04485429       3.99214225      29.55730307        0       0.00436279       0.00462266       0.03685172
H        6.17151427       4.22910443      30.18609717        0       0.03054505      -0.00851876      -0.01987028
H        7.90876470       3.75958730      30.20067222        0      -0.03211554       0.00850083      -0.01957062
H        7.28364421       4.85743431      28.92039759        0       0.00096568       0.00320186       0.00157221
H        6.81612434       3.12291269      28.92250473        0      -0.00275789      -0.00711285       0.00032985
