32
Lattice="8.421641763931781 0.0 0.0 4.2108208819658905 7.293355709136913 0.0 0.0 0.0 44.584161137365626" Properties=species:S:1:pos:R:3:tags:I:1:forces:R:3 charge=0 spin=0 energy=-161.48381289952727 free_energy=-161.48381289952727 stress="0.012283731251955032 2.299192601640243e-05 5.654548203892773e-06 2.299192601640243e-05 0.012292511761188507 -6.998102435318287e-07 5.654548203892773e-06 -6.998102435318287e-07 -0.00019120960496366024" pbc="T T T"
Pt       1.40360727       0.81037244      19.95766877        3      -0.00520369       0.00133923      -0.02422544
Pt       4.21082123       0.81037256      19.95766888        3      -0.00605955      -0.00057908      -0.02455286
Pt       7.01803445       0.81037243      19.95766851        3      -0.00656367       0.00141762      -0.02437686
Pt       2.80721413       3.24149135      19.95766844        3      -0.00711341       0.00106477      -0.02498335
Pt       5.61442751       3.24149134      19.95766853        3      -0.00442886       0.00157165      -0.02461196
Pt       8.42164211       3.24149148      19.95766852        3      -0.00551856       0.00133896      -0.02435203
Pt       4.21082074       5.67261030      19.95766878        3      -0.00582391      -0.00023206      -0.02398467
Pt       7.01803477       5.67261047      19.95766871        3      -0.00561490       0.00072030      -0.02425405
Pt       9.82524854       5.67261039      19.95766860        3      -0.00659862       0.00034572      -0.02409777
Pt       0.00000046       1.62074540      22.29208304        2       0.01361517      -0.00162410       0.02560370
Pt       2.80721419       1.62074531      22.29208311        2       0.01074522      -0.00270801       0.02913911
Pt       5.61442748       1.62074566      22.29208290        2       0.01503377      -0.00276591       0.02501089
Pt       1.40360675       4.05186459      22.29208313        2       0.01567269      -0.00317670       0.02360198
Pt       4.21082083       4.05186449      22.29208278        2       0.01143096       0.00270884       0.02967191
Pt       7.01803481       4.05186460      22.29208288        2       0.00789119      -0.00253637       0.02716971
Pt       2.80721463       6.48298242      22.29208276        2       0.01246158      -0.00200258       0.02710624
Pt       5.61442775       6.48298327      22.29208278        2       0.01226431      -0.00406887       0.02516145
Pt       8.42164096       6.48298261      22.29208273        2       0.01404250       0.00186404       0.02366359
Pt       0.02002928      -0.00210239      24.63076809        1      -0.00989856       0.00171376       0.00525650
Pt       2.82672282      -0.00272880      24.63246968        1      -0.00879156       0.00997720      -0.00363608
Pt       5.63406770      -0.00249119      24.63299912        1      -0.00885789       0.00452744      -0.00408966
Pt       1.42207762       2.43066584      24.63285413        1      -0.00060073      -0.00840763      -0.00536640
Pt       4.23118632       2.42979075      24.62967985        1      -0.01449830      -0.00190126       0.00645789
Pt       7.03748318       2.42852697      24.63285540        1      -0.00881910       0.00350203      -0.00360044
Pt       2.82458905       4.86058219      24.63355373        1       0.00482875      -0.00063934      -0.00684599
Pt       5.63351095       4.86057563      24.63401426        1      -0.00897875      -0.00116331      -0.00983772
Pt       8.44004625       4.86052237      24.63126665        1      -0.00503250      -0.00030010       0.00125029
C        8.41623176       4.86157313      29.81930345        0       0.00031065      -0.00005789      -0.00117493
H        7.76326058       4.24374004      30.45345675        0      -0.01172974      -0.01163182       0.01348495
H        9.06627314       5.47987089      30.45601020        0       0.01155052       0.01182743       0.01350921
H        7.79844767       5.51330280      29.18336596        0       0.00161223      -0.00136790      -0.01083293
H        9.03696932       4.20933119      29.18680251        0      -0.00132746       0.00124404      -0.01126424
