32
Lattice="8.421641763931781 0.0 0.0 4.2108208819658905 7.293355709136913 0.0 0.0 0.0 44.584161137365626" Properties=species:S:1:pos:R:3:tags:I:1:forces:R:3 charge=0 spin=0 energy=-161.48331126683684 free_energy=-161.48331126683684 stress="0.012308651581406593 6.911422133271117e-06 4.259106560766668e-07 6.911422133271117e-06 0.012308616191148758 -3.368587158547598e-06 4.259106560766668e-07 -3.368587158547598e-06 -0.00014119470142759383" pbc="T T T"
Pt       1.40360727       0.81037244      19.95766877        3       0.00003181       0.00092649      -0.02408942
Pt       4.21082123       0.81037256      19.95766888        3      -0.00015394       0.00085242      -0.02406015
Pt       7.01803445       0.81037243      19.95766851        3       0.00031658       0.00320537      -0.02441673
Pt       2.80721413       3.24149135      19.95766844        3      -0.00003241       0.00251381      -0.02258051
Pt       5.61442751       3.24149134      19.95766853        3       0.00196367       0.00315915      -0.02438674
Pt       8.42164211       3.24149148      19.95766852        3      -0.00170689       0.00331604      -0.02464622
Pt       4.21082074       5.67261030      19.95766878        3       0.00186923       0.00167582      -0.02442101
Pt       7.01803477       5.67261047      19.95766871        3      -0.00000854       0.00104112      -0.02427761
Pt       9.82524854       5.67261039      19.95766860        3      -0.00156317       0.00180832      -0.02458924
Pt       0.00000046       1.62074540      22.29208304        2       0.00182563      -0.00748614       0.02746596
Pt       2.80721419       1.62074531      22.29208311        2       0.00087276      -0.00102276       0.02956830
Pt       5.61442748       1.62074566      22.29208290        2      -0.00090627      -0.00558792       0.02725153
Pt       1.40360675       4.05186459      22.29208313        2       0.00589970      -0.00488802       0.02866561
Pt       4.21082083       4.05186449      22.29208278        2      -0.00765955      -0.00493255       0.02911352
Pt       7.01803481       4.05186460      22.29208288        2       0.00015665      -0.00582563       0.02459409
Pt       2.80721463       6.48298242      22.29208276        2      -0.00120068      -0.00682975       0.03405315
Pt       5.61442775       6.48298327      22.29208278        2      -0.00264372      -0.00262232       0.02388224
Pt       8.42164096       6.48298261      22.29208273        2       0.00268638      -0.00046104       0.02493753
Pt       0.00026071      -0.00705579      24.63283393        1      -0.00250896       0.00360709      -0.00163604
Pt       2.80698148      -0.00655979      24.63176475        1      -0.00003183       0.00239498      -0.00192885
Pt       5.61379798      -0.00671066      24.63295264        1       0.00331481       0.00222064      -0.00235862
Pt       1.40316882       2.42478474      24.63264046        1       0.00243140       0.00123306      -0.00238814
Pt       4.21143144       2.42453734      24.63282397        1      -0.00335363       0.00110913      -0.00308585
Pt       7.01816487       2.42410120      24.63197151        1      -0.00035632       0.00386906      -0.00223214
Pt       2.80719175       4.85531078      24.63495157        1       0.00012599       0.00360123      -0.01080877
Pt       5.61295420       4.85556022      24.63149645        1       0.00709112       0.00175363      -0.00362849
Pt       8.42304046       4.85578361      24.63140976        1      -0.00650958       0.00128916      -0.00348318
C        7.01662757       4.86101450      29.47223132        0       0.00000405      -0.00011974       0.02802899
H        6.16422920       4.57522965      30.10956174        0       0.02958760       0.00987770      -0.02427230
H        7.87387181       5.13560865      30.10797745        0      -0.02987443      -0.00909455      -0.02414147
H        6.73383886       5.71981615      28.84447639        0       0.00122283      -0.00179543       0.01024209
H        7.29459142       4.01333944      28.82747655        0      -0.00089017       0.00121154       0.00962855
