32
Lattice="8.421641763931781 0.0 0.0 4.2108208819658905 7.293355709136913 0.0 0.0 0.0 44.584161137365626" Properties=species:S:1:pos:R:3:tags:I:1:forces:R:3 charge=0 spin=0 energy=-161.4820877026889 free_energy=-161.4820877026889 stress="0.012235199101269245 4.405496554227284e-07 6.7046366893919185e-06 4.405496554227284e-07 0.01237579807639122 -1.3243211469671223e-05 6.7046366893919185e-06 -1.3243211469671223e-05 -0.00017704650235828012" pbc="T T T"
Pt       1.40360727       0.81037244      19.95766877        3      -0.00107021       0.01104224      -0.02406149
Pt       4.21082123       0.81037256      19.95766888        3      -0.00117798       0.01075559      -0.02392434
Pt       7.01803445       0.81037243      19.95766851        3      -0.00117108       0.01393956      -0.02558023
Pt       2.80721413       3.24149135      19.95766844        3      -0.00099808       0.01394625      -0.02170628
Pt       5.61442751       3.24149134      19.95766853        3       0.00119703       0.01395970      -0.02555631
Pt       8.42164211       3.24149148      19.95766852        3      -0.00311362       0.01428449      -0.02516761
Pt       4.21082074       5.67261030      19.95766878        3       0.00024732       0.01203151      -0.02455279
Pt       7.01803477       5.67261047      19.95766871        3      -0.00117727       0.01153781      -0.02448833
Pt       9.82524854       5.67261039      19.95766860        3      -0.00233240       0.01252735      -0.02490203
Pt       0.00000046       1.62074540      22.29208304        2       0.00537795      -0.02868227       0.02831028
Pt       2.80721419       1.62074531      22.29208311        2       0.00262523      -0.02298821       0.02840274
Pt       5.61442748       1.62074566      22.29208290        2       0.00283781      -0.02643108       0.02731246
Pt       1.40360675       4.05186459      22.29208313        2       0.01191473      -0.02960121       0.02474073
Pt       4.21082083       4.05186449      22.29208278        2      -0.00796334      -0.02827678       0.02480037
Pt       7.01803481       4.05186460      22.29208288        2       0.00319408      -0.03092252       0.01957380
Pt       2.80721463       6.48298242      22.29208276        2       0.00325547      -0.02936240       0.03091574
Pt       5.61442775       6.48298327      22.29208278        2       0.00136177      -0.02209926       0.02088803
Pt       8.42164096       6.48298261      22.29208273        2       0.00420693      -0.02013977       0.02006950
Pt       0.00494756      -0.04229689      24.63276474        1      -0.00512221       0.01833603       0.00202262
Pt       2.81136360      -0.04065744      24.63248558        1       0.00016241       0.01039921      -0.00290750
Pt       5.61910638      -0.04190548      24.63226752        1      -0.00101770       0.01699506       0.00417552
Pt       1.40757271       2.38987403      24.63358344        1       0.00119161       0.01177441      -0.00265775
Pt       4.21573080       2.38966435      24.63304715        1      -0.00318369       0.01175383      -0.00048312
Pt       7.02299983       2.38945752      24.63293569        1      -0.00340809       0.01384999      -0.00444602
Pt       2.81177055       4.82005732      24.63691147        1      -0.00110904       0.01553170      -0.01322725
Pt       5.61698262       4.82040372      24.62952355        1       0.01020399       0.01399927       0.00499021
Pt       8.42847689       4.82125242      24.62936406        1      -0.01490033       0.01190741       0.00561065
C        7.02378580       4.87091375      29.35496985        0      -0.00007786       0.00063000       0.02313780
H        7.20556861       3.98969462      29.99097379        0      -0.00933038       0.03313415      -0.01617128
H        6.83755084       5.75234384      29.98934283        0       0.00906617      -0.03251130      -0.01441909
H        6.14718902       4.68748568      28.71550541        0      -0.00721821      -0.00368694       0.00484500
H        7.90487256       5.05432443      28.72170692        0       0.00752902       0.00236609       0.00445594
