32
Lattice="8.421641763931781 0.0 0.0 4.2108208819658905 7.293355709136913 0.0 0.0 0.0 44.584161137365626" Properties=species:S:1:pos:R:3:tags:I:1:forces:R:3 charge=0 spin=0 energy=-161.4836231183383 free_energy=-161.4836231183383 stress="0.01228128932416439 -1.9337410776643082e-05 -7.861854101065546e-06 -1.9337410776643082e-05 0.012321975082159042 -6.59695569993346e-06 -7.861854101065546e-06 -6.59695569993346e-06 -0.0001627780293347314" pbc="T T T"
Pt       1.40360727       0.81037244      19.95766877        3       0.00410231       0.00378199      -0.02296185
Pt       4.21082123       0.81037256      19.95766888        3       0.00554643       0.00521892      -0.02427406
Pt       7.01803445       0.81037243      19.95766851        3       0.00361299       0.00541610      -0.02441482
Pt       2.80721413       3.24149135      19.95766844        3       0.00609168       0.00471844      -0.02429268
Pt       5.61442751       3.24149134      19.95766853        3       0.00458970       0.00443164      -0.02388651
Pt       8.42164211       3.24149148      19.95766852        3       0.00254393       0.00469260      -0.02469523
Pt       4.21082074       5.67261030      19.95766878        3       0.00480986       0.00315146      -0.02479800
Pt       7.01803477       5.67261047      19.95766871        3       0.00360116       0.00282935      -0.02492192
Pt       9.82524854       5.67261039      19.95766860        3       0.00442108       0.00442311      -0.02479527
Pt       0.00000046       1.62074540      22.29208304        2      -0.00443155      -0.01218559       0.02983189
Pt       2.80721419       1.62074531      22.29208311        2      -0.01416053      -0.01081348       0.03094320
Pt       5.61442748       1.62074566      22.29208290        2      -0.00981613      -0.01139678       0.02366911
Pt       1.40360675       4.05186459      22.29208313        2      -0.01021287      -0.01128116       0.02937666
Pt       4.21082083       4.05186449      22.29208278        2      -0.01284625      -0.00961827       0.02313401
Pt       7.01803481       4.05186460      22.29208288        2      -0.00685509      -0.00794250       0.02275644
Pt       2.80721463       6.48298242      22.29208276        2      -0.00803760      -0.00981415       0.02827930
Pt       5.61442775       6.48298327      22.29208278        2      -0.00828927      -0.00309051       0.02963343
Pt       8.42164096       6.48298261      22.29208273        2      -0.01024220      -0.00796327       0.02880500
Pt      -0.01407170      -0.01448749      24.63378198        1       0.00794930       0.00618934      -0.00452755
Pt       2.79394278      -0.01447946      24.63387851        1       0.00224415       0.00588245      -0.00628457
Pt       5.60076634      -0.01407076      24.63207031        1       0.00423795       0.00232592       0.00081493
Pt       1.38999146       2.41688176      24.63375810        1       0.00418560       0.00221964      -0.00745952
Pt       4.19651452       2.41639535      24.63236497        1       0.00690165       0.00536784      -0.00411822
Pt       7.00516426       2.41655832      24.63157290        1       0.00227446       0.00557023      -0.00118867
Pt       2.79389237       4.84748635      24.63221255        1       0.00123794       0.00790180      -0.00158666
Pt       5.60057563       4.84850445      24.63115652        1       0.00509114       0.00301696      -0.00128375
Pt       8.40732745       4.84759217      24.63224631        1       0.00984764       0.00733973      -0.00197603
C        5.65634603       3.29478623      29.55430970        0       0.00091899      -0.00080840       0.00245467
H        6.51230875       3.50989743      30.21233169        0      -0.00357180      -0.00021256      -0.00109573
H        4.77681568       3.04328832      30.16677598        0       0.00311276       0.00063279      -0.00205961
H        5.90252743       2.44594742      28.89855102        0       0.00205111      -0.00511543      -0.00031481
H        5.43409850       4.17976716      28.93912869        0      -0.00090869       0.00513170       0.00123673
