32
Lattice="8.421641763931781 0.0 0.0 4.2108208819658905 7.293355709136913 0.0 0.0 0.0 44.584161137365626" Properties=species:S:1:pos:R:3:tags:I:1:forces:R:3 charge=0 spin=0 energy=-161.48443850987883 free_energy=-161.48443850987883 stress="0.012286591343581676 -5.5693849390081596e-06 -4.1835133401946223e-07 -5.5693849390081596e-06 0.012270311824977398 4.6420463917229426e-08 -4.1835133401946223e-07 4.6420463917229426e-08 -0.00019166969286743551" pbc="T T T"
Pt       1.40360727       0.81037244      19.95766877        3       0.00099640       0.00043469      -0.02421306
Pt       4.21082123       0.81037256      19.95766888        3       0.00045395      -0.00171916      -0.02443645
Pt       7.01803445       0.81037243      19.95766851        3      -0.00038807       0.00040038      -0.02400678
Pt       2.80721413       3.24149135      19.95766844        3      -0.00121963       0.00072652      -0.02402875
Pt       5.61442751       3.24149134      19.95766853        3       0.00182662       0.00060458      -0.02406204
Pt       8.42164211       3.24149148      19.95766852        3       0.00015486       0.00041955      -0.02422911
Pt       4.21082074       5.67261030      19.95766878        3       0.00018979      -0.00073002      -0.02428757
Pt       7.01803477       5.67261047      19.95766871        3       0.00084108      -0.00029931      -0.02432871
Pt       9.82524854       5.67261039      19.95766860        3      -0.00038043      -0.00015216      -0.02422739
Pt       0.00000046       1.62074540      22.29208304        2       0.00071972       0.00129897       0.02410250
Pt       2.80721419       1.62074531      22.29208311        2      -0.00264724      -0.00190061       0.02411876
Pt       5.61442748       1.62074566      22.29208290        2       0.00156644      -0.00059195       0.02260117
Pt       1.40360675       4.05186459      22.29208313        2       0.00284828      -0.00258411       0.02447185
Pt       4.21082083       4.05186449      22.29208278        2      -0.00130652       0.00247527       0.02373139
Pt       7.01803481       4.05186460      22.29208288        2      -0.00449506      -0.00131042       0.02379360
Pt       2.80721463       6.48298242      22.29208276        2      -0.00171596      -0.00019599       0.02417127
Pt       5.61442775       6.48298327      22.29208278        2       0.00021489      -0.00124132       0.02481493
Pt       8.42164096       6.48298261      22.29208273        2      -0.00065571       0.00455108       0.02418214
Pt      -0.00097896       0.00008099      24.63014728        1       0.00086462      -0.00008735       0.00804529
Pt       2.80597263       0.00035048      24.63270110        1       0.00201494      -0.00237800      -0.00449876
Pt       5.61375620       0.00042106      24.63242941        1      -0.00152449      -0.00340111      -0.00341638
Pt       1.40299169       2.43112278      24.63276771        1      -0.00228609       0.00166921      -0.00475955
Pt       4.20994479       2.43126286      24.62939428        1      -0.00019569       0.00014281       0.00999300
Pt       7.01677487       2.43087481      24.63247710        1       0.00311477       0.00251053      -0.00325300
Pt       2.80666514       4.86230063      24.63271521        1      -0.00239742       0.00025388      -0.00389208
Pt       5.61330726       4.86234088      24.63269744        1       0.00324041       0.00074978      -0.00393678
Pt       8.42077401       4.86228024      24.63005878        1       0.00018815       0.00040509       0.00296825
C        8.42084685       4.86402563      29.81340839        0       0.00002380      -0.00010193       0.02092822
H        7.55344871       5.09760865      30.45022488        0       0.00946282      -0.00339578      -0.00867650
H        9.29012476       4.63269826      30.44847990        0      -0.00946318       0.00339258      -0.00859346
H        8.65141458       5.73006912      29.17520973        0       0.00413273       0.01372902       0.00039211
H        8.18840803       3.99570814      29.17898409        0      -0.00417883      -0.01367476       0.00053185
