32
Lattice="8.421641763931781 0.0 0.0 4.2108208819658905 7.293355709136913 0.0 0.0 0.0 44.584161137365626" Properties=species:S:1:pos:R:3:tags:I:1:forces:R:3 charge=0 spin=0 energy=-161.47903785222502 free_energy=-161.47903785222502 stress="0.012279849499464035 2.9420572900562547e-05 2.6888728825724684e-05 2.9420572900562547e-05 0.012399899773299694 -9.709012374514714e-06 2.6888728825724684e-05 -9.709012374514714e-06 -0.00010936552280327305" pbc="T T T"
Pt       1.40360727       0.81037244      19.95766877        3      -0.00495437       0.01114964      -0.02205713
Pt       4.21082123       0.81037256      19.95766888        3      -0.00378989       0.01463825      -0.02572334
Pt       7.01803445       0.81037243      19.95766851        3      -0.00775751       0.01440198      -0.02410227
Pt       2.80721413       3.24149135      19.95766844        3      -0.00461276       0.01284466      -0.02481335
Pt       5.61442751       3.24149134      19.95766853        3      -0.00745894       0.01423579      -0.02513093
Pt       8.42164211       3.24149148      19.95766852        3      -0.00791429       0.01435736      -0.02453808
Pt       4.21082074       5.67261030      19.95766878        3      -0.00641945       0.01026180      -0.02570118
Pt       7.01803477       5.67261047      19.95766871        3      -0.00549214       0.01198420      -0.02593727
Pt       9.82524854       5.67261039      19.95766860        3      -0.00553950       0.01312229      -0.02699859
Pt       0.00000046       1.62074540      22.29208304        2       0.01815018      -0.03071523       0.04577692
Pt       2.80721419       1.62074531      22.29208311        2       0.00229025      -0.02794602       0.04492850
Pt       5.61442748       1.62074566      22.29208290        2       0.01864232      -0.03772875       0.03104779
Pt       1.40360675       4.05186459      22.29208313        2       0.01252242      -0.03413258       0.04074755
Pt       4.21082083       4.05186449      22.29208278        2       0.01163129      -0.02659839       0.01668448
Pt       7.01803481       4.05186460      22.29208288        2       0.02358185      -0.03199105       0.02264655
Pt       2.80721463       6.48298242      22.29208276        2       0.01562175      -0.02269986       0.04407450
Pt       5.61442775       6.48298327      22.29208278        2       0.01133135      -0.00749041       0.03378763
Pt       8.42164096       6.48298261      22.29208273        2       0.01212355      -0.02320264       0.04416623
Pt       0.01866414      -0.04117152      24.63925683        1      -0.00669662       0.01410369      -0.02634957
Pt       2.82711830      -0.03888357      24.63792110        1       0.00122303       0.01039870      -0.02145070
Pt       5.63337577      -0.04708679      24.63697154        1      -0.00176906       0.03028851      -0.02214790
Pt       1.41991424       2.38729573      24.63943704        1       0.01295466       0.02167514      -0.02963039
Pt       4.23347466       2.39066439      24.63098749        1      -0.02153528       0.00058545      -0.00141847
Pt       7.03505073       2.38707174      24.63543997        1       0.00819898       0.01699189      -0.01555267
Pt       2.83208130       4.81683825      24.63215987        1      -0.03451690       0.02745141      -0.00057812
Pt       5.63978651       4.82774857      24.62789042        1      -0.02989982      -0.01894841       0.01967208
Pt       8.44201499       4.81781541      24.63389434        1       0.00163846       0.02298207      -0.00597433
C        5.42728062       3.13610561      29.42675946        0      -0.00780222       0.03017349       0.02989713
H        6.48895155       3.42244808      29.39474364        0       0.02103599       0.00077217      -0.02393286
H        5.22446781       2.60369058      30.36859512        0      -0.01824182      -0.01713056      -0.01066134
H        5.19336637       2.48409250      28.57208537        0       0.00735444      -0.01601008       0.00724775
H        4.80373393       4.04172658      29.37717678        0      -0.00389989       0.00217557       0.00202150
