32
Lattice="8.421641763931781 0.0 0.0 4.2108208819658905 7.293355709136913 0.0 0.0 0.0 44.584161137365626" Properties=species:S:1:pos:R:3:tags:I:1:forces:R:3 charge=0 spin=0 energy=-161.4811006497714 free_energy=-161.4811006497714 stress="0.012317909859120846 -8.235296263592318e-06 4.584126997997373e-07 -8.235296263592318e-06 0.012229440733790398 6.135422609077068e-06 4.584126997997373e-07 6.135422609077068e-06 -0.00021382236445788294" pbc="T T T"
Pt       1.40360727       0.81037244      19.95766877        3       0.00212908      -0.01102927      -0.02430087
Pt       4.21082123       0.81037256      19.95766888        3      -0.00087073      -0.00820746      -0.02620941
Pt       7.01803445       0.81037243      19.95766851        3       0.00102779      -0.00726289      -0.02351516
Pt       2.80721413       3.24149135      19.95766844        3       0.00305065      -0.00848467      -0.02444970
Pt       5.61442751       3.24149134      19.95766853        3       0.00136146      -0.00940651      -0.02485059
Pt       8.42164211       3.24149148      19.95766852        3      -0.00152503      -0.00824959      -0.02191576
Pt       4.21082074       5.67261030      19.95766878        3       0.00157534      -0.01002589      -0.02469970
Pt       7.01803477       5.67261047      19.95766871        3       0.00093750      -0.00923503      -0.02522232
Pt       9.82524854       5.67261039      19.95766860        3      -0.00087541      -0.01043285      -0.02322021
Pt       0.00000046       1.62074540      22.29208304        2      -0.01271158       0.02060692       0.02812287
Pt       2.80721419       1.62074531      22.29208311        2      -0.00081594       0.01724286       0.02236811
Pt       5.61442748       1.62074566      22.29208290        2       0.00879566       0.02250905       0.03135528
Pt       1.40360675       4.05186459      22.29208313        2      -0.00737390       0.02733279       0.02327152
Pt       4.21082083       4.05186449      22.29208278        2      -0.01382042       0.01889771       0.01161069
Pt       7.01803481       4.05186460      22.29208288        2       0.01248986       0.00811722       0.02433559
Pt       2.80721463       6.48298242      22.29208276        2      -0.00126384       0.01984062       0.02787193
Pt       5.61442775       6.48298327      22.29208278        2      -0.00547086       0.03110098       0.01341942
Pt       8.42164096       6.48298261      22.29208273        2       0.00343001       0.01442788       0.02975608
Pt      -0.00378027       0.03255374      24.63221293        1       0.00014462      -0.02553687       0.00007640
Pt       2.80574741       0.02618123      24.63058563        1      -0.00899619       0.00780884       0.00363756
Pt       5.61144524       0.03023004      24.63113903        1       0.00262125      -0.01595122       0.00743410
Pt       1.39893196       2.46096007      24.62843201        1       0.01060663      -0.01633622       0.01528575
Pt       4.20876491       2.46022349      24.63001558        1      -0.00837145      -0.01365085       0.00648548
Pt       7.01446740       2.46279567      24.64137887        1       0.00206961      -0.02697563      -0.04147048
Pt       2.80160606       4.89112386      24.63201776        1       0.01058115      -0.00376048       0.00038569
Pt       5.61212497       4.89051207      24.62332366        1      -0.01093604      -0.00237746       0.03826052
Pt       8.41729799       4.89036370      24.63851718        1       0.01170329      -0.00253152      -0.02704024
C        7.02909297       3.97734011      29.46976673        0       0.01250948       0.00598245       0.00197394
H        7.41039847       4.90969517      29.91131663        0       0.00873639       0.02413140       0.02068552
H        7.06935381       3.17250544      30.21885957        0      -0.01265003      -0.00812142       0.01301837
H        7.65087172       3.70387566      28.60524707        0       0.01539988      -0.01219543      -0.03157732
H        5.98994092       4.12644573      29.14178300        0      -0.02348827      -0.00822748      -0.00088297
