32
Lattice="8.421641763931781 0.0 0.0 4.2108208819658905 7.293355709136913 0.0 0.0 0.0 44.584161137365626" Properties=species:S:1:pos:R:3:tags:I:1:forces:R:3 charge=0 spin=0 energy=-161.48362407201262 free_energy=-161.48362407201262 stress="0.012313606217503548 -2.936171949841082e-05 -7.234106760733994e-06 -2.936171949841082e-05 0.012298264540731907 2.143245183106046e-06 -7.234106760733994e-06 2.143245183106046e-06 -0.00015619538316968828" pbc="T T T"
Pt       1.40360727       0.81037244      19.95766877        3       0.00552806      -0.00163941      -0.02392018
Pt       4.21082123       0.81037256      19.95766888        3       0.00659543      -0.00205020      -0.02350254
Pt       7.01803445       0.81037243      19.95766851        3       0.00575260      -0.00015535      -0.02456140
Pt       2.80721413       3.24149135      19.95766844        3       0.00580193      -0.00105098      -0.02374275
Pt       5.61442751       3.24149134      19.95766853        3       0.00759272      -0.00087462      -0.02502654
Pt       8.42164211       3.24149148      19.95766852        3       0.00443746      -0.00063425      -0.02450945
Pt       4.21082074       5.67261030      19.95766878        3       0.00714947      -0.00260122      -0.02490072
Pt       7.01803477       5.67261047      19.95766871        3       0.00609693      -0.00364548      -0.02478148
Pt       9.82524854       5.67261039      19.95766860        3       0.00436348      -0.00219497      -0.02444069
Pt       0.00000046       1.62074540      22.29208304        2      -0.01032771      -0.00263231       0.02773339
Pt       2.80721419       1.62074531      22.29208311        2      -0.01334141       0.00270633       0.02882177
Pt       5.61442748       1.62074566      22.29208290        2      -0.01342756       0.00005213       0.02646847
Pt       1.40360675       4.05186459      22.29208313        2      -0.00829574       0.00396615       0.02658690
Pt       4.21082083       4.05186449      22.29208278        2      -0.01767542       0.00442943       0.02836656
Pt       7.01803481       4.05186460      22.29208288        2      -0.01411494       0.00350127       0.02458673
Pt       2.80721463       6.48298242      22.29208276        2      -0.01185431       0.00305443       0.03673548
Pt       5.61442775       6.48298327      22.29208278        2      -0.01567525       0.00519213       0.02876094
Pt       8.42164096       6.48298261      22.29208273        2      -0.00934776       0.00842139       0.02639634
Pt      -0.01917847       0.00493399      24.63415548        1       0.00269827      -0.00222618      -0.00799735
Pt       2.78754685       0.00429523      24.63217262        1       0.00704306       0.00349115      -0.00271980
Pt       5.59463678       0.00520639      24.63422235        1       0.00987780      -0.00451188      -0.00547834
Pt       1.38357885       2.43643002      24.63228454        1       0.01158659      -0.00434909      -0.00293523
Pt       4.19175224       2.43620249      24.63194682        1       0.00373509      -0.00265460      -0.00006968
Pt       6.99877081       2.43505841      24.63170814        1       0.00586311       0.00228669      -0.00202228
Pt       2.78792004       4.86664549      24.63429747        1       0.00666690       0.00244928      -0.00693923
Pt       5.59427261       4.86750749      24.63254934        1       0.00894651      -0.00289631      -0.00519869
Pt       8.40285869       4.86771395      24.63136831        1       0.00383518      -0.00384339      -0.00196157
C        7.08749912       4.04253283      29.55310866        0      -0.00026346      -0.00126954       0.00337904
H        7.70153479       3.40975102      30.21230136        0      -0.00219424       0.00325574      -0.00176270
H        6.42982846       4.67944987      30.16449102        0       0.00230080      -0.00261819      -0.00261314
H        6.47559231       3.40397439      28.89814293        0      -0.00330966      -0.00423071      -0.00011996
H        7.74300299       4.67652190      28.93714408        0       0.00395596       0.00327266       0.00136788
