32
Lattice="8.421641763931781 0.0 0.0 4.2108208819658905 7.293355709136913 0.0 0.0 0.0 44.584161137365626" Properties=species:S:1:pos:R:3:tags:I:1:forces:R:3 charge=0 spin=0 energy=-161.48266658299895 free_energy=-161.48266658299895 stress="0.012259562499821186 1.4691510841657873e-05 -8.17705767985899e-07 1.4691510841657873e-05 0.012235715985298157 1.2927417628816329e-05 -8.17705767985899e-07 1.2927417628816329e-05 -0.00023528694873675704" pbc="T T T"
Pt       1.40360727       0.81037244      19.95766877        3      -0.00466295      -0.00482187      -0.02332614
Pt       4.21082123       0.81037256      19.95766888        3      -0.00473306      -0.00404115      -0.02464043
Pt       7.01803445       0.81037243      19.95766851        3      -0.00611808      -0.00377165      -0.02369536
Pt       2.80721413       3.24149135      19.95766844        3      -0.00393076      -0.00614550      -0.02445935
Pt       5.61442751       3.24149134      19.95766853        3      -0.00534745      -0.00576281      -0.02345174
Pt       8.42164211       3.24149148      19.95766852        3      -0.00642731      -0.00589386      -0.02401035
Pt       4.21082074       5.67261030      19.95766878        3      -0.00440627      -0.00714079      -0.02364709
Pt       7.01803477       5.67261047      19.95766871        3      -0.00610934      -0.00672889      -0.02371073
Pt       9.82524854       5.67261039      19.95766860        3      -0.00525709      -0.00579775      -0.02354381
Pt       0.00000046       1.62074540      22.29208304        2       0.01038380       0.01106613       0.01430977
Pt       2.80721419       1.62074531      22.29208311        2       0.00758002       0.01070157       0.01051757
Pt       5.61442748       1.62074566      22.29208290        2       0.01398813       0.00911337       0.01193906
Pt       1.40360675       4.05186459      22.29208313        2       0.00915051       0.01622962       0.01754107
Pt       4.21082083       4.05186449      22.29208278        2       0.00996924       0.01648922       0.01390109
Pt       7.01803481       4.05186460      22.29208288        2       0.01207170       0.01435416       0.01794394
Pt       2.80721463       6.48298242      22.29208276        2       0.00990463       0.01036153       0.01762334
Pt       5.61442775       6.48298327      22.29208278        2       0.01112383       0.01191081       0.01658309
Pt       8.42164096       6.48298261      22.29208273        2       0.01356761       0.01085816       0.01738044
Pt       0.01633026       0.01868452      24.62913181        1      -0.00563522      -0.00767766       0.01305537
Pt       2.82389200       0.01828017      24.62914962        1      -0.00709992      -0.00849114       0.01574625
Pt       5.63085989       0.01968983      24.63068221        1      -0.00437084      -0.01670504       0.00649146
Pt       1.42029418       2.45003784      24.62901079        1      -0.00842360      -0.00572537       0.01720309
Pt       4.22711573       2.44911103      24.62851794        1      -0.00505771      -0.00412823       0.01111352
Pt       7.03430708       2.44954382      24.63099300        1      -0.00277210      -0.00404043       0.00170466
Pt       2.82472141       4.88047824      24.63073496        1      -0.01408660      -0.00256750       0.00465578
Pt       5.63075284       4.88063786      24.63192477        1      -0.00362671      -0.00454803      -0.00161747
Pt       8.43761318       4.88067348      24.63116379        1      -0.00005787      -0.00528792       0.00324431
C        5.54876807       3.16506067      29.46271347        0      -0.00084028      -0.00240919       0.03933464
H        5.38048254       4.04549340      30.10406380        0       0.01420899      -0.03230620      -0.03158454
H        5.83027693       2.30315371      30.08936262        0      -0.00312963       0.03640627      -0.03208104
H        6.35402541       3.37950802      28.74383961        0       0.01949381       0.00392614       0.02401410
H        4.62637587       2.93082797      28.91105037        0      -0.02934974      -0.00742601       0.00546568
