32
Lattice="8.421641763931781 0.0 0.0 4.2108208819658905 7.293355709136913 0.0 0.0 0.0 44.584161137365626" Properties=species:S:1:pos:R:3:tags:I:1:forces:R:3 charge=0 spin=0 energy=-161.48361644261809 free_energy=-161.48361644261809 stress="0.012328975833952427 -7.458737400156679e-06 -7.255239893311227e-07 -7.458737400156679e-06 0.012274205684661865 1.124811933550518e-05 -7.255239893311227e-07 1.124811933550518e-05 -0.00016279330884572119" pbc="T T T"
Pt       1.40360727       0.81037244      19.95766877        3       0.00122257      -0.00544440      -0.02296440
Pt       4.21082123       0.81037256      19.95766888        3       0.00279071      -0.00455957      -0.02469558
Pt       7.01803445       0.81037243      19.95766851        3       0.00066617      -0.00454018      -0.02491344
Pt       2.80721413       3.24149135      19.95766844        3       0.00288602      -0.00584108      -0.02442752
Pt       5.61442751       3.24149134      19.95766853        3       0.00155947      -0.00619603      -0.02388704
Pt       8.42164211       3.24149148      19.95766852        3       0.00033236      -0.00574447      -0.02478867
Pt       4.21082074       5.67261030      19.95766878        3       0.00175937      -0.00742645      -0.02428344
Pt       7.01803477       5.67261047      19.95766871        3       0.00104507      -0.00764929      -0.02428785
Pt       9.82524854       5.67261039      19.95766860        3       0.00163090      -0.00605711      -0.02479395
Pt       0.00000046       1.62074540      22.29208304        2       0.00142918       0.00874886       0.02958825
Pt       2.80721419       1.62074531      22.29208311        2      -0.00834888       0.00994118       0.02982138
Pt       5.61442748       1.62074566      22.29208290        2      -0.00346865       0.00991801       0.02273318
Pt       1.40360675       4.05186459      22.29208313        2      -0.00450548       0.01189442       0.02829593
Pt       4.21082083       4.05186449      22.29208278        2      -0.00496773       0.01422381       0.02370363
Pt       7.01803481       4.05186460      22.29208288        2      -0.00191449       0.01596142       0.02314818
Pt       2.80721463       6.48298242      22.29208276        2      -0.00180600       0.01287868       0.02877156
Pt       5.61442775       6.48298327      22.29208278        2      -0.00229440       0.01767707       0.03093176
Pt       8.42164096       6.48298261      22.29208273        2      -0.00466090       0.01449126       0.02937452
Pt      -0.00592624       0.01876037      24.63387146        1       0.00398866      -0.00492978      -0.00626379
Pt       2.80166880       0.01893817      24.63375392        1      -0.00016080      -0.00475790      -0.00742689
Pt       5.60887447       0.01974747      24.63224819        1       0.00143859      -0.01217761      -0.00197618
Pt       1.39807200       2.45057711      24.63377272        1       0.00141539      -0.00998280      -0.00447427
Pt       4.20462131       2.44957865      24.63157210        1       0.00367588      -0.00475168      -0.00117970
Pt       7.01304574       2.45000591      24.63115597        1       0.00008811      -0.00592091      -0.00128365
Pt       2.80182688       4.88113172      24.63207125        1      -0.00009924      -0.00485006       0.00081244
Pt       5.60880385       4.88200808      24.63236580        1       0.00119669      -0.00868251      -0.00413686
Pt       8.41550192       4.88116999      24.63221892        1       0.00622354      -0.00502337      -0.00160269
C        5.63962929       3.17853097      29.55443069        0      -0.00119266      -0.00040926       0.00250683
H        5.86158819       4.06597736      30.16689517        0      -0.00101010      -0.00301364      -0.00207981
H        5.39793959       2.32969246      30.21245725        0       0.00160617       0.00322803      -0.00113512
H        6.51716721       2.92851139      28.93925006        0       0.00497189      -0.00179992       0.00122025
H        4.78142669       3.38974492      28.89866615        0      -0.00549746       0.00079526      -0.00030700
