32
Lattice="8.421641763931781 0.0 0.0 4.2108208819658905 7.293355709136913 0.0 0.0 0.0 44.584161137365626" Properties=species:S:1:pos:R:3:tags:I:1:forces:R:3 charge=0 spin=0 energy=-161.48483714574309 free_energy=-161.48483714574309 stress="0.01227786485105753 5.294932179822354e-06 1.0762545343823149e-06 5.294932179822354e-06 0.012316742911934853 -3.127484433207428e-06 1.0762545343823149e-06 -3.127484433207428e-06 -0.00016694486839696765" pbc="T T T"
Pt       1.40360727       0.81037244      19.95766877        3      -0.00039576       0.00098294      -0.02382644
Pt       4.21082123       0.81037256      19.95766888        3      -0.00067410       0.00088518      -0.02376660
Pt       7.01803445       0.81037243      19.95766851        3      -0.00012570       0.00315597      -0.02473295
Pt       2.80721413       3.24149135      19.95766844        3      -0.00044052       0.00293523      -0.02259996
Pt       5.61442751       3.24149134      19.95766853        3       0.00138797       0.00361773      -0.02476821
Pt       8.42164211       3.24149148      19.95766852        3      -0.00168482       0.00360652      -0.02489582
Pt       4.21082074       5.67261030      19.95766878        3       0.00112928       0.00139400      -0.02429355
Pt       7.01803477       5.67261047      19.95766871        3      -0.00050704       0.00101366      -0.02384902
Pt       9.82524854       5.67261039      19.95766860        3      -0.00157191       0.00156936      -0.02439542
Pt       0.00000046       1.62074540      22.29208304        2       0.00188912      -0.00723457       0.02566977
Pt       2.80721419       1.62074531      22.29208311        2       0.00182138      -0.00215586       0.02705670
Pt       5.61442748       1.62074566      22.29208290        2       0.00050336      -0.00558088       0.02584165
Pt       1.40360675       4.05186459      22.29208313        2       0.00481166      -0.00539718       0.02562477
Pt       4.21082083       4.05186449      22.29208278        2      -0.00549320      -0.00513028       0.02585413
Pt       7.01803481       4.05186460      22.29208288        2       0.00098369      -0.00658553       0.02338452
Pt       2.80721463       6.48298242      22.29208276        2      -0.00015998      -0.00552163       0.03003379
Pt       5.61442775       6.48298327      22.29208278        2      -0.00057973      -0.00277987       0.02233160
Pt       8.42164096       6.48298261      22.29208273        2       0.00322027      -0.00071750       0.02266800
Pt       0.00174388      -0.00721835      24.63202329        1      -0.00409529       0.00378148       0.00216153
Pt       2.80847348      -0.00696433      24.63189678        1      -0.00068834       0.00366653      -0.00149484
Pt       5.61504699      -0.00714292      24.63222506        1       0.00379423       0.00283250       0.00141115
Pt       1.40425538       2.42443392      24.63186485        1       0.00317149       0.00150998       0.00121367
Pt       4.21279909       2.42444010      24.63206480        1      -0.00475171       0.00099533       0.00054374
Pt       7.01930282       2.42416616      24.63203607        1      -0.00064823       0.00210488      -0.00196304
Pt       2.80849372       4.85515268      24.63432616        1      -0.00043132       0.00327863      -0.00553663
Pt       5.61465766       4.85517734      24.63137387        1       0.00462898       0.00195199      -0.00487711
Pt       8.42389292       4.85558319      24.63133614        1      -0.00512324       0.00182783      -0.00491464
C        7.01730954       4.85945098      29.36265002        0      -0.00005110      -0.00000273       0.03630206
H        7.21420119       5.73877615      29.99695390        0      -0.00700585      -0.03102477      -0.02141751
H        6.82423221       3.98207216      30.00082396        0       0.00687544       0.03113003      -0.02176183
H        7.89264930       4.66425884      28.72470261        0       0.00001801       0.00066530       0.00445913
H        6.13815848       5.05269914      28.72935545        0       0.00019299      -0.00077430       0.00453746
