32
Lattice="8.421641763931781 0.0 0.0 4.2108208819658905 7.293355709136913 0.0 0.0 0.0 44.584161137365626" Properties=species:S:1:pos:R:3:tags:I:1:forces:R:3 charge=0 spin=0 energy=-161.4771657895419 free_energy=-161.4771657895419 stress="0.012246428988873959 1.672148755460512e-05 6.889955784572521e-06 1.672148755460512e-05 0.01231186930090189 -1.588244595041033e-05 6.889955784572521e-06 -1.588244595041033e-05 -0.00020139045955147594" pbc="T T T"
Pt       1.40360727       0.81037244      19.95766877        3      -0.00125215       0.00783362      -0.02369565
Pt       4.21082123       0.81037256      19.95766888        3      -0.00269266       0.00581845      -0.02253520
Pt       7.01803445       0.81037243      19.95766851        3      -0.00335419       0.00690448      -0.02404249
Pt       2.80721413       3.24149135      19.95766844        3      -0.00330611       0.01037004      -0.02448564
Pt       5.61442751       3.24149134      19.95766853        3      -0.00136881       0.01029824      -0.02332053
Pt       8.42164211       3.24149148      19.95766852        3      -0.00215798       0.01073414      -0.02275322
Pt       4.21082074       5.67261030      19.95766878        3      -0.00237151       0.00696254      -0.02527077
Pt       7.01803477       5.67261047      19.95766871        3      -0.00205986       0.00789630      -0.02556719
Pt       9.82524854       5.67261039      19.95766860        3      -0.00349529       0.00691152      -0.02518789
Pt       0.00000046       1.62074540      22.29208304        2       0.00574557      -0.01218549       0.04551033
Pt       2.80721419       1.62074531      22.29208311        2       0.00221698      -0.02210973       0.02938526
Pt       5.61442748       1.62074566      22.29208290        2       0.01142921      -0.01880988       0.03132207
Pt       1.40360675       4.05186459      22.29208313        2      -0.00160904      -0.02676088       0.02340488
Pt       4.21082083       4.05186449      22.29208278        2       0.00608670      -0.02480343       0.00683339
Pt       7.01803481       4.05186460      22.29208288        2       0.01152134      -0.03053856       0.02366251
Pt       2.80721463       6.48298242      22.29208276        2       0.00175216      -0.00404179       0.01984157
Pt       5.61442775       6.48298327      22.29208278        2       0.00701595      -0.00823185       0.01055701
Pt       8.42164096       6.48298261      22.29208273        2       0.00813912      -0.00851832       0.03041451
Pt       0.01093830      -0.02818789      24.63118584        1      -0.01832240       0.03472214       0.00879274
Pt       2.81428451      -0.02913261      24.63530852        1       0.00904860       0.03164839      -0.00854037
Pt       5.62315982      -0.02591828      24.63627802        1      -0.00399137       0.01051106      -0.01614400
Pt       1.41550455       2.40525899      24.63563961        1      -0.03359132       0.00727558      -0.02040987
Pt       4.21814819       2.40322638      24.62998814        1       0.00489471       0.00935151       0.01064268
Pt       7.02390541       2.40224294      24.63699242        1       0.02302976       0.01745682      -0.02576134
Pt       2.81637796       4.83772686      24.62565202        1      -0.01340843      -0.00048029       0.02694308
Pt       5.62420886       4.83658576      24.62649504        1      -0.00578361      -0.00824368       0.02637499
Pt       8.42889950       4.83873926      24.63185766        1       0.00805519      -0.01989603      -0.01434356
C        8.42587715       4.89824327      29.24882873        0       0.00264944       0.00892667      -0.00393237
H        8.58621064       5.78931366      29.87365414        0      -0.00677492       0.01904653       0.01971567
H        8.23358677       4.02736276      29.89352305        0       0.00618941      -0.00893734      -0.00015058
H        9.32406649       4.71661565      28.63961791        0      -0.00344283      -0.01710602      -0.00475966
H        7.56105391       5.06379441      28.58881434        0       0.00120835      -0.00200473      -0.00250014
