32
Lattice="8.421641763931781 0.0 0.0 4.2108208819658905 7.293355709136913 0.0 0.0 0.0 44.584161137365626" Properties=species:S:1:pos:R:3:tags:I:1:forces:R:3 charge=0 spin=0 energy=-161.48331317418547 free_energy=-161.48331317418547 stress="0.0123086953535676 6.912720436957898e-06 4.254107466294954e-07 6.912720436957898e-06 0.012308656238019466 -3.3576300211279886e-06 4.254107466294954e-07 -3.3576300211279886e-06 -0.0001411202538292855" pbc="T T T"
Pt       1.40360727       0.81037244      19.95766877        3       0.00003189       0.00092666      -0.02409088
Pt       4.21082123       0.81037256      19.95766888        3      -0.00015429       0.00085310      -0.02406024
Pt       7.01803445       0.81037243      19.95766851        3       0.00031630       0.00320594      -0.02441613
Pt       2.80721413       3.24149135      19.95766844        3      -0.00003228       0.00251309      -0.02258043
Pt       5.61442751       3.24149134      19.95766853        3       0.00196345       0.00315928      -0.02438575
Pt       8.42164211       3.24149148      19.95766852        3      -0.00170700       0.00331603      -0.02464592
Pt       4.21082074       5.67261030      19.95766878        3       0.00186981       0.00167566      -0.02442241
Pt       7.01803477       5.67261047      19.95766871        3      -0.00000870       0.00104095      -0.02427758
Pt       9.82524854       5.67261039      19.95766860        3      -0.00156344       0.00180867      -0.02459007
Pt       0.00000046       1.62074540      22.29208304        2       0.00182576      -0.00748621       0.02747557
Pt       2.80721419       1.62074531      22.29208311        2       0.00087305      -0.00102084       0.02957495
Pt       5.61442748       1.62074566      22.29208290        2      -0.00090618      -0.00559033       0.02726371
Pt       1.40360675       4.05186459      22.29208313        2       0.00589981      -0.00488739       0.02867466
Pt       4.21082083       4.05186449      22.29208278        2      -0.00765966      -0.00493268       0.02912284
Pt       7.01803481       4.05186460      22.29208288        2       0.00015704      -0.00582612       0.02460226
Pt       2.80721463       6.48298242      22.29208276        2      -0.00120308      -0.00682861       0.03406570
Pt       5.61442775       6.48298327      22.29208278        2      -0.00264616      -0.00262301       0.02388752
Pt       8.42164096       6.48298261      22.29208273        2       0.00269112      -0.00046075       0.02494668
Pt       0.00026048      -0.00705613      24.63283577        1      -0.00251131       0.00360753      -0.00164510
Pt       2.80698154      -0.00656005      24.63176532        1      -0.00003016       0.00239838      -0.00192936
Pt       5.61379801      -0.00671090      24.63295470        1       0.00331645       0.00222130      -0.00237756
Pt       1.40316915       2.42478491      24.63264224        1       0.00242986       0.00123124      -0.00239664
Pt       4.21143127       2.42453734      24.63282565        1      -0.00335072       0.00110673      -0.00309571
Pt       7.01816507       2.42410147      24.63197263        1      -0.00035861       0.00386616      -0.00224062
Pt       2.80719185       4.85531073      24.63495341        1       0.00012736       0.00360394      -0.01081748
Pt       5.61295445       4.85556011      24.63149742        1       0.00708824       0.00175276      -0.00363517
Pt       8.42304022       4.85578358      24.63141183        1      -0.00650684       0.00128965      -0.00349102
C        7.01662796       4.86101600      29.47221931        0       0.00000708      -0.00017155       0.02804694
H        7.87387102       5.13560898      30.10796692        0      -0.02987341      -0.00909285      -0.02414978
H        6.16422874       4.57523064      30.10955040        0       0.02959347       0.00988222      -0.02428262
H        7.29459144       4.01334016      28.82746479        0      -0.00089357       0.00122816       0.00964541
H        6.73383973       5.71981643      28.84446544        0       0.00121464      -0.00176702       0.01022426
