32
Lattice="8.421641763931781 0.0 0.0 4.2108208819658905 7.293355709136913 0.0 0.0 0.0 44.584161137365626" Properties=species:S:1:pos:R:3:tags:I:1:forces:R:3 charge=0 spin=0 energy=-161.4771648358676 free_energy=-161.4771648358676 stress="0.012310382910072803 1.9284198060631752e-05 8.629735020804219e-06 1.9284198060631752e-05 0.012247894890606403 1.433632496627979e-05 8.629735020804219e-06 1.433632496627979e-05 -0.00020145397866144776" pbc="T T T"
Pt       1.40360727       0.81037244      19.95766877        3      -0.00484713      -0.00554229      -0.02526802
Pt       4.21082123       0.81037256      19.95766888        3      -0.00733058      -0.00804700      -0.02448445
Pt       7.01803445       0.81037243      19.95766851        3      -0.00615207      -0.00499846      -0.02370345
Pt       2.80721413       3.24149135      19.95766844        3      -0.00823544      -0.00633777      -0.02330961
Pt       5.61442751       3.24149134      19.95766853        3      -0.00368682      -0.00524442      -0.02253401
Pt       8.42164211       3.24149148      19.95766852        3      -0.00582371      -0.00574471      -0.02554836
Pt       4.21082074       5.67261030      19.95766878        3      -0.00429336      -0.00635700      -0.02406609
Pt       7.01803477       5.67261047      19.95766871        3      -0.00425034      -0.00649396      -0.02518761
Pt       9.82524854       5.67261039      19.95766860        3      -0.00822497      -0.00723341      -0.02275766
Pt       0.00000046       1.62074540      22.29208304        2       0.00363398       0.01023218       0.01044816
Pt       2.80721419       1.62074531      22.29208311        2       0.01846464       0.01769682       0.00681556
Pt       5.61442748       1.62074566      22.29208290        2       0.01801057       0.01295891       0.02944652
Pt       1.40360675       4.05186459      22.29208313        2       0.02068768       0.02525783       0.02367314
Pt       4.21082083       4.05186449      22.29208278        2       0.01055681       0.01926216       0.03138268
Pt       7.01803481       4.05186460      22.29208288        2       0.00333723       0.01130935       0.03034852
Pt       2.80721463       6.48298242      22.29208276        2       0.00762872       0.01105721       0.04557029
Pt       5.61442775       6.48298327      22.29208278        2       0.00267351       0.00356217       0.01975951
Pt       8.42164096       6.48298261      22.29208273        2       0.02399732       0.01200742       0.02344356
Pt       0.01894991       0.02357947      24.63115035        1      -0.02091261      -0.03325639       0.00894247
Pt       2.82387190       0.02020270      24.62565294        1       0.00711003      -0.01137683       0.02693559
Pt       5.63088338       0.02324204      24.63565601        1       0.01047684      -0.03270426      -0.02025539
Pt       1.42093875       2.45242654      24.62649794        1       0.01004702      -0.00088740       0.02637711
Pt       4.23131738       2.45141696      24.63001895        1      -0.01053403      -0.00043853       0.01048127
Pt       7.03972799       2.45182104      24.63529725        1      -0.03191687      -0.00803037      -0.00866696
Pt       2.82929701       4.88176407      24.63700199        1      -0.02665725       0.01125736      -0.02562658
Pt       5.63251361       4.88276381      24.63625785        1      -0.00710339      -0.00872375      -0.01628757
Pt       8.43837414       4.88028408      24.63185428        1       0.01319445       0.01692598      -0.01430287
C        8.38833426       4.84789492      29.24885307        0      -0.00913685      -0.00209871      -0.00388079
H        7.53646903       4.54122254      29.87367214        0      -0.01307214      -0.01538210       0.01971591
H        9.23867877       5.11681243      29.89355125        0       0.00465466       0.00982920      -0.00012397
H        8.09654039       5.71655999      28.63963344        0       0.01655584       0.00552988      -0.00476917
H        8.67737738       4.01615095      28.58885626        0       0.00114815       0.00201085      -0.00256776
