32
Lattice="8.421641763931781 0.0 0.0 4.2108208819658905 7.293355709136913 0.0 0.0 0.0 44.584161137365626" Properties=species:S:1:pos:R:3:tags:I:1:forces:R:3 charge=0 spin=0 energy=-161.48165568822355 free_energy=-161.48165568822355 stress="0.012248370796442032 3.40281731041614e-05 1.717832674330566e-05 3.40281731041614e-05 0.012277986854314804 1.0163112165173516e-05 1.717832674330566e-05 1.0163112165173516e-05 -0.00022943590010982007" pbc="T T T"
Pt       1.40360727       0.81037244      19.95766877        3      -0.00472782       0.00196550      -0.02310891
Pt       4.21082123       0.81037256      19.95766888        3      -0.00559167       0.00167785      -0.02543795
Pt       7.01803445       0.81037243      19.95766851        3      -0.00750351       0.00266735      -0.02326516
Pt       2.80721413       3.24149135      19.95766844        3      -0.00497993       0.00032220      -0.02501236
Pt       5.61442751       3.24149134      19.95766853        3      -0.00597749       0.00077428      -0.02350615
Pt       8.42164211       3.24149148      19.95766852        3      -0.00715454       0.00084068      -0.02424900
Pt       4.21082074       5.67261030      19.95766878        3      -0.00545039      -0.00142109      -0.02289434
Pt       7.01803477       5.67261047      19.95766871        3      -0.00683654      -0.00045391      -0.02422370
Pt       9.82524854       5.67261039      19.95766860        3      -0.00643721       0.00034135      -0.02443596
Pt       0.00000046       1.62074540      22.29208304        2       0.01405279      -0.00628564       0.02765186
Pt       2.80721419       1.62074531      22.29208311        2       0.00345946      -0.00859092       0.01772286
Pt       5.61442748       1.62074566      22.29208290        2       0.02114276      -0.00483115       0.00936015
Pt       1.40360675       4.05186459      22.29208313        2       0.00949072       0.00005547       0.01855116
Pt       4.21082083       4.05186449      22.29208278        2       0.01523781       0.00861483       0.01160702
Pt       7.01803481       4.05186460      22.29208288        2       0.01167577       0.00174133       0.02755500
Pt       2.80721463       6.48298242      22.29208276        2       0.01818199      -0.00083514       0.02265237
Pt       5.61442775       6.48298327      22.29208278        2       0.01291857      -0.00093852       0.03690683
Pt       8.42164096       6.48298261      22.29208273        2       0.01221059      -0.00265392       0.02393099
Pt       0.01977447      -0.00106922      24.63356770        1       0.00075163      -0.00318694      -0.00790954
Pt       2.82844536      -0.00272032      24.63236144        1      -0.02165047      -0.00000783      -0.00168808
Pt       5.63516381      -0.00032559      24.62977555        1      -0.01061456      -0.01069209       0.01017315
Pt       1.42305175       2.43129297      24.63111968        1      -0.00943154      -0.01477942       0.00736677
Pt       4.23001765       2.42977555      24.62542611        1      -0.00747289      -0.00596865       0.02579545
Pt       7.03719838       2.42928080      24.63315311        1       0.00240350       0.00214384      -0.00868698
Pt       2.82736237       4.85978915      24.63032291        1      -0.00925290       0.01209707       0.00876321
Pt       5.63320005       4.85866839      24.63545887        1       0.00177719       0.02096493      -0.02172055
Pt       8.44156623       4.85985895      24.63196373        1      -0.01016572       0.00728166      -0.00060335
C        5.59525710       3.26781249      29.33807744        0      -0.00330354      -0.00063488      -0.01772965
H        5.97016067       2.33678088      29.78831953        0       0.01565761      -0.00523258       0.02478798
H        5.65522475       4.08672988      30.07122105        0      -0.01673647      -0.01673578       0.01059798
H        4.55093153       3.12421226      29.02366921        0      -0.02900660       0.01543729       0.01600699
H        6.20511718       3.52093704      28.45910123        0       0.03333353       0.00632291      -0.02495787
