32
Lattice="8.421641763931781 0.0 0.0 4.2108208819658905 7.293355709136913 0.0 0.0 0.0 44.584161137365626" Properties=species:S:1:pos:R:3:tags:I:1:forces:R:3 charge=0 spin=0 energy=-161.4769502591464 free_energy=-161.4769502591464 stress="0.012316427193582058 -1.8862130673369393e-05 -1.2891817277704831e-05 -1.8862130673369393e-05 0.012247731909155846 1.4499623830488417e-05 -1.2891817277704831e-05 1.4499623830488417e-05 -0.00019886321388185024" pbc="T T T"
Pt       1.40360727       0.81037244      19.95766877        3       0.00524034      -0.00579169      -0.02355502
Pt       4.21082123       0.81037256      19.95766888        3       0.00664673      -0.00950148      -0.02475922
Pt       7.01803445       0.81037243      19.95766851        3       0.00410310      -0.00658468      -0.02557217
Pt       2.80721413       3.24149135      19.95766844        3       0.00293326      -0.00605609      -0.02254958
Pt       5.61442751       3.24149134      19.95766853        3       0.00727900      -0.00799683      -0.02305462
Pt       8.42164211       3.24149148      19.95766852        3       0.00481862      -0.00644365      -0.02542542
Pt       4.21082074       5.67261030      19.95766878        3       0.00343181      -0.00732784      -0.02404048
Pt       7.01803477       5.67261047      19.95766871        3       0.00745594      -0.00853054      -0.02265700
Pt       9.82524854       5.67261039      19.95766860        3       0.00373746      -0.00738847      -0.02553687
Pt       0.00000046       1.62074540      22.29208304        2       0.00013943       0.01153634       0.00978089
Pt       2.80721419       1.62074531      22.29208311        2      -0.01669792       0.01177710       0.03091486
Pt       5.61442748       1.62074566      22.29208290        2      -0.01722463       0.02236354       0.00565662
Pt       1.40360675       4.05186459      22.29208313        2      -0.00151660       0.01286844       0.03132813
Pt       4.21082083       4.05186449      22.29208278        2      -0.01188818       0.02041852       0.03185922
Pt       7.01803481       4.05186460      22.29208288        2      -0.01938690       0.02849237       0.02159617
Pt       2.80721463       6.48298242      22.29208276        2      -0.00128328       0.00717084       0.02185400
Pt       5.61442775       6.48298327      22.29208278        2      -0.00688968       0.01149610       0.04659970
Pt       8.42164096       6.48298261      22.29208273        2      -0.02274707       0.01431510       0.02603635
Pt      -0.01680763       0.02598945      24.63156665        1       0.01587654      -0.03601085       0.00707318
Pt       2.79113035       0.02630911      24.63650832        1      -0.00672667      -0.03745099      -0.02338552
Pt       5.59876238       0.02316183      24.62522737        1      -0.00824172      -0.01623157       0.02710898
Pt       1.38262981       2.45493330      24.63598060        1       0.03551460      -0.01087312      -0.00971306
Pt       4.19079048       2.45370599      24.63027549        1       0.01343626      -0.00150271       0.00933846
Pt       7.00245260       2.45412853      24.62591099        1      -0.01288495      -0.00074148       0.03009574
Pt       2.79092755       4.88512129      24.63648567        1       0.00499217      -0.00688987      -0.01811212
Pt       5.59450560       4.88336795      24.63674613        1       0.02247640       0.01349933      -0.02460807
Pt       8.40612272       4.88222882      24.63188199        1      -0.01224850       0.02209845      -0.01455420
C        8.45304981       4.83544664      29.25112921        0       0.01131537      -0.00270031      -0.00348359
H        9.31403356       4.56526010      29.88013934        0       0.01549968      -0.01199051       0.02432099
H        7.61260970       5.14393800      29.89116332        0      -0.00426902       0.00532029      -0.00267354
H        8.15584785       3.96554601      28.64627344        0      -0.00728171       0.00220045      -0.00309539
H        8.73519613       5.66604714      28.58691952        0      -0.01560989       0.00645566      -0.00678749
