32
Lattice="8.421641763931781 0.0 0.0 4.2108208819658905 7.293355709136913 0.0 0.0 0.0 44.584161137365626" Properties=species:S:1:pos:R:3:tags:I:1:forces:R:3 charge=0 spin=0 energy=-161.48110446446867 free_energy=-161.48110446446867 stress="0.01224448997527361 -3.3373689802829176e-05 -3.7205516036920017e-06 -3.3373689802829176e-05 0.01230316236615181 -2.7938169750996167e-06 -3.7205516036920017e-06 -2.7938169750996167e-06 -0.00021362159168347716" pbc="T T T"
Pt       1.40360727       0.81037244      19.95766877        3       0.00582077       0.00689560      -0.02444830
Pt       4.21082123       0.81037256      19.95766888        3       0.00849274       0.00736669      -0.02430256
Pt       7.01803445       0.81037243      19.95766851        3       0.00790036       0.00638366      -0.02469523
Pt       2.80721413       3.24149135      19.95766844        3       0.00754826       0.00335837      -0.02620546
Pt       5.61442751       3.24149134      19.95766853        3       0.00753749       0.00542702      -0.02521891
Pt       8.42164211       3.24149148      19.95766852        3       0.00746031       0.00588221      -0.02485163
Pt       4.21082074       5.67261030      19.95766878        3       0.00948537       0.00445922      -0.02322025
Pt       7.01803477       5.67261047      19.95766871        3       0.00790898       0.00279607      -0.02192564
Pt       9.82524854       5.67261039      19.95766860        3       0.00578161       0.00452005      -0.02352583
Pt       0.00000046       1.62074540      22.29208304        2      -0.00943901      -0.02146071       0.01155586
Pt       2.80721419       1.62074531      22.29208311        2      -0.01451153      -0.00932710       0.02238045
Pt       5.61442748       1.62074566      22.29208290        2      -0.02421591      -0.02031405       0.01342111
Pt       1.40360675       4.05186459      22.29208313        2      -0.02387723      -0.00361778       0.03141385
Pt       4.21082083       4.05186449      22.29208278        2      -0.01422144      -0.00423638       0.02981867
Pt       7.01803481       4.05186460      22.29208288        2      -0.01329570       0.00679743       0.02435515
Pt       2.80721463       6.48298242      22.29208276        2      -0.01654067      -0.01099897       0.02794439
Pt       5.61442775       6.48298327      22.29208278        2      -0.01998776      -0.02002706       0.02330275
Pt       8.42164096       6.48298261      22.29208273        2      -0.01148530      -0.02126849       0.02820523
Pt      -0.02222608      -0.01929843      24.63204019        1      -0.00203196       0.01105404       0.00046940
Pt       2.78369969      -0.01896737      24.62844033        1       0.00885865       0.01729202       0.01529273
Pt       5.58811836      -0.01954797      24.63222936        1       0.02199022       0.01289969       0.00007956
Pt       1.37942752       2.41478932      24.63001637        1       0.01600660      -0.00044154       0.00626663
Pt       4.18887012       2.41675868      24.63059270        1      -0.00221948      -0.01170305       0.00341339
Pt       6.99469544       2.41498543      24.62330649        1       0.00752933      -0.00825011       0.03807602
Pt       2.78251291       4.84454145      24.63115836        1       0.01248261       0.01027980       0.00755844
Pt       5.59222261       4.84441887      24.63851909        1      -0.00359786       0.01135656      -0.02691059
Pt       8.39599647       4.84332177      24.64137832        1       0.02223370       0.01522097      -0.04147781
C        7.07704763       4.09869330      29.46959727        0      -0.01146573       0.00790961       0.00205782
H        7.75393442       4.53595884      30.21868996        0       0.01335955      -0.00684317       0.01302848
H        6.07895688       3.96273265      29.91115931        0      -0.02523146      -0.00453920       0.02066981
H        7.46749927       3.12421643      29.14159913        0       0.01882005      -0.01624640      -0.00095662
H        7.00296973       4.77392615      28.60509599        0       0.00290437       0.01937514      -0.03157090
