32
Lattice="8.421641763931781 0.0 0.0 4.2108208819658905 7.293355709136913 0.0 0.0 0.0 44.584161137365626" Properties=species:S:1:pos:R:3:tags:I:1:forces:R:3 charge=0 spin=0 energy=-161.4816471051547 free_energy=-161.4816471051547 stress="0.012239852920174599 -9.704071999294683e-06 4.041483862238238e-06 -9.704071999294683e-06 0.012267510406672955 -1.8776863726088777e-06 4.041483862238238e-06 -1.8776863726088777e-06 -0.00019240334222558886" pbc="T T T"
Pt       1.40360727       0.81037244      19.95766877        3       0.00195308       0.00150294      -0.02437224
Pt       4.21082123       0.81037256      19.95766888        3       0.00094977       0.00240194      -0.02416374
Pt       7.01803445       0.81037243      19.95766851        3       0.00072922       0.00150563      -0.02328363
Pt       2.80721413       3.24149135      19.95766844        3       0.00141932       0.00313737      -0.02539041
Pt       5.61442751       3.24149134      19.95766853        3       0.00178015       0.00363968      -0.02443361
Pt       8.42164211       3.24149148      19.95766852        3      -0.00005224       0.00329556      -0.02270721
Pt       4.21082074       5.67261030      19.95766878        3       0.00175943       0.00054252      -0.02488982
Pt       7.01803477       5.67261047      19.95766871        3       0.00102330       0.00311772      -0.02369597
Pt       9.82524854       5.67261039      19.95766860        3      -0.00007262       0.00126804      -0.02427254
Pt       0.00000046       1.62074540      22.29208304        2      -0.00360784      -0.00407517       0.02335401
Pt       2.80721419       1.62074531      22.29208311        2      -0.00280555      -0.00821212       0.03009840
Pt       5.61442748       1.62074566      22.29208290        2       0.00026931      -0.00713169       0.02496013
Pt       1.40360675       4.05186459      22.29208313        2      -0.00326252      -0.00506924       0.02076910
Pt       4.21082083       4.05186449      22.29208278        2      -0.00509977      -0.00355622       0.01927047
Pt       7.01803481       4.05186460      22.29208288        2       0.00125798      -0.01322308       0.01729983
Pt       2.80721463       6.48298242      22.29208276        2      -0.00367166       0.00156325       0.02660876
Pt       5.61442775       6.48298327      22.29208278        2      -0.00109352      -0.00036482       0.01617482
Pt       8.42164096       6.48298261      22.29208273        2      -0.00149655      -0.00319009       0.02159152
Pt       0.00159524      -0.00619431      24.63038561        1      -0.02541838      -0.00230604       0.00689686
Pt       2.80457451      -0.01014916      24.63413204        1       0.00011421       0.02703731      -0.00830227
Pt       5.60666897      -0.00842003      24.63253622        1       0.02521669       0.00832241      -0.00103804
Pt       1.40027740       2.42573921      24.63049483        1       0.00472316      -0.00544351       0.00377603
Pt       4.20745513       2.42635887      24.62982032        1      -0.00094061      -0.00941937       0.00769037
Pt       7.01315937       2.41980826      24.63351713        1       0.00838242       0.01097313      -0.00689544
Pt       2.80384227       4.85867385      24.62925004        1       0.00330572      -0.01032089       0.00840021
Pt       5.61506598       4.85499471      24.62942278        1      -0.02337354      -0.00292446       0.01184452
Pt       8.41596405       4.85260604      24.63234458        1       0.01892900       0.00680616      -0.00009773
C        7.07131501       5.01852465      29.73379293        0       0.00075456      -0.01002750       0.00256846
H        6.46001343       5.74021741      30.29540439        0      -0.02188279       0.01680531       0.00201085
H        7.73347321       4.48283623      30.43035880        0       0.01889749      -0.00842972      -0.00143405
H        7.67451067       5.55208358      28.98530977        0       0.03362544       0.02434497      -0.00874360
H        6.41641409       4.29782445      29.22308249        0      -0.03231307      -0.02257001       0.00040591
