32
Lattice="8.421641763931781 0.0 0.0 4.2108208819658905 7.293355709136913 0.0 0.0 0.0 44.584161137365626" Properties=species:S:1:pos:R:3:tags:I:1:forces:R:3 charge=0 spin=0 energy=-161.48441562169523 free_energy=-161.48441562169523 stress="0.012255060486495495 -1.557510950078722e-05 -3.2349527145925094e-07 -1.557510950078722e-05 0.012262041680514812 -1.1361165661583073e-06 -3.2349527145925094e-07 -1.1361165661583073e-06 -0.00020925018179696053" pbc="T T T"
Pt       1.40360727       0.81037244      19.95766877        3       0.00111700       0.00108477      -0.02417296
Pt       4.21082123       0.81037256      19.95766888        3       0.00059095      -0.00114656      -0.02404077
Pt       7.01803445       0.81037243      19.95766851        3      -0.00059308       0.00108016      -0.02391444
Pt       2.80721413       3.24149135      19.95766844        3      -0.00113645       0.00158857      -0.02384046
Pt       5.61442751       3.24149134      19.95766853        3       0.00186576       0.00143521      -0.02421628
Pt       8.42164211       3.24149148      19.95766852        3       0.00008072       0.00090551      -0.02408269
Pt       4.21082074       5.67261030      19.95766878        3       0.00021745      -0.00023961      -0.02406028
Pt       7.01803477       5.67261047      19.95766871        3       0.00064702       0.00026758      -0.02417143
Pt       9.82524854       5.67261039      19.95766860        3      -0.00000090       0.00056748      -0.02403630
Pt       0.00000046       1.62074540      22.29208304        2       0.00072156       0.00203460       0.01967378
Pt       2.80721419       1.62074531      22.29208311        2      -0.00363712      -0.00372941       0.01923255
Pt       5.61442748       1.62074566      22.29208290        2       0.00258362      -0.00258423       0.01737330
Pt       1.40360675       4.05186459      22.29208313        2       0.00241337      -0.00412254       0.02249748
Pt       4.21082083       4.05186449      22.29208278        2      -0.00110565       0.00197305       0.01834929
Pt       7.01803481       4.05186460      22.29208288        2      -0.00434593      -0.00304897       0.02229906
Pt       2.80721463       6.48298242      22.29208276        2      -0.00362519      -0.00236161       0.01931481
Pt       5.61442775       6.48298327      22.29208278        2       0.00190290      -0.00329148       0.02019483
Pt       8.42164096       6.48298261      22.29208273        2      -0.00070417       0.00290085       0.02290326
Pt      -0.00100515      -0.00205234      24.62823339        1       0.00113036       0.00060892       0.01740956
Pt       2.80586841      -0.00138162      24.63233586        1       0.00348457      -0.00577787      -0.00190305
Pt       5.61368351      -0.00126324      24.63204037        1      -0.00274947      -0.00745634      -0.00085322
Pt       1.40302356       2.42868805      24.63236005        1      -0.00403064       0.00614552      -0.00203324
Pt       4.20990775       2.42911695      24.62780215        1      -0.00083013       0.00077054       0.01842622
Pt       7.01651914       2.42819499      24.63199804        1       0.00554105       0.00842193      -0.00056522
Pt       2.80709235       4.85992792      24.63209595        1      -0.00745630       0.00234382      -0.00108356
Pt       5.61285278       4.86031694      24.63208508        1       0.00808863       0.00087829      -0.00137623
Pt       8.42077533       4.86020510      24.62946838        1      -0.00021006       0.00075466       0.00512147
C        8.41973173       4.86219790      29.82749264        0      -0.00005463      -0.00004850       0.03096539
H        9.05284962       4.22369980      30.46337595        0      -0.00833984       0.00953454      -0.01574540
H        7.78494644       5.49799658      30.46442392        0       0.00843267      -0.00958466      -0.01590455
H        7.78536457       4.23062210      29.18833589        0      -0.02009330      -0.01841591       0.00103355
H        9.05578638       5.49647529      29.19270357        0       0.02009492       0.01851171       0.00120545
