32
Lattice="8.421641763931781 0.0 0.0 4.2108208819658905 7.293355709136913 0.0 0.0 0.0 44.584161137365626" Properties=species:S:1:pos:R:3:tags:I:1:forces:R:3 charge=0 spin=0 energy=-161.48213157170744 free_energy=-161.48213157170744 stress="0.012271390296518803 1.0806842510646675e-05 -6.384071866705199e-07 1.0806842510646675e-05 0.01229654811322689 -5.714295184588991e-06 -6.384071866705199e-07 -5.714295184588991e-06 -0.0002010432508541271" pbc="T T T"
Pt       1.40360727       0.81037244      19.95766877        3      -0.00007044       0.00271267      -0.02485472
Pt       4.21082123       0.81037256      19.95766888        3      -0.00048764       0.00046950      -0.02348543
Pt       7.01803445       0.81037243      19.95766851        3       0.00005709       0.00471268      -0.02472572
Pt       2.80721413       3.24149135      19.95766844        3      -0.00005098       0.00419165      -0.02174578
Pt       5.61442751       3.24149134      19.95766853        3       0.00176739       0.00409616      -0.02410612
Pt       8.42164211       3.24149148      19.95766852        3      -0.00171155       0.00517930      -0.02456931
Pt       4.21082074       5.67261030      19.95766878        3       0.00129137       0.00409804      -0.02443799
Pt       7.01803477       5.67261047      19.95766871        3      -0.00046366       0.00243788      -0.02467243
Pt       9.82524854       5.67261039      19.95766860        3      -0.00145953       0.00339649      -0.02389629
Pt       0.00000046       1.62074540      22.29208304        2       0.00075676      -0.01238083       0.02654064
Pt       2.80721419       1.62074531      22.29208311        2       0.00300842      -0.00466596       0.02760379
Pt       5.61442748       1.62074566      22.29208290        2      -0.00065744      -0.00260971       0.03403744
Pt       1.40360675       4.05186459      22.29208313        2       0.00847664      -0.01091176       0.00834818
Pt       4.21082083       4.05186449      22.29208278        2      -0.00452146      -0.01367790       0.02334371
Pt       7.01803481       4.05186460      22.29208288        2      -0.00431027      -0.01125327       0.01732542
Pt       2.80721463       6.48298242      22.29208276        2       0.00182500      -0.00911536       0.01871020
Pt       5.61442775       6.48298327      22.29208278        2      -0.00097986      -0.00729650       0.02619251
Pt       8.42164096       6.48298261      22.29208273        2       0.00007879       0.00568114       0.01580064
Pt      -0.00071786      -0.01527507      24.63184410        1       0.01342270       0.02471635       0.00235928
Pt       2.80555031      -0.00925262      24.63147643        1       0.00724019      -0.00544433      -0.00371979
Pt       5.61889548      -0.01061780      24.63106665        1      -0.02222001       0.01361251       0.00586729
Pt       1.40277353       2.42220817      24.63063707        1       0.00567684      -0.01559582       0.00849147
Pt       4.21008460       2.41877009      24.63484969        1       0.01308724       0.00035372      -0.01141502
Pt       7.02234076       2.42180686      24.63294275        1      -0.02126878      -0.00696098      -0.00831533
Pt       2.80758276       4.84911581      24.63257706        1       0.00596613       0.01021714       0.00553230
Pt       5.61211920       4.84697186      24.63093231        1       0.01978231       0.02184457       0.00034213
Pt       8.42530307       4.85513738      24.62542428        1      -0.02512176      -0.00771947       0.02478519
C        7.13571392       4.99450583      29.60681131        0       0.00075972       0.00275770      -0.00310785
H        6.43467921       5.62267029      30.17735288        0       0.00577540       0.00385105       0.01054288
H        7.85123743       4.52150744      30.29666577        0      -0.00814726      -0.00376231       0.01113503
H        7.68451143       5.62078006      28.88654052        0      -0.02256995      -0.02067160      -0.01035682
H        6.57272326       4.21451815      29.07103622        0       0.02506840       0.01773718      -0.01354932
