32
Lattice="8.421641763931781 0.0 0.0 4.2108208819658905 7.293355709136913 0.0 0.0 0.0 44.584161137365626" Properties=species:S:1:pos:R:3:tags:I:1:forces:R:3 charge=0 spin=0 energy=-161.48218879216643 free_energy=-161.48218879216643 stress="0.012331654317677021 -1.725575202726759e-05 -2.337442538191681e-06 -1.725575202726759e-05 0.012337442487478256 -4.2364431465102825e-06 -2.337442538191681e-06 -4.2364431465102825e-06 -0.0001345055497949943" pbc="T T T"
Pt       1.40360727       0.81037244      19.95766877        3       0.00224358       0.00070277      -0.02389578
Pt       4.21082123       0.81037256      19.95766888        3       0.00219094       0.00221937      -0.02373944
Pt       7.01803445       0.81037243      19.95766851        3       0.00138576       0.00386794      -0.02615470
Pt       2.80721413       3.24149135      19.95766844        3       0.00241208       0.00408873      -0.02251586
Pt       5.61442751       3.24149134      19.95766853        3       0.00513866       0.00442769      -0.02628265
Pt       8.42164211       3.24149148      19.95766852        3      -0.00128326       0.00342293      -0.02413530
Pt       4.21082074       5.67261030      19.95766878        3       0.00316812       0.00103656      -0.02491038
Pt       7.01803477       5.67261047      19.95766871        3       0.00174556       0.00323706      -0.02488477
Pt       9.82524854       5.67261039      19.95766860        3       0.00080084       0.00250753      -0.02400778
Pt       0.00000046       1.62074540      22.29208304        2      -0.00326352      -0.00461471       0.04085865
Pt       2.80721419       1.62074531      22.29208311        2      -0.00522597      -0.00737766       0.03243767
Pt       5.61442748       1.62074566      22.29208290        2      -0.00165961      -0.01105136       0.04211058
Pt       1.40360675       4.05186459      22.29208313        2       0.00559987      -0.00437965       0.02813283
Pt       4.21082083       4.05186449      22.29208278        2      -0.01888830      -0.00254704       0.02799244
Pt       7.01803481       4.05186460      22.29208288        2      -0.00149048      -0.01791611       0.02638375
Pt       2.80721463       6.48298242      22.29208276        2      -0.00707036      -0.00923420       0.04735483
Pt       5.61442775       6.48298327      22.29208278        2      -0.00324946       0.00302280       0.02345018
Pt       8.42164096       6.48298261      22.29208273        2      -0.00185915      -0.00047717       0.03108228
Pt      -0.00362046      -0.00892590      24.63223960        1      -0.01464218       0.00529762      -0.00273996
Pt       2.80225653      -0.00825482      24.63482671        1      -0.00181524       0.00236616      -0.01552432
Pt       5.60467539      -0.01312823      24.63624693        1       0.02163135       0.02354325      -0.01758186
Pt       1.40098084       2.42593623      24.63349610        1      -0.02151093      -0.02257200      -0.00413854
Pt       4.20373539       2.42629647      24.63195101        1       0.01533949      -0.02309056       0.00202016
Pt       7.01014215       2.41644127      24.63625661        1       0.00966943       0.01809469      -0.02597402
Pt       2.79975219       4.85381073      24.64017671        1       0.01097243       0.01188007      -0.02985170
Pt       5.60846223       4.85435879      24.62735882        1       0.00384497      -0.00447843       0.01486359
Pt       8.41589158       4.84881970      24.63059705        1      -0.00464745       0.01801132       0.00323858
C        7.06645310       4.93136341      29.53766721        0       0.00028322       0.00020858      -0.03562255
H        6.46861448       5.61291482      30.16187170        0       0.02693950      -0.00693572       0.03012760
H        7.68475599       4.28096504      30.17502858        0      -0.02670073       0.00795530       0.03110667
H        7.72186562       5.51914615      28.87747087        0      -0.01000343       0.00959962      -0.01512421
H        6.39064075       4.31234665      28.92856948        0       0.00994437      -0.01081533      -0.01407587
