32
Lattice="8.421641763931781 0.0 0.0 4.2108208819658905 7.293355709136913 0.0 0.0 0.0 44.584161137365626" Properties=species:S:1:pos:R:3:tags:I:1:forces:R:3 charge=0 spin=0 energy=-161.4835535001132 free_energy=-161.4835535001132 stress="0.01230553723871708 6.195574314915575e-06 6.90746855980251e-06 6.195574314915575e-06 0.012336347252130508 -4.237009306962136e-06 6.90746855980251e-06 -4.237009306962136e-06 -0.00013766091433353722" pbc="T T T"
Pt       1.40360727       0.81037244      19.95766877        3      -0.00202647       0.00460342      -0.02343675
Pt       4.21082123       0.81037256      19.95766888        3      -0.00169280       0.00590707      -0.02452245
Pt       7.01803445       0.81037243      19.95766851        3      -0.00332788       0.00622497      -0.02433842
Pt       2.80721413       3.24149135      19.95766844        3      -0.00070649       0.00531317      -0.02453182
Pt       5.61442751       3.24149134      19.95766853        3      -0.00243915       0.00539433      -0.02359480
Pt       8.42164211       3.24149148      19.95766852        3      -0.00388847       0.00566608      -0.02446070
Pt       4.21082074       5.67261030      19.95766878        3      -0.00176317       0.00386678      -0.02509183
Pt       7.01803477       5.67261047      19.95766871        3      -0.00304921       0.00421631      -0.02492387
Pt       9.82524854       5.67261039      19.95766860        3      -0.00254743       0.00537315      -0.02480328
Pt       0.00000046       1.62074540      22.29208304        2       0.00810790      -0.01276572       0.03304969
Pt       2.80721419       1.62074531      22.29208311        2       0.00154140      -0.01141484       0.03190743
Pt       5.61442748       1.62074566      22.29208290        2       0.00647414      -0.01146942       0.02772093
Pt       1.40360675       4.05186459      22.29208313        2       0.00489434      -0.01292003       0.02983426
Pt       4.21082083       4.05186449      22.29208278        2       0.00316187      -0.01152037       0.02606102
Pt       7.01803481       4.05186460      22.29208288        2       0.00687293      -0.01173529       0.02671267
Pt       2.80721463       6.48298242      22.29208276        2       0.00721163      -0.01134672       0.02997392
Pt       5.61442775       6.48298327      22.29208278        2       0.00532635      -0.00571249       0.03155920
Pt       8.42164096       6.48298261      22.29208273        2       0.00530749      -0.00971687       0.02872227
Pt       0.00783645      -0.01639643      24.63396818        1      -0.00070550       0.00624529      -0.00604299
Pt       2.81591525      -0.01659693      24.63367436        1      -0.00635492       0.00550652      -0.00465455
Pt       5.62282985      -0.01612047      24.63219312        1      -0.00347887       0.00291747       0.00044690
Pt       1.41181028       2.41455631      24.63378936        1      -0.00162473       0.00406153      -0.00781650
Pt       4.21858333       2.41421178      24.63306652        1       0.00008497       0.00676735      -0.00743923
Pt       7.02697816       2.41420829      24.63372089        1      -0.00574788       0.00685898      -0.00985998
Pt       2.81610782       4.84501868      24.63237911        1      -0.00785217       0.00939986      -0.00314047
Pt       5.62234414       4.84641007      24.63207171        1      -0.00200772       0.00266792      -0.00526672
Pt       8.42932076       4.84527094      24.63195793        1       0.00122692       0.00828869      -0.00134296
C        5.58873956       3.29915612      29.55818888        0      -0.00433943      -0.00456140       0.03622735
H        6.46097421       3.06179568      30.18833288        0      -0.03024404       0.00848414      -0.01932993
H        4.72367508       3.53131289      30.20011066        0       0.03179746      -0.00841258      -0.01882344
H        5.35107464       2.43427481      28.92033180        0      -0.00103896      -0.00352009       0.00118922
H        5.81859716       4.16878029      28.92435930        0       0.00282767       0.00733277       0.00001574
