32
Lattice="8.421641763931781 0.0 0.0 4.2108208819658905 7.293355709136913 0.0 0.0 0.0 44.584161137365626" Properties=species:S:1:pos:R:3:tags:I:1:forces:R:3 charge=0 spin=0 energy=-161.48165568822355 free_energy=-161.48165568822355 stress="0.012300848960876465 -4.28281600761693e-06 -1.7503902199678123e-05 -4.28281600761693e-06 0.012225707992911339 1.1238196748308837e-05 -1.7503902199678123e-05 1.1238196748308837e-05 -0.00022928997350391" pbc="T T T"
Pt       1.40360727       0.81037244      19.95766877        3       0.00065784      -0.00506915      -0.02311226
Pt       4.21082123       0.81037256      19.95766888        3       0.00395529      -0.00402142      -0.02288104
Pt       7.01803445       0.81037243      19.95766851        3       0.00221109      -0.00447740      -0.02500812
Pt       2.80721413       3.24149135      19.95766844        3       0.00380401      -0.00569480      -0.02422086
Pt       5.61442751       3.24149134      19.95766853        3       0.00232349      -0.00557082      -0.02350225
Pt       8.42164211       3.24149148      19.95766852        3       0.00133424      -0.00568165      -0.02543780
Pt       4.21082074       5.67261030      19.95766878        3       0.00285251      -0.00661276      -0.02426185
Pt       7.01803477       5.67261047      19.95766871        3       0.00144611      -0.00784275      -0.02327265
Pt       9.82524854       5.67261039      19.95766860        3       0.00291432      -0.00575983      -0.02444442
Pt       0.00000046       1.62074540      22.29208304        2       0.00572093       0.00726690       0.01774863
Pt       2.80721419       1.62074531      22.29208311        2      -0.00563761       0.01164295       0.03694953
Pt       5.61442748       1.62074566      22.29208290        2      -0.01509653       0.00889506       0.01158348
Pt       1.40360675       4.05186459      22.29208313        2      -0.00382108       0.01187938       0.02391758
Pt       4.21082083       4.05186449      22.29208278        2      -0.00731833       0.00922067       0.02757244
Pt       7.01803481       4.05186460      22.29208288        2      -0.00640413       0.02074137       0.00940101
Pt       2.80721463       6.48298242      22.29208276        2      -0.00477569       0.00818987       0.01852625
Pt       5.61442775       6.48298327      22.29208278        2      -0.00158913       0.01531840       0.02772949
Pt       8.42164096       6.48298261      22.29208273        2      -0.00837593       0.01620620       0.02267771
Pt      -0.00987044       0.01675632      24.63113441        1       0.01754133      -0.00078214       0.00729591
Pt       2.79825444       0.01767207      24.63358083        1       0.00238650       0.00227109      -0.00782557
Pt       5.60647638       0.01867617      24.63032121        1      -0.00587095      -0.01402112       0.00872809
Pt       1.39535270       2.45087140      24.63236683        1       0.01079148      -0.01877564      -0.00171776
Pt       4.20452964       2.44916699      24.63547430        1      -0.01909212      -0.00896457      -0.02179099
Pt       7.00960075       2.44842072      24.62541710        1       0.00892557      -0.00350268       0.02573740
Pt       2.79931389       4.88068009      24.63195165        1      -0.00123451      -0.01243025      -0.00060513
Pt       5.60644002       4.87975276      24.63316533        1      -0.00301179       0.00103777      -0.00868556
Pt       8.41155626       4.88036535      24.62976975        1       0.01460613      -0.00383477       0.01018950
C        5.60121436       3.21172374      29.33801553        0       0.00222832      -0.00250687      -0.01778144
H        6.22005743       4.00191611      29.78825976        0      -0.00328941       0.01615959       0.02477492
H        4.86203256       2.85419450      30.07115877        0       0.02283471      -0.00614918       0.01060406
H        6.24774149       2.37911410      29.02359748        0       0.00109931      -0.03279694       0.01602009
H        5.07706756       3.61332312      28.45904141        0      -0.02211615       0.02566558      -0.02490855
