32
Lattice="8.421641763931781 0.0 0.0 4.2108208819658905 7.293355709136913 0.0 0.0 0.0 44.584161137365626" Properties=species:S:1:pos:R:3:tags:I:1:forces:R:3 charge=0 spin=0 energy=-161.4838968228671 free_energy=-161.4838968228671 stress="0.01225494034588337 1.1932408597203903e-05 2.7425860480434494e-06 1.1932408597203903e-05 0.01226020697504282 1.773037041630232e-07 2.7425860480434494e-06 1.773037041630232e-07 -0.0002302944049006328" pbc="T T T"
Pt       1.40360727       0.81037244      19.95766877        3      -0.00167791       0.00082051      -0.02379548
Pt       4.21082123       0.81037256      19.95766888        3      -0.00249459       0.00053436      -0.02542495
Pt       7.01803445       0.81037243      19.95766851        3      -0.00334992       0.00077896      -0.02437949
Pt       2.80721413       3.24149135      19.95766844        3      -0.00230696      -0.00019494      -0.02590576
Pt       5.61442751       3.24149134      19.95766853        3      -0.00272215       0.00022386      -0.02534172
Pt       8.42164211       3.24149148      19.95766852        3      -0.00226093       0.00049277      -0.02262352
Pt       4.21082074       5.67261030      19.95766878        3      -0.00254432      -0.00090827      -0.02404593
Pt       7.01803477       5.67261047      19.95766871        3      -0.00236801       0.00036365      -0.02258081
Pt       9.82524854       5.67261039      19.95766860        3      -0.00267005      -0.00002632      -0.02271872
Pt       0.00000046       1.62074540      22.29208304        2       0.00607503       0.00462489       0.01499541
Pt       2.80721419       1.62074531      22.29208311        2       0.00137114      -0.00294107       0.01731654
Pt       5.61442748       1.62074566      22.29208290        2       0.00934194      -0.00233917       0.01724851
Pt       1.40360675       4.05186459      22.29208313        2      -0.00408886       0.00437650       0.03173851
Pt       4.21082083       4.05186449      22.29208278        2       0.00522683       0.00496230       0.01884468
Pt       7.01803481       4.05186460      22.29208288        2       0.01285184       0.00547914       0.03261296
Pt       2.80721463       6.48298242      22.29208276        2       0.00104642      -0.00306828       0.01661085
Pt       5.61442775       6.48298327      22.29208278        2       0.00969099      -0.00410535       0.01419901
Pt       8.42164096       6.48298261      22.29208273        2       0.00652717      -0.01076842       0.03152470
Pt       0.00873853      -0.00054629      24.62572124        1      -0.00671528       0.00016265       0.02468161
Pt       2.81644168      -0.00075270      24.63111711        1      -0.00660771      -0.00078265       0.00324244
Pt       5.62208790      -0.00138201      24.63122148        1      -0.00120318      -0.00001284       0.00225958
Pt       1.41152628       2.43192357      24.63137792        1      -0.00520178      -0.00345925       0.00170239
Pt       4.21891117       2.43075717      24.62677611        1      -0.00142072      -0.00031789       0.01994068
Pt       7.02615924       2.43123818      24.63097605        1      -0.00169410      -0.00003072       0.00355099
Pt       2.81390818       4.86073074      24.63132933        1       0.00114780       0.00689779       0.00187947
Pt       5.62336417       4.86185277      24.63173186        1      -0.00363557      -0.00053002      -0.00016701
Pt       8.42914621       4.86180967      24.64115215        1      -0.00032997      -0.00026416      -0.04233951
C        8.42581402       4.86303730      29.79950252        0      -0.00002875       0.00009946      -0.01980175
H        9.06834749       5.48822641      30.43657385        0       0.01478376       0.01268546       0.02187886
H        7.78218099       4.23321919      30.43088463        0      -0.01471319      -0.01279679       0.02168045
H        9.05340778       4.22297349      29.16190367        0       0.01235991      -0.01041178      -0.00847725
H        7.79931548       5.50775508      29.16552160        0      -0.01238901       0.01045572      -0.00830598
