32
Lattice="8.421641763931781 0.0 0.0 4.2108208819658905 7.293355709136913 0.0 0.0 0.0 44.584161137365626" Properties=species:S:1:pos:R:3:tags:I:1:forces:R:3 charge=0 spin=0 energy=-161.4837270688388 free_energy=-161.4837270688388 stress="0.012268614023923874 6.228144684428116e-06 5.750775358137616e-07 6.228144684428116e-06 0.012291799299418926 -2.9829491268174024e-06 5.750775358137616e-07 -2.9829491268174024e-06 -0.00018814345821738243" pbc="T T T"
Pt       1.40360727       0.81037244      19.95766877        3       0.00007651       0.00087328      -0.02367527
Pt       4.21082123       0.81037256      19.95766888        3      -0.00054486       0.00074939      -0.02377078
Pt       7.01803445       0.81037243      19.95766851        3       0.00031526       0.00317408      -0.02425657
Pt       2.80721413       3.24149135      19.95766844        3      -0.00024909       0.00278940      -0.02247888
Pt       5.61442751       3.24149134      19.95766853        3       0.00174990       0.00346617      -0.02425341
Pt       8.42164211       3.24149148      19.95766852        3      -0.00149713       0.00341853      -0.02470939
Pt       4.21082074       5.67261030      19.95766878        3       0.00152237       0.00145875      -0.02424429
Pt       7.01803477       5.67261047      19.95766871        3      -0.00023882       0.00118433      -0.02383287
Pt       9.82524854       5.67261039      19.95766860        3      -0.00128808       0.00148499      -0.02438787
Pt       0.00000046       1.62074540      22.29208304        2       0.00033398      -0.00699637       0.02265962
Pt       2.80721419       1.62074531      22.29208311        2       0.00162612      -0.00225370       0.02540842
Pt       5.61442748       1.62074566      22.29208290        2       0.00036611      -0.00539268       0.02348047
Pt       1.40360675       4.05186459      22.29208313        2       0.00468400      -0.00489896       0.02284461
Pt       4.21082083       4.05186449      22.29208278        2      -0.00637447      -0.00500226       0.02331329
Pt       7.01803481       4.05186460      22.29208288        2       0.00037234      -0.00692982       0.02165666
Pt       2.80721463       6.48298242      22.29208276        2      -0.00126038      -0.00547993       0.02810393
Pt       5.61442775       6.48298327      22.29208278        2      -0.00075249      -0.00270396       0.01953259
Pt       8.42164096       6.48298261      22.29208273        2       0.00192664      -0.00023991       0.02103371
Pt       0.00091025      -0.00690320      24.63143005        1      -0.00503133       0.00318083       0.00487762
Pt       2.80746086      -0.00682607      24.63171767        1      -0.00018520       0.00394870      -0.00082271
Pt       5.61377826      -0.00689594      24.63166807        1       0.00577331       0.00257909       0.00355894
Pt       1.40308291       2.42463738      24.63116913        1       0.00501418       0.00160433       0.00425003
Pt       4.21206218       2.42457004      24.63147334        1      -0.00585434       0.00108915       0.00301098
Pt       7.01832075       2.42433640      24.63190286        1      -0.00047626       0.00207943      -0.00120377
Pt       2.80756078       4.85530180      24.63362827        1      -0.00031789       0.00339575      -0.00271492
Pt       5.61359137       4.85545870      24.63084666        1       0.00504592       0.00172049      -0.00267052
Pt       8.42303190       4.85576704      24.63077949        1      -0.00478045       0.00170530      -0.00269878
C        7.01604813       4.86025252      29.36359565        0      -0.00012223      -0.00016634       0.02425322
H        7.57546720       5.56571338      29.99794313        0      -0.00928215      -0.01155874      -0.01156355
H        6.46431879       4.15188894      30.00143909        0       0.00910021       0.01168197      -0.01154812
H        7.71889481       4.30697158      28.72267971        0       0.00376038      -0.00056101       0.00035093
H        6.30547950       5.41637996      28.73372999        0      -0.00341216       0.00059977       0.00049690
