32
Lattice="8.421641763931781 0.0 0.0 4.2108208819658905 7.293355709136913 0.0 0.0 0.0 44.584161137365626" Properties=species:S:1:pos:R:3:tags:I:1:forces:R:3 charge=0 spin=0 energy=-161.48129424565764 free_energy=-161.48129424565764 stress="0.012177473865449429 2.1626708530675387e-06 1.081558139048866e-06 2.1626708530675387e-06 0.012208987027406693 -4.0639583858137485e-06 1.081558139048866e-06 -4.0639583858137485e-06 -0.0003168917028233409" pbc="T T T"
Pt       1.40360727       0.81037244      19.95766877        3      -0.00133994       0.00397183      -0.02344001
Pt       4.21082123       0.81037256      19.95766888        3      -0.00093232       0.00241227      -0.02388649
Pt       7.01803445       0.81037243      19.95766851        3      -0.00162963       0.00643070      -0.02524944
Pt       2.80721413       3.24149135      19.95766844        3      -0.00110409       0.00533593      -0.02197914
Pt       5.61442751       3.24149134      19.95766853        3      -0.00015126       0.00442336      -0.02373193
Pt       8.42164211       3.24149148      19.95766852        3      -0.00391997       0.00598449      -0.02348340
Pt       4.21082074       5.67261030      19.95766878        3      -0.00044665       0.00515722      -0.02398515
Pt       7.01803477       5.67261047      19.95766871        3      -0.00224369       0.00385529      -0.02305322
Pt       9.82524854       5.67261039      19.95766860        3      -0.00235149       0.00563657      -0.02253162
Pt       0.00000046       1.62074540      22.29208304        2       0.01096416      -0.01348699       0.01405955
Pt       2.80721419       1.62074531      22.29208311        2      -0.00214694      -0.00280798       0.02501102
Pt       5.61442748       1.62074566      22.29208290        2       0.00106964      -0.00685624       0.00339404
Pt       1.40360675       4.05186459      22.29208313        2       0.01691705      -0.01290479       0.01596134
Pt       4.21082083       4.05186449      22.29208278        2      -0.01192160      -0.01313502       0.01598575
Pt       7.01803481       4.05186460      22.29208288        2       0.00690672      -0.01320049      -0.01769123
Pt       2.80721463       6.48298242      22.29208276        2       0.00225522      -0.02181779       0.02036072
Pt       5.61442775       6.48298327      22.29208278        2      -0.00011867      -0.00574699      -0.00965691
Pt       8.42164096       6.48298261      22.29208273        2       0.00926910      -0.00239005      -0.00604036
Pt       0.00640973      -0.02046998      24.62669300        1      -0.01211364       0.03175412       0.02268321
Pt       2.81110027      -0.01842462      24.62667408        1       0.00063546       0.04080819       0.02237292
Pt       5.62112328      -0.01066542      24.62694433        1       0.00168570      -0.01908709       0.02329567
Pt       1.40426550       2.41896744      24.63253417        1       0.02664544      -0.01544116      -0.00423016
Pt       4.21610547       2.41339391      24.63056415        1      -0.01436212       0.01544332       0.00711217
Pt       7.02470652       2.42011094      24.62617076        1      -0.00361321      -0.02708516       0.02558424
Pt       2.81309425       4.84259633      24.63590318        1      -0.00545537       0.02407834      -0.01682063
Pt       5.62190283       4.84509962      24.62377617        1      -0.02654702       0.00939581       0.03990765
Pt       8.42780153       4.85135475      24.62467111        1       0.01388698      -0.01081773       0.03500181
C        7.12411911       5.03275747      29.62547557        0       0.00145241      -0.00221824      -0.01039183
H        7.85753508       4.49781601      30.24686763        0       0.00273365      -0.00834658       0.02573254
H        6.42784921       5.58967108      30.27028470        0       0.00326657       0.00553317       0.01604572
H        6.56148036       4.30859926      29.01868310        0      -0.01656829      -0.02324728      -0.01763070
H        7.65096272       5.73358614      28.96190587        0       0.00927772       0.02836885      -0.01870641
