32
Lattice="8.421641763931781 0.0 0.0 4.2108208819658905 7.293355709136913 0.0 0.0 0.0 44.584161137365626" Properties=species:S:1:pos:R:3:tags:I:1:forces:R:3 charge=0 spin=0 energy=-161.48355063909025 free_energy=-161.48355063909025 stress="0.012334376573562622 9.741548637975939e-06 -1.163651404567645e-06 9.741548637975939e-06 0.01230749674141407 8.700599209987558e-06 -1.163651404567645e-06 8.700599209987558e-06 -0.0001376692089252174" pbc="T T T"
Pt       1.40360727       0.81037244      19.95766877        3      -0.00297245      -0.00405800      -0.02344434
Pt       4.21082123       0.81037256      19.95766888        3      -0.00247370      -0.00347910      -0.02508150
Pt       7.01803445       0.81037243      19.95766851        3      -0.00424720      -0.00327252      -0.02452383
Pt       2.80721413       3.24149135      19.95766844        3      -0.00213835      -0.00476705      -0.02492298
Pt       5.61442751       3.24149134      19.95766853        3      -0.00344795      -0.00482974      -0.02359489
Pt       8.42164211       3.24149148      19.95766852        3      -0.00428140      -0.00442938      -0.02452508
Pt       4.21082074       5.67261030      19.95766878        3      -0.00295617      -0.00620638      -0.02446957
Pt       7.01803477       5.67261047      19.95766871        3      -0.00372509      -0.00600859      -0.02434896
Pt       9.82524854       5.67261039      19.95766860        3      -0.00338884      -0.00490928      -0.02479586
Pt       0.00000046       1.62074540      22.29208304        2       0.00909437       0.00707670       0.03189013
Pt       2.80721419       1.62074531      22.29208311        2       0.00230865       0.00751443       0.03152820
Pt       5.61442748       1.62074566      22.29208290        2       0.00840034       0.00852150       0.02605752
Pt       1.40360675       4.05186459      22.29208313        2       0.00578649       0.00949490       0.02873662
Pt       4.21082083       4.05186449      22.29208278        2       0.00672433       0.01184964       0.02675683
Pt       7.01803481       4.05186460      22.29208288        2       0.00669717       0.01135843       0.02776813
Pt       2.80721463       6.48298242      22.29208276        2       0.00872218       0.01071613       0.02982719
Pt       5.61442775       6.48298327      22.29208278        2       0.00699351       0.01340739       0.03304449
Pt       8.42164096       6.48298261      22.29208273        2       0.00625930       0.01194718       0.02996709
Pt       0.01024971       0.01542398      24.63378404        1      -0.00272115      -0.00347214      -0.00780346
Pt       2.81749961       0.01502277      24.63394938        1      -0.00506689      -0.00375846      -0.00595138
Pt       5.62489718       0.01635647      24.63238457        1      -0.00420379      -0.01151623      -0.00316865
Pt       1.41363700       2.44699629      24.63366703        1      -0.00160795      -0.00826588      -0.00461583
Pt       4.22057742       2.44593002      24.63207964        1      -0.00134319      -0.00309121      -0.00528260
Pt       7.02880636       2.44633658      24.63307526        1      -0.00590719      -0.00331094      -0.00749226
Pt       2.81807660       4.87740890      24.63196951        1      -0.00777528      -0.00310738      -0.00138592
Pt       5.62461335       4.87846302      24.63372875        1      -0.00306495      -0.00840185      -0.00989828
Pt       8.43141158       4.87761362      24.63219424        1      -0.00075290      -0.00447786       0.00044557
C        5.57732983       3.19040453      29.55822695        0       0.00615289      -0.00146131       0.03612025
H        5.80880724       2.32515873      30.20014622        0      -0.00859169       0.03169270      -0.01876828
H        5.34676926       4.06446123      30.18836813        0       0.00776846      -0.03038612      -0.01928314
H        4.70928890       2.95465502      28.92439255        0      -0.00782640      -0.00123301      -0.00000023
H        6.44516854       3.41702208      28.92036702        0       0.00358482       0.00086336       0.00121521
