32
Lattice="8.421641763931781 0.0 0.0 4.2108208819658905 7.293355709136913 0.0 0.0 0.0 44.584161137365626" Properties=species:S:1:pos:R:3:tags:I:1:forces:R:3 charge=0 spin=0 energy=-161.4821287106845 free_energy=-161.4821287106845 stress="0.012271438725292683 1.0794460649776738e-05 -6.356777362270805e-07 1.0794460649776738e-05 0.012296602129936218 -5.7265820032625925e-06 -6.356777362270805e-07 -5.7265820032625925e-06 -0.00020097929518669844" pbc="T T T"
Pt       1.40360727       0.81037244      19.95766877        3      -0.00007133       0.00271523      -0.02485483
Pt       4.21082123       0.81037256      19.95766888        3      -0.00048645       0.00047097      -0.02348590
Pt       7.01803445       0.81037243      19.95766851        3       0.00005753       0.00471279      -0.02472461
Pt       2.80721413       3.24149135      19.95766844        3      -0.00005046       0.00419528      -0.02174827
Pt       5.61442751       3.24149134      19.95766853        3       0.00176635       0.00409868      -0.02410513
Pt       8.42164211       3.24149148      19.95766852        3      -0.00171032       0.00518240      -0.02456774
Pt       4.21082074       5.67261030      19.95766878        3       0.00128964       0.00410045      -0.02444088
Pt       7.01803477       5.67261047      19.95766871        3      -0.00046449       0.00244064      -0.02467201
Pt       9.82524854       5.67261039      19.95766860        3      -0.00145856       0.00339791      -0.02389921
Pt       0.00000046       1.62074540      22.29208304        2       0.00075956      -0.01238445       0.02654797
Pt       2.80721419       1.62074531      22.29208311        2       0.00300881      -0.00467446       0.02761621
Pt       5.61442748       1.62074566      22.29208290        2      -0.00066155      -0.00261340       0.03404976
Pt       1.40360675       4.05186459      22.29208313        2       0.00846687      -0.01092460       0.00835357
Pt       4.21082083       4.05186449      22.29208278        2      -0.00451636      -0.01369191       0.02334225
Pt       7.01803481       4.05186460      22.29208288        2      -0.00430750      -0.01126268       0.01731914
Pt       2.80721463       6.48298242      22.29208276        2       0.00182662      -0.00910755       0.01871482
Pt       5.61442775       6.48298327      22.29208278        2      -0.00097311      -0.00729688       0.02619645
Pt       8.42164096       6.48298261      22.29208273        2       0.00007270       0.00568443       0.01581032
Pt      -0.00071051      -0.01528331      24.63184601        1       0.01338082       0.02472103       0.00235023
Pt       2.80554877      -0.00925782      24.63148519        1       0.00725345      -0.00544868      -0.00374168
Pt       5.61889440      -0.01062467      24.63106901        1      -0.02220879       0.01361867       0.00585656
Pt       1.40277381       2.42219873      24.63064037        1       0.00566697      -0.01557212       0.00847532
Pt       4.21008099       2.41876107      24.63485410        1       0.01310934       0.00036118      -0.01142970
Pt       7.02234199       2.42179794      24.63294281        1      -0.02127406      -0.00695962      -0.00831802
Pt       2.80758184       4.84910951      24.63257066        1       0.00596938       0.01021619       0.00555550
Pt       5.61212226       4.84696184      24.63093081        1       0.01976288       0.02185160       0.00035625
Pt       8.42529826       4.85513480      24.62542264        1      -0.02509319      -0.00774482       0.02478905
C        7.13572155       4.99451458      29.60703231        0       0.00078181       0.00276188      -0.00307971
H        7.85125069       4.52152477      30.29689016        0      -0.00820038      -0.00372724       0.01110205
H        6.43468224       5.62268165      30.17756938        0       0.00581328       0.00382420       0.01053119
H        6.57273316       4.21451814      29.07126685        0       0.02508313       0.01774724      -0.01355081
H        7.68451570       5.62078547      28.88675576        0      -0.02259261      -0.02069230      -0.01034812
