32
Lattice="8.421641763931781 0.0 0.0 4.2108208819658905 7.293355709136913 0.0 0.0 0.0 44.584161137365626" Properties=species:S:1:pos:R:3:tags:I:1:forces:R:3 charge=0 spin=0 energy=-161.48339805119963 free_energy=-161.48339805119963 stress="0.012308159843087196 -4.8279484872182366e-06 5.889514227419568e-07 -4.8279484872182366e-06 0.012306222692131996 -2.9821890166203957e-06 5.889514227419568e-07 -2.9821890166203957e-06 -0.000142736011184752" pbc="T T T"
Pt       1.40360727       0.81037244      19.95766877        3       0.00013155       0.00071357      -0.02416473
Pt       4.21082123       0.81037256      19.95766888        3       0.00001669       0.00075992      -0.02401382
Pt       7.01803445       0.81037243      19.95766851        3      -0.00017211       0.00297806      -0.02448833
Pt       2.80721413       3.24149135      19.95766844        3       0.00019190       0.00237599      -0.02264090
Pt       5.61442751       3.24149134      19.95766853        3       0.00172614       0.00288634      -0.02473587
Pt       8.42164211       3.24149148      19.95766852        3      -0.00186489       0.00317715      -0.02421577
Pt       4.21082074       5.67261030      19.95766878        3       0.00160789       0.00132609      -0.02451151
Pt       7.01803477       5.67261047      19.95766871        3      -0.00001329       0.00083105      -0.02427896
Pt       9.82524854       5.67261039      19.95766860        3      -0.00182155       0.00177547      -0.02441762
Pt       0.00000046       1.62074540      22.29208304        2       0.00259749      -0.00724520       0.02816131
Pt       2.80721419       1.62074531      22.29208311        2      -0.00038953      -0.00086796       0.02950235
Pt       5.61442748       1.62074566      22.29208290        2       0.00000981      -0.00483154       0.02662796
Pt       1.40360675       4.05186459      22.29208313        2       0.00588341      -0.00519840       0.02867381
Pt       4.21082083       4.05186449      22.29208278        2      -0.00754695      -0.00394520       0.02841584
Pt       7.01803481       4.05186460      22.29208288        2       0.00043022      -0.00531805       0.02440131
Pt       2.80721463       6.48298242      22.29208276        2       0.00050225      -0.00629219       0.03357224
Pt       5.61442775       6.48298327      22.29208278        2      -0.00295273      -0.00187213       0.02480134
Pt       8.42164096       6.48298261      22.29208273        2       0.00259207      -0.00050454       0.02411005
Pt       0.00084056      -0.00642151      24.63302040        1      -0.00357856       0.00322774      -0.00255031
Pt       2.80722312      -0.00586747      24.63180545        1       0.00032156       0.00215524      -0.00187639
Pt       5.61432313      -0.00622285      24.63262625        1       0.00227941       0.00243208      -0.00095316
Pt       1.40326426       2.42543947      24.63288036        1       0.00318000       0.00095310      -0.00322877
Pt       4.21153689       2.42532142      24.63242568        1      -0.00272570       0.00047966      -0.00164639
Pt       7.01848030       2.42465858      24.63200218        1      -0.00074592       0.00375406      -0.00220423
Pt       2.80744106       4.85597510      24.63479314        1       0.00045135       0.00341680      -0.01082800
Pt       5.61339480       4.85629145      24.63148859        1       0.00664957       0.00158642      -0.00360858
Pt       8.42322689       4.85628333      24.63147651        1      -0.00674682       0.00123419      -0.00335181
C        7.01955804       4.86087076      29.47769115        0      -0.00011636      -0.00014991       0.02783622
H        6.15916442       5.12578562      30.11322745        0       0.02907064      -0.00887045      -0.02349094
H        7.87513959       4.58532309      30.11520642        0      -0.02883917       0.00962501      -0.02371831
H        7.29128281       5.72296757      28.84959593        0      -0.00075895      -0.00146626       0.00964575
H        6.75260478       4.00935907      28.83335994        0       0.00063061       0.00087392       0.00917647
