32
Lattice="8.421641763931781 0.0 0.0 4.2108208819658905 7.293355709136913 0.0 0.0 0.0 44.584161137365626" Properties=species:S:1:pos:R:3:tags:I:1:forces:R:3 charge=0 spin=0 energy=-161.4814716290805 free_energy=-161.4814716290805 stress="0.012299241498112679 7.331430424528662e-06 1.5120015632419381e-05 7.331430424528662e-06 0.012223782949149609 1.3219047104939818e-05 1.5120015632419381e-05 1.3219047104939818e-05 -0.00023219759168568999" pbc="T T T"
Pt       1.40360727       0.81037244      19.95766877        3      -0.00172802      -0.00458869      -0.02300666
Pt       4.21082123       0.81037256      19.95766888        3      -0.00287837      -0.00447313      -0.02542315
Pt       7.01803445       0.81037243      19.95766851        3      -0.00494529      -0.00351090      -0.02289324
Pt       2.80721413       3.24149135      19.95766844        3      -0.00185835      -0.00579704      -0.02503167
Pt       5.61442751       3.24149134      19.95766853        3      -0.00328356      -0.00528853      -0.02354923
Pt       8.42164211       3.24149148      19.95766852        3      -0.00465727      -0.00531491      -0.02432841
Pt       4.21082074       5.67261030      19.95766878        3      -0.00251767      -0.00728230      -0.02341582
Pt       7.01803477       5.67261047      19.95766871        3      -0.00390366      -0.00627018      -0.02404713
Pt       9.82524854       5.67261039      19.95766860        3      -0.00378030      -0.00550576      -0.02432237
Pt       0.00000046       1.62074540      22.29208304        2       0.00623148       0.00926473       0.03613753
Pt       2.80721419       1.62074531      22.29208311        2      -0.00461546       0.00778389       0.01717729
Pt       5.61442748       1.62074566      22.29208290        2       0.01767614       0.00878750       0.01207797
Pt       1.40360675       4.05186459      22.29208313        2       0.00263883       0.01150190       0.02245606
Pt       4.21082083       4.05186449      22.29208278        2       0.00662022       0.01884045       0.00873414
Pt       7.01803481       4.05186460      22.29208288        2       0.00875895       0.01029958       0.02680369
Pt       2.80721463       6.48298242      22.29208276        2       0.01091207       0.01409454       0.02254192
Pt       5.61442775       6.48298327      22.29208278        2       0.00498249       0.01525312       0.02768699
Pt       8.42164096       6.48298261      22.29208273        2       0.00793092       0.00917383       0.01908366
Pt       0.01063902       0.01741281      24.63353864        1      -0.00229499       0.00191182      -0.00806368
Pt       2.81887366       0.01635069      24.63105059        1      -0.01848845      -0.00170337       0.00740503
Pt       5.62454705       0.01817504      24.63032166        1       0.00350186      -0.01283539       0.00851410
Pt       1.41411519       2.45073109      24.63223315        1      -0.01224356      -0.02013883      -0.00045598
Pt       4.22126320       2.44774703      24.62562635        1      -0.00745119      -0.00441381       0.02472875
Pt       7.02682539       2.44927230      24.63532257        1       0.01472299      -0.01127937      -0.02082337
Pt       2.81882278       4.87950662      24.62958093        1      -0.01370572      -0.00105989       0.01159019
Pt       5.62360502       4.87920167      24.63270603        1       0.00487591       0.00297389      -0.00716069
Pt       8.43135398       4.88005480      24.63218282        1       0.00023335      -0.01064644      -0.00130328
C        5.62114130       3.21674541      29.33613987        0      -0.00098890      -0.00194332      -0.01882695
H        6.36425739       2.84990529      30.06060270        0      -0.02214321      -0.00746736       0.01175820
H        5.00742274       4.00387619      29.79866520        0       0.00278287       0.01473705       0.02333959
H        4.97125998       2.38846187      29.01728618        0      -0.00213987      -0.03214595       0.01736588
H        6.13995659       3.62674134      28.45787228        0       0.02175575       0.02704290      -0.02474944
