32
Lattice="8.421641763931781 0.0 0.0 4.2108208819658905 7.293355709136913 0.0 0.0 0.0 44.584161137365626" Properties=species:S:1:pos:R:3:tags:I:1:forces:R:3 charge=0 spin=0 energy=-161.4831586789462 free_energy=-161.4831586789462 stress="0.012215790338814259 -2.4722268790355884e-05 -1.1942177025048295e-06 -2.4722268790355884e-05 0.012277871370315552 -1.0686119821912143e-05 -1.1942177025048295e-06 -1.0686119821912143e-05 -0.00023092248011380434" pbc="T T T"
Pt       1.40360727       0.81037244      19.95766877        3       0.00449406       0.00525503      -0.02403935
Pt       4.21082123       0.81037256      19.95766888        3       0.00468152       0.00462346      -0.02350602
Pt       7.01803445       0.81037243      19.95766851        3       0.00456469       0.00660584      -0.02440784
Pt       2.80721413       3.24149135      19.95766844        3       0.00419369       0.00579978      -0.02337210
Pt       5.61442751       3.24149134      19.95766853        3       0.00592457       0.00621511      -0.02402061
Pt       8.42164211       3.24149148      19.95766852        3       0.00360167       0.00602589      -0.02400572
Pt       4.21082074       5.67261030      19.95766878        3       0.00562031       0.00432758      -0.02395882
Pt       7.01803477       5.67261047      19.95766871        3       0.00458319       0.00379170      -0.02365316
Pt       9.82524854       5.67261039      19.95766860        3       0.00353266       0.00459546      -0.02407869
Pt       0.00000046       1.62074540      22.29208304        2      -0.01049651      -0.01356478       0.01952234
Pt       2.80721419       1.62074531      22.29208311        2      -0.00969500      -0.01186887       0.01801732
Pt       5.61442748       1.62074566      22.29208290        2      -0.00809784      -0.01082160       0.01872780
Pt       1.40360675       4.05186459      22.29208313        2      -0.00838648      -0.01215395       0.01292867
Pt       4.21082083       4.05186449      22.29208278        2      -0.01109447      -0.01124439       0.01780038
Pt       7.01803481       4.05186460      22.29208288        2      -0.01236692      -0.01351460       0.01784953
Pt       2.80721463       6.48298242      22.29208276        2      -0.00978577      -0.01064246       0.01709870
Pt       5.61442775       6.48298327      22.29208278        2      -0.01088804      -0.01174977       0.01658776
Pt       8.42164096       6.48298261      22.29208273        2      -0.00828255      -0.00780972       0.01348892
Pt      -0.01419352      -0.01761477      24.62987722        1       0.00494075       0.00718709       0.01069545
Pt       2.79296353      -0.01821612      24.63006617        1       0.00362940       0.01154777       0.00779500
Pt       5.60006635      -0.01727092      24.63013896        1       0.00766782       0.00695862       0.01231284
Pt       1.38893801       2.41393431      24.62993983        1       0.00861235       0.00283772       0.00701542
Pt       4.19676201       2.41342758      24.63022012        1       0.00516443       0.00677529       0.00754413
Pt       7.00372179       2.41373122      24.63234232        1       0.00530607       0.00499514      -0.00418837
Pt       2.79308970       4.84428862      24.63027037        1       0.00732730       0.00781078       0.01280597
Pt       5.60018530       4.84493095      24.63155243        1       0.00576701       0.00377061      -0.00069495
Pt       8.40819159       4.84525618      24.62951085        1       0.00087189       0.00307989       0.00668136
C        7.08353674       4.12797036      29.50657946        0       0.00522320       0.00254606       0.00531263
H        7.25418398       3.24875465      30.14697047        0      -0.00523393       0.00007428      -0.01343575
H        6.79923473       4.98691424      30.13390009        0      -0.00499782      -0.00254748      -0.01206556
H        6.27816280       3.91133454      28.78854380        0      -0.01615495      -0.00355068       0.01719551
H        8.00545571       4.36596590      28.95528052        0       0.01977376       0.00464511       0.00604730
