32
Lattice="8.421641763931781 0.0 0.0 4.2108208819658905 7.293355709136913 0.0 0.0 0.0 44.584161137365626" Properties=species:S:1:pos:R:3:tags:I:1:forces:R:3 charge=0 spin=0 energy=-161.48315581792326 free_energy=-161.48315581792326 stress="0.012208347208797932 2.0353256331873126e-05 2.951942860818235e-06 2.0353256331873126e-05 0.012280193157494068 -9.413976840733085e-06 2.951942860818235e-06 -9.413976840733085e-06 -0.00023461945238523185" pbc="T T T"
Pt       1.40360727       0.81037244      19.95766877        3      -0.00368381       0.00570816      -0.02356650
Pt       4.21082123       0.81037256      19.95766888        3      -0.00363369       0.00603643      -0.02412279
Pt       7.01803445       0.81037243      19.95766851        3      -0.00343040       0.00751055      -0.02439109
Pt       2.80721413       3.24149135      19.95766844        3      -0.00328035       0.00682147      -0.02338838
Pt       5.61442751       3.24149134      19.95766853        3      -0.00236530       0.00703090      -0.02392712
Pt       8.42164211       3.24149148      19.95766852        3      -0.00477462       0.00705563      -0.02393766
Pt       4.21082074       5.67261030      19.95766878        3      -0.00256013       0.00537932      -0.02400788
Pt       7.01803477       5.67261047      19.95766871        3      -0.00362547       0.00501399      -0.02356431
Pt       9.82524854       5.67261039      19.95766860        3      -0.00457002       0.00550165      -0.02401291
Pt       0.00000046       1.62074540      22.29208304        2       0.00735112      -0.01382525       0.01922577
Pt       2.80721419       1.62074531      22.29208311        2       0.00859537      -0.01305427       0.01772340
Pt       5.61442748       1.62074566      22.29208290        2       0.00995358      -0.01306115       0.01873489
Pt       1.40360675       4.05186459      22.29208313        2       0.00694807      -0.01319870       0.01628583
Pt       4.21082083       4.05186449      22.29208278        2       0.00479044      -0.01425216       0.01328574
Pt       7.01803481       4.05186460      22.29208288        2       0.00990742      -0.01554448       0.01772925
Pt       2.80721463       6.48298242      22.29208276        2       0.00768813      -0.01275160       0.01563046
Pt       5.61442775       6.48298327      22.29208278        2       0.00767710      -0.01161934       0.01210839
Pt       8.42164096       6.48298261      22.29208273        2       0.00986222      -0.01202779       0.01596260
Pt       0.01227755      -0.01973707      24.62977384        1      -0.00691075       0.00932060       0.01347995
Pt       2.81920841      -0.02070218      24.62992091        1      -0.00415568       0.01252748       0.00852245
Pt       5.62634885      -0.01995369      24.62952890        1      -0.00411069       0.00758479       0.01261687
Pt       1.41558959       2.41122087      24.63015020        1      -0.00535279       0.00646799       0.00799748
Pt       4.22323812       2.41127540      24.63009570        1      -0.00710455       0.00416359       0.00647903
Pt       7.02982155       2.41150208      24.63250450        1      -0.00307829       0.00514179      -0.00474778
Pt       2.81922365       4.84199513      24.62997977        1      -0.00578293       0.00804645       0.01426461
Pt       5.62574211       4.84277141      24.62967431        1      -0.00014791       0.00326657       0.00621807
Pt       8.43390447       4.84242215      24.63135049        1      -0.00576341       0.00534481       0.00010274
C        6.96298520       4.14341094      29.51112970        0      -0.00512210       0.00169431       0.00728111
H        7.24254577       4.98380327      30.16531763        0       0.00449183      -0.00402179      -0.01506976
H        6.78479057       3.24680138      30.12482422        0       0.00551900       0.00071369      -0.01361034
H        7.77499313       3.94655589      28.79489626        0       0.01755390      -0.00311079       0.01806562
H        6.04653458       4.39729645      28.95784171        0      -0.02088535       0.00613718       0.00663235
