32
Lattice="8.421641763931781 0.0 0.0 4.2108208819658905 7.293355709136913 0.0 0.0 0.0 44.584161137365626" Properties=species:S:1:pos:R:3:tags:I:1:forces:R:3 charge=0 spin=0 energy=-161.48266181462736 free_energy=-161.48266181462736 stress="0.01225489191710949 -1.702143890724983e-05 -9.384064469486475e-06 -1.702143890724983e-05 0.012240428477525711 -5.773006705567241e-06 -9.384064469486475e-06 -5.773006705567241e-06 -0.00023527095618192106" pbc="T T T"
Pt       1.40360727       0.81037244      19.95766877        3       0.00650915      -0.00162030      -0.02332706
Pt       4.21082123       0.81037256      19.95766888        3       0.00838398      -0.00025350      -0.02363713
Pt       7.01803445       0.81037243      19.95766851        3       0.00728915      -0.00032975      -0.02445227
Pt       2.80721413       3.24149135      19.95766844        3       0.00887335      -0.00193155      -0.02371558
Pt       5.61442751       3.24149134      19.95766853        3       0.00766860      -0.00175975      -0.02344904
Pt       8.42164211       3.24149148      19.95766852        3       0.00586055      -0.00208049      -0.02463941
Pt       4.21082074       5.67261030      19.95766878        3       0.00832103      -0.00262094      -0.02402127
Pt       7.01803477       5.67261047      19.95766871        3       0.00633069      -0.00342193      -0.02369890
Pt       9.82524854       5.67261039      19.95766860        3       0.00764545      -0.00166618      -0.02354601
Pt       0.00000046       1.62074540      22.29208304        2      -0.01306372       0.00121240       0.01049131
Pt       2.80721419       1.62074531      22.29208311        2      -0.01587569       0.00366487       0.01658036
Pt       5.61442748       1.62074566      22.29208290        2      -0.01925921       0.00039320       0.01384895
Pt       1.40360675       4.05186459      22.29208313        2      -0.01619583       0.00634558       0.01739388
Pt       4.21082083       4.05186449      22.29208278        2      -0.01844023       0.00329216       0.01795419
Pt       7.01803481       4.05186460      22.29208288        2      -0.01489374       0.00758379       0.01198109
Pt       2.80721463       6.48298242      22.29208276        2      -0.01862351      -0.00018088       0.01750085
Pt       5.61442775       6.48298327      22.29208278        2      -0.01476342       0.00345970       0.01434919
Pt       8.42164096       6.48298261      22.29208273        2      -0.01393982       0.00341778       0.01765008
Pt      -0.02472351       0.00500432      24.62901153        1       0.00916883      -0.00444435       0.01718888
Pt       2.78286565       0.00480860      24.62913995        1       0.00949003      -0.00102383       0.01304017
Pt       5.58987495       0.00605825      24.63072999        1       0.00925456      -0.01091852       0.00466349
Pt       1.37943648       2.43643641      24.62914171        1       0.01092065      -0.00189923       0.01576932
Pt       4.18671820       2.43606938      24.63192405        1       0.00572645      -0.00086771      -0.00162400
Pt       6.99431184       2.43625278      24.62851217        1       0.00608625      -0.00231708       0.01113949
Pt       2.78326671       4.86686453      24.63116026        1       0.00458369       0.00256793       0.00323888
Pt       5.59034559       4.86712603      24.63100689        1       0.00486377      -0.00038707       0.00168199
Pt       8.39637552       4.86664177      24.63068723        1       0.01670558       0.00454895       0.00649629
C        5.71344696       3.22283841      29.46273862        0       0.00253729       0.00040946       0.03929030
H        6.31912854       3.89758467      30.08938508        0      -0.02997188      -0.02090769      -0.03206569
H        5.03511351       2.63687965      30.10408626        0       0.02087494       0.02847535      -0.03157035
H        6.37749506       2.54113708      28.91107625        0       0.02107575      -0.02166322       0.00547880
H        5.12510079       3.81298679      28.74386486        0      -0.01314285       0.01492293       0.02400895
