32
Lattice="8.421641763931781 0.0 0.0 4.2108208819658905 7.293355709136913 0.0 0.0 0.0 44.584161137365626" Properties=species:S:1:pos:R:3:tags:I:1:forces:R:3 charge=0 spin=0 energy=-161.48165664189787 free_energy=-161.48165664189787 stress="0.01224036980420351 -2.976132236653939e-05 3.49225928175656e-07 -2.976132236653939e-05 0.012285915203392506 -2.1380075850174762e-05 3.49225928175656e-07 -2.1380075850174762e-05 -0.00022950375569052994" pbc="T T T"
Pt       1.40360727       0.81037244      19.95766877        3       0.00406431       0.00310969      -0.02311463
Pt       4.21082123       0.81037256      19.95766888        3       0.00429430       0.00577121      -0.02424247
Pt       7.01803445       0.81037243      19.95766851        3       0.00303729       0.00614983      -0.02420604
Pt       2.80721413       3.24149135      19.95766844        3       0.00606090       0.00516519      -0.02326891
Pt       5.61442751       3.24149134      19.95766853        3       0.00367135       0.00479111      -0.02350466
Pt       8.42164211       3.24149148      19.95766852        3       0.00149464       0.00543369      -0.02288698
Pt       4.21082074       5.67261030      19.95766878        3       0.00426233       0.00399921      -0.02545209
Pt       7.01803477       5.67261047      19.95766871        3       0.00277258       0.00414638      -0.02502020
Pt       9.82524854       5.67261039      19.95766860        3       0.00352206       0.00539742      -0.02443261
Pt       0.00000046       1.62074540      22.29208304        2      -0.00732014      -0.01068547       0.03686974
Pt       2.80721419       1.62074531      22.29208311        2      -0.01243065      -0.00901331       0.02764706
Pt       5.61442748       1.62074566      22.29208290        2      -0.00433457      -0.01097794       0.02756416
Pt       1.40360675       4.05186459      22.29208313        2      -0.00983974      -0.01532588       0.02266480
Pt       4.21082083       4.05186449      22.29208278        2      -0.01477123      -0.01592420       0.00939175
Pt       7.01803481       4.05186460      22.29208288        2      -0.00014708      -0.01753908       0.01160422
Pt       2.80721463       6.48298242      22.29208276        2      -0.00842579      -0.00926053       0.02388318
Pt       5.61442775       6.48298327      22.29208278        2      -0.00915066       0.00128506       0.01767068
Pt       8.42164096       6.48298261      22.29208273        2      -0.00466549      -0.00824795       0.01851469
Pt      -0.01298389      -0.01702545      24.63234109        1       0.01084601       0.01874093      -0.00161628
Pt       2.79764344      -0.01692792      24.63110365        1      -0.00811873       0.01556581       0.00746489
Pt       5.60240123      -0.01606181      24.63196487        1       0.01138692       0.00518394      -0.00063108
Pt       1.39278583       2.41452191      24.63354701        1      -0.00314597       0.00092294      -0.00785085
Pt       4.19964799       2.41544379      24.63316997        1       0.00058169      -0.00314558      -0.00868378
Pt       7.00554421       2.41664819      24.63547598        1       0.01735658      -0.01202278      -0.02179282
Pt       2.79655746       4.84443687      24.62977940        1      -0.00399088       0.01456575       0.01012512
Pt       5.60365666       4.84628127      24.62541625        1      -0.00143541       0.00948551       0.02589590
Pt       8.40944265       4.84600921      24.63032567        1       0.01512852       0.00195899       0.00870810
C        5.64681747       3.24492862      29.33818338        0       0.00102441       0.00318403      -0.01779030
H        4.65306305       3.38576948      29.78841323        0      -0.01232223      -0.01094920       0.02475701
H        6.32602294       2.78352847      30.07133190        0      -0.00608690       0.02283238       0.01062498
H        6.04462830       4.22114489      29.02378967        0       0.02785607       0.01735790       0.01599508
H        5.56110716       2.59021642      28.45919830        0      -0.01117461      -0.03195497      -0.02488774
