32
Lattice="8.421641763931781 0.0 0.0 4.2108208819658905 7.293355709136913 0.0 0.0 0.0 44.584161137365626" Properties=species:S:1:pos:R:3:tags:I:1:forces:R:3 charge=0 spin=0 energy=-161.48129043096037 free_energy=-161.48129043096037 stress="0.012287337332963943 -3.303000994492322e-05 7.446089966833824e-07 -3.303000994492322e-05 0.012288839556276798 -3.857546289509628e-06 7.446089966833824e-07 -3.857546289509628e-06 -0.0002016112266574055" pbc="T T T"
Pt       1.40360727       0.81037244      19.95766877        3       0.00665182       0.00222087      -0.02568097
Pt       4.21082123       0.81037256      19.95766888        3       0.00822540       0.00148958      -0.02217553
Pt       7.01803445       0.81037243      19.95766851        3       0.00955484       0.00277313      -0.02443059
Pt       2.80721413       3.24149135      19.95766844        3       0.00639818       0.00049922      -0.02431454
Pt       5.61442751       3.24149134      19.95766853        3       0.00953180       0.00192785      -0.02516072
Pt       8.42164211       3.24149148      19.95766852        3       0.00744638       0.00144815      -0.02569387
Pt       4.21082074       5.67261030      19.95766878        3       0.01000660       0.00032905      -0.02403615
Pt       7.01803477       5.67261047      19.95766871        3       0.00827932      -0.00086039      -0.02339226
Pt       9.82524854       5.67261039      19.95766860        3       0.00725638      -0.00033929      -0.02308957
Pt       0.00000046       1.62074540      22.29208304        2      -0.01777536      -0.01139223       0.00788713
Pt       2.80721419       1.62074531      22.29208311        2      -0.00748830      -0.00095949       0.02087745
Pt       5.61442748       1.62074566      22.29208290        2      -0.02674568      -0.01031821       0.01780272
Pt       1.40360675       4.05186459      22.29208313        2      -0.01278192       0.00465863       0.01661154
Pt       4.21082083       4.05186449      22.29208278        2      -0.01797965       0.00012777       0.03145589
Pt       7.01803481       4.05186460      22.29208288        2      -0.02053440       0.00484222       0.02871383
Pt       2.80721463       6.48298242      22.29208276        2      -0.02237683      -0.00429070       0.03135490
Pt       5.61442775       6.48298327      22.29208278        2      -0.01969738      -0.01027286       0.01925799
Pt       8.42164096       6.48298261      22.29208273        2      -0.01267698       0.00150547       0.02108032
Pt      -0.02610174      -0.00647405      24.63051438        1       0.00289390       0.00775259       0.00777470
Pt       2.77898712      -0.00380318      24.62909816        1       0.02199140      -0.00234681       0.01621359
Pt       5.58498198      -0.00379158      24.63484143        1       0.02278703      -0.00325962      -0.00950173
Pt       1.37655649       2.42688203      24.62600282        1       0.01587325       0.00458114       0.02255677
Pt       4.18729346       2.43018920      24.63355440        1      -0.00521829      -0.01178087      -0.00583930
Pt       6.98999369       2.42363854      24.62662109        1       0.02024304       0.02294768       0.02147405
Pt       2.78202774       4.85737718      24.63427339        1       0.00595686       0.00706483      -0.00453534
Pt       5.58882865       4.85838197      24.63623301        1       0.01380687      -0.00163103      -0.01784643
Pt       8.39894188       4.86023384      24.63166284        1      -0.01352235      -0.00955661      -0.00323184
C        7.43553560       4.14491524      29.66915189        0       0.03444073      -0.02576523       0.00907213
H        6.67949519       3.36039402      29.50717023        0       0.02408220       0.02030835       0.01960998
H        7.89117164       4.02338828      30.66450855        0      -0.03854467      -0.00901883      -0.00413824
H        6.95914495       5.13446875      29.60230962        0      -0.00210233       0.00656499      -0.00548933
H        8.22109191       4.06140016      28.90266161        0      -0.01798170       0.01075044      -0.02318657
