32
Lattice="8.421641763931781 0.0 0.0 4.2108208819658905 7.293355709136913 0.0 0.0 0.0 44.584161137365626" Properties=species:S:1:pos:R:3:tags:I:1:forces:R:3 charge=0 spin=0 energy=-161.482663721976 free_energy=-161.482663721976 stress="0.012228519655764103 2.312564674866735e-06 1.0201412806054577e-05 2.312564674866735e-06 0.012266825884580612 -7.113918400136754e-06 1.0201412806054577e-05 -7.113918400136754e-06 -0.00023531944316346198" pbc="T T T"
Pt       1.40360727       0.81037244      19.95766877        3      -0.00184924       0.00645655      -0.02332767
Pt       4.21082123       0.81037256      19.95766888        3      -0.00189384       0.00850914      -0.02400844
Pt       7.01803445       0.81037243      19.95766851        3      -0.00276042       0.00865639      -0.02370861
Pt       2.80721413       3.24149135      19.95766844        3      -0.00021241       0.00718910      -0.02370030
Pt       5.61442751       3.24149134      19.95766853        3      -0.00230306       0.00751089      -0.02344754
Pt       8.42164211       3.24149148      19.95766852        3      -0.00397824       0.00738870      -0.02363842
Pt       4.21082074       5.67261030      19.95766878        3      -0.00112844       0.00611723      -0.02464868
Pt       7.01803477       5.67261047      19.95766871        3      -0.00335200       0.00647011      -0.02445621
Pt       9.82524854       5.67261039      19.95766860        3      -0.00238647       0.00744466      -0.02354909
Pt       0.00000046       1.62074540      22.29208304        2       0.00475280      -0.01557682       0.01655908
Pt       2.80721419       1.62074531      22.29208311        2       0.00439288      -0.01452544       0.01432183
Pt       5.61442748       1.62074566      22.29208290        2       0.00637036      -0.01761172       0.01789121
Pt       1.40360675       4.05186459      22.29208313        2       0.00401118      -0.01375389       0.01765336
Pt       4.21082083       4.05186449      22.29208278        2       0.00090574      -0.01667551       0.01200015
Pt       7.01803481       4.05186460      22.29208288        2       0.00927517      -0.01686219       0.01388645
Pt       2.80721463       6.48298242      22.29208276        2       0.00262280      -0.01719463       0.01736785
Pt       5.61442775       6.48298327      22.29208278        2       0.00549071      -0.01193521       0.01054399
Pt       8.42164096       6.48298261      22.29208273        2       0.00944150      -0.01603669       0.01751508
Pt       0.00748920      -0.02358010      24.62914521        1      -0.00384485       0.01035282       0.01575381
Pt       2.81523972      -0.02390497      24.62901758        1      -0.00074109       0.01010789       0.01719128
Pt       5.62239394      -0.02304142      24.63114516        1      -0.00450569       0.00269787       0.00330841
Pt       1.41161964       2.40763680      24.62912930        1      -0.00387011       0.00871602       0.01307959
Pt       4.21862459       2.40782242      24.63100410        1      -0.00210975       0.00441557       0.00169860
Pt       7.02579788       2.40778211      24.63191816        1      -0.00206369       0.00541859      -0.00159656
Pt       2.81603895       4.83816133      24.63068981        1      -0.01230934       0.01217628       0.00645431
Pt       5.62184935       4.83912135      24.62852816        1      -0.00105556       0.00647705       0.01107423
Pt       8.42867444       4.83795429      24.63073185        1       0.00486024       0.01350107       0.00464530
C        5.58106671       3.33657335      29.46290666        0      -0.00164460       0.00198037       0.03930124
H        6.42769031       3.04209344      30.10424890        0      -0.03511756       0.00382845      -0.03151448
H        4.69387380       3.52373364      30.08954761        0       0.03312362      -0.01552698      -0.03202229
H        5.36415771       2.53197911      28.74402848        0      -0.00634406      -0.01880619       0.02397324
H        5.83941713       4.25251434      28.91126088        0       0.00822347       0.02909058       0.00539927
