32
Lattice="8.421641763931781 0.0 0.0 4.2108208819658905 7.293355709136913 0.0 0.0 0.0 44.584161137365626" Properties=species:S:1:pos:R:3:tags:I:1:forces:R:3 charge=0 spin=0 energy=-161.48446807378264 free_energy=-161.48446807378264 stress="0.012284880504012108 -5.8421392168384045e-06 -4.4224682937965554e-07 -5.8421392168384045e-06 0.012268021702766418 6.905769822651564e-08 -4.4224682937965554e-07 6.905769822651564e-08 -0.00019167063874192536" pbc="T T T"
Pt       1.40360727       0.81037244      19.95766877        3       0.00104587       0.00046025      -0.02419355
Pt       4.21082123       0.81037256      19.95766888        3       0.00046278      -0.00169810      -0.02446087
Pt       7.01803445       0.81037243      19.95766851        3      -0.00043523       0.00042725      -0.02398460
Pt       2.80721413       3.24149135      19.95766844        3      -0.00120170       0.00071295      -0.02406741
Pt       5.61442751       3.24149134      19.95766853        3       0.00180540       0.00060287      -0.02409461
Pt       8.42164211       3.24149148      19.95766852        3       0.00015622       0.00033279      -0.02416355
Pt       4.21082074       5.67261030      19.95766878        3       0.00018947      -0.00078695      -0.02426955
Pt       7.01803477       5.67261047      19.95766871        3       0.00076619      -0.00025143      -0.02426361
Pt       9.82524854       5.67261039      19.95766860        3      -0.00029962      -0.00011338      -0.02416668
Pt       0.00000046       1.62074540      22.29208304        2       0.00070869       0.00175356       0.02320108
Pt       2.80721419       1.62074531      22.29208311        2      -0.00299231      -0.00206667       0.02337698
Pt       5.61442748       1.62074566      22.29208290        2       0.00185285      -0.00081159       0.02181595
Pt       1.40360675       4.05186459      22.29208313        2       0.00276789      -0.00255337       0.02400206
Pt       4.21082083       4.05186449      22.29208278        2      -0.00127442       0.00284746       0.02298542
Pt       7.01803481       4.05186460      22.29208288        2      -0.00443173      -0.00126184       0.02332309
Pt       2.80721463       6.48298242      22.29208276        2      -0.00209673      -0.00043914       0.02324931
Pt       5.61442775       6.48298327      22.29208278        2       0.00062276      -0.00144040       0.02390783
Pt       8.42164096       6.48298261      22.29208273        2      -0.00066475       0.00448262       0.02375708
Pt      -0.00098363       0.00008428      24.62968881        1       0.00087638      -0.00008635       0.01006961
Pt       2.80599831       0.00033746      24.63264272        1       0.00202152      -0.00250778      -0.00386659
Pt       5.61372914       0.00037596      24.63236989        1      -0.00153613      -0.00341507      -0.00277877
Pt       1.40297105       2.43117098      24.63270599        1      -0.00234305       0.00164782      -0.00410156
Pt       4.20994359       2.43125983      24.62902092        1      -0.00021688       0.00013702       0.01171000
Pt       7.01675602       2.43091111      24.63240873        1       0.00329012       0.00254251      -0.00257190
Pt       2.80663724       4.86227768      24.63264021        1      -0.00248706       0.00035748      -0.00323742
Pt       5.61334932       4.86234411      24.63262952        1       0.00324743       0.00075125      -0.00330894
Pt       8.42076949       4.86227585      24.62999068        1       0.00018402       0.00043569       0.00386818
C        8.42084163       4.86403425      29.82524049        0       0.00005405      -0.00004659       0.02096135
H        9.29015577       4.63270645      30.46037525        0      -0.01103560       0.00385132      -0.01002006
H        7.55342021       5.09763287      30.46213202        0       0.01103702      -0.00388036      -0.01012983
H        8.18839748       3.99569210      29.19082689        0      -0.00415216      -0.01322160       0.00078518
H        8.65140638       5.73009277      29.18703188        0       0.00407884       0.01323789       0.00066637
