32
Lattice="8.421641763931781 0.0 0.0 4.2108208819658905 7.293355709136913 0.0 0.0 0.0 44.584161137365626" Properties=species:S:1:pos:R:3:tags:I:1:forces:R:3 charge=0 spin=0 energy=-161.48164996617766 free_energy=-161.48164996617766 stress="0.012240376323461533 -2.9767121304757893e-05 3.6545563375511847e-07 -2.9767121304757893e-05 0.012285924516618252 -2.1379302779678255e-05 3.6545563375511847e-07 -2.1379302779678255e-05 -0.00022947543766349554" pbc="T T T"
Pt       1.40360727       0.81037244      19.95766877        3       0.00406405       0.00311028      -0.02311306
Pt       4.21082123       0.81037256      19.95766888        3       0.00429494       0.00577107      -0.02424103
Pt       7.01803445       0.81037243      19.95766851        3       0.00303645       0.00614988      -0.02420740
Pt       2.80721413       3.24149135      19.95766844        3       0.00606062       0.00516496      -0.02326930
Pt       5.61442751       3.24149134      19.95766853        3       0.00367130       0.00479132      -0.02350589
Pt       8.42164211       3.24149148      19.95766852        3       0.00149484       0.00543359      -0.02288719
Pt       4.21082074       5.67261030      19.95766878        3       0.00426220       0.00399895      -0.02545165
Pt       7.01803477       5.67261047      19.95766871        3       0.00277278       0.00414565      -0.02501967
Pt       9.82524854       5.67261039      19.95766860        3       0.00352193       0.00539760      -0.02443329
Pt       0.00000046       1.62074540      22.29208304        2      -0.00731569      -0.01068543       0.03687145
Pt       2.80721419       1.62074531      22.29208311        2      -0.01243404      -0.00901608       0.02764752
Pt       5.61442748       1.62074566      22.29208290        2      -0.00433460      -0.01097940       0.02756163
Pt       1.40360675       4.05186459      22.29208313        2      -0.00983973      -0.01532716       0.02266931
Pt       4.21082083       4.05186449      22.29208278        2      -0.01476880      -0.01592219       0.00939345
Pt       7.01803481       4.05186460      22.29208288        2      -0.00014906      -0.01753662       0.01160721
Pt       2.80721463       6.48298242      22.29208276        2      -0.00842635      -0.00926013       0.02388187
Pt       5.61442775       6.48298327      22.29208278        2      -0.00914839       0.00128508       0.01767163
Pt       8.42164096       6.48298261      22.29208273        2      -0.00466759      -0.00824683       0.01851798
Pt      -0.01298339      -0.01702587      24.63234215        1       0.01084685       0.01874760      -0.00161408
Pt       2.79764269      -0.01692799      24.63110468        1      -0.00811354       0.01556674       0.00745738
Pt       5.60240129      -0.01606234      24.63196514        1       0.01138575       0.00518678      -0.00063045
Pt       1.39278617       2.41452210      24.63354812        1      -0.00315150       0.00092301      -0.00785850
Pt       4.19964693       2.41544347      24.63316758        1       0.00058978      -0.00314149      -0.00867610
Pt       7.00554533       2.41664759      24.63547304        1       0.01735161      -0.01201656      -0.02178809
Pt       2.79655762       4.84443741      24.62977951        1      -0.00399591       0.01455853       0.01012593
Pt       5.60365655       4.84628235      24.62541751        1      -0.00143271       0.00947438       0.02588810
Pt       8.40944254       4.84600951      24.63032550        1       0.01512860       0.00195632       0.00870663
C        5.64681724       3.24492884      29.33820247        0       0.00108019       0.00313114      -0.01777353
H        6.32602258       2.78352712      30.07135195        0      -0.00612696       0.02285105       0.01058498
H        4.65306229       3.38576919      29.78843130        0      -0.01234473      -0.01094686       0.02476864
H        5.56110875       2.59021790      28.45921588        0      -0.01117121      -0.03194069      -0.02486917
H        6.04462945       4.22114464      29.02381271        0       0.02785887       0.01737558       0.01598474
