32
Lattice="8.421641763931781 0.0 0.0 4.2108208819658905 7.293355709136913 0.0 0.0 0.0 44.584161137365626" Properties=species:S:1:pos:R:3:tags:I:1:forces:R:3 charge=0 spin=0 energy=-161.47904166692229 free_energy=-161.47904166692229 stress="0.012343907728791237 -6.547992234118283e-05 -1.9214059648220427e-05 -6.547992234118283e-05 0.01233628485351801 -1.9428007362876087e-05 -1.9214059648220427e-05 -1.9428007362876087e-05 -0.00010909203410847113" pbc="T T T"
Pt       1.40360727       0.81037244      19.95766877        3       0.01213085      -0.00127711      -0.02204432
Pt       4.21082123       0.81037256      19.95766888        3       0.01639031      -0.00032101      -0.02453011
Pt       7.01803445       0.81037243      19.95766851        3       0.01312546      -0.00122925      -0.02593379
Pt       2.80721413       3.24149135      19.95766844        3       0.01635247      -0.00047849      -0.02411365
Pt       5.61442751       3.24149134      19.95766853        3       0.01606673      -0.00066495      -0.02515725
Pt       8.42164211       3.24149148      19.95766852        3       0.01208295       0.00044066      -0.02570470
Pt       4.21082074       5.67261030      19.95766878        3       0.01458015      -0.00406144      -0.02572972
Pt       7.01803477       5.67261047      19.95766871        3       0.01343270      -0.00244200      -0.02481038
Pt       9.82524854       5.67261039      19.95766860        3       0.01413414      -0.00177402      -0.02699537
Pt       0.00000046       1.62074540      22.29208304        2      -0.01212098      -0.00609887       0.03383349
Pt       2.80721419       1.62074531      22.29208311        2      -0.03574619      -0.00042727       0.04578874
Pt       5.61442748       1.62074566      22.29208290        2      -0.03947572      -0.00451285       0.02262399
Pt       1.40360675       4.05186459      22.29208313        2      -0.02748403      -0.00217444       0.04421506
Pt       4.21082083       4.05186449      22.29208278        2      -0.04205789       0.00279113       0.03099939
Pt       7.01803481       4.05186460      22.29208288        2      -0.02875268       0.00326283       0.01671171
Pt       2.80721463       6.48298242      22.29208276        2      -0.02614497       0.00109138       0.04422970
Pt       5.61442775       6.48298327      22.29208278        2      -0.02535629       0.01207368       0.04494597
Pt       8.42164096       6.48298261      22.29208273        2      -0.03578689       0.00620301       0.04081677
Pt      -0.04362386       0.00219057      24.63794708        1       0.00834148      -0.00613441      -0.02186811
Pt       2.76112505       0.00777872      24.63945458        1       0.01227382      -0.02199034      -0.02943830
Pt       5.56576131       0.00454059      24.63391459        1       0.01914303      -0.01268020      -0.00604101
Pt       1.35861795       2.43555141      24.63927469        1       0.01559031      -0.00137223      -0.02613975
Pt       4.16415217       2.43843408      24.63539165        1       0.01067916      -0.01575846      -0.01514404
Pt       6.97549565       2.42640446      24.62786441        1      -0.00147914       0.03530430       0.01974346
Pt       2.75695043       4.86938594      24.63701398        1       0.02710712      -0.01359481      -0.02257057
Pt       5.56808345       4.86286132      24.63095256        1       0.01116689       0.01835686      -0.00158072
Pt       8.36991055       4.86340977      24.63220568        1       0.04104628       0.01611261      -0.00067440
C        5.61674412       3.45626474      29.42682797        0       0.02967910      -0.00830904       0.02974956
H        5.33387314       2.39365959      29.39477349        0      -0.00970675      -0.01850360      -0.02385637
H        5.25702755       3.89809698      30.36865883        0      -0.00567511       0.02431091      -0.01064401
H        5.16903197       3.98485741      28.57215412        0      -0.01731486       0.00159358       0.00736812
H        6.71280894       3.54347329      29.37728180        0       0.00377849       0.00226371       0.00195047
