32
Lattice="8.421641763931781 0.0 0.0 4.2108208819658905 7.293355709136913 0.0 0.0 0.0 44.584161137365626" Properties=species:S:1:pos:R:3:tags:I:1:forces:R:3 charge=0 spin=0 energy=-161.48129519933195 free_energy=-161.48129519933195 stress="0.01217744778841734 2.162763848900795e-06 1.0779458534670994e-06 2.162763848900795e-06 0.012208973988890648 -4.063056621816941e-06 1.0779458534670994e-06 -4.063056621816941e-06 -0.0003169172559864819" pbc="T T T"
Pt       1.40360727       0.81037244      19.95766877        3      -0.00134071       0.00397227      -0.02343938
Pt       4.21082123       0.81037256      19.95766888        3      -0.00093274       0.00241206      -0.02388545
Pt       7.01803445       0.81037243      19.95766851        3      -0.00162878       0.00643109      -0.02524806
Pt       2.80721413       3.24149135      19.95766844        3      -0.00110392       0.00533577      -0.02197698
Pt       5.61442751       3.24149134      19.95766853        3      -0.00015075       0.00442440      -0.02373195
Pt       8.42164211       3.24149148      19.95766852        3      -0.00391993       0.00598474      -0.02348333
Pt       4.21082074       5.67261030      19.95766878        3      -0.00044566       0.00515774      -0.02398619
Pt       7.01803477       5.67261047      19.95766871        3      -0.00224490       0.00385520      -0.02305361
Pt       9.82524854       5.67261039      19.95766860        3      -0.00235128       0.00563640      -0.02253077
Pt       0.00000046       1.62074540      22.29208304        2       0.01096262      -0.01348907       0.01404758
Pt       2.80721419       1.62074531      22.29208311        2      -0.00214362      -0.00280711       0.02500093
Pt       5.61442748       1.62074566      22.29208290        2       0.00106867      -0.00685987       0.00339015
Pt       1.40360675       4.05186459      22.29208313        2       0.01691841      -0.01290176       0.01595443
Pt       4.21082083       4.05186449      22.29208278        2      -0.01192278      -0.01313569       0.01598496
Pt       7.01803481       4.05186460      22.29208288        2       0.00690499      -0.01320058      -0.01769530
Pt       2.80721463       6.48298242      22.29208276        2       0.00225045      -0.02181811       0.02036110
Pt       5.61442775       6.48298327      22.29208278        2      -0.00011872      -0.00575050      -0.00965928
Pt       8.42164096       6.48298261      22.29208273        2       0.00927239      -0.00238804      -0.00604521
Pt       0.00640914      -0.02047045      24.62669247        1      -0.01211015       0.03174835       0.02269158
Pt       2.81109985      -0.01842365      24.62667192        1       0.00063195       0.04079844       0.02238100
Pt       5.62112195      -0.01066494      24.62694485        1       0.00169596      -0.01909609       0.02329041
Pt       1.40426546       2.41896764      24.63253078        1       0.02664365      -0.01544079      -0.00421477
Pt       4.21610662       2.41339248      24.63056439        1      -0.01436791       0.01545213       0.00711421
Pt       7.02470689       2.42010891      24.62616966        1      -0.00361571      -0.02707523       0.02559293
Pt       2.81309413       4.84259622      24.63590292        1      -0.00545722       0.02408019      -0.01682175
Pt       5.62190263       4.84509723      24.62377639        1      -0.02654639       0.00940686       0.03990487
Pt       8.42780022       4.85135577      24.62466924        1       0.01388998      -0.01082303       0.03500705
C        7.12411728       5.03275366      29.62540001        0       0.00142658      -0.00221066      -0.01044519
H        6.42785233       5.58967567      30.27020822        0       0.00327337       0.00552451       0.01604402
H        7.85752654       4.49780412      30.24679297        0       0.00274276      -0.00834866       0.02574133
H        7.65096813       5.73357690      28.96183045        0       0.00927363       0.02835372      -0.01868496
H        6.56147095       4.30860138      29.01860693        0      -0.01655420      -0.02322871      -0.01760446
