32
Lattice="8.421641763931781 0.0 0.0 4.2108208819658905 7.293355709136913 0.0 0.0 0.0 44.584161137365626" Properties=species:S:1:pos:R:3:tags:I:1:forces:R:3 charge=0 spin=0 energy=-161.48325786107512 free_energy=-161.48325786107512 stress="0.012280822731554508 -1.1133765838167164e-05 -1.5816716540939524e-06 -1.1133765838167164e-05 0.01227740477770567 2.74695707958017e-07 -1.5816716540939524e-06 2.74695707958017e-07 -0.00017568172188475728" pbc="T T T"
Pt       1.40360727       0.81037244      19.95766877        3      -0.00026874       0.00097673      -0.02364084
Pt       4.21082123       0.81037256      19.95766888        3       0.00016624      -0.00130004      -0.02294073
Pt       7.01803445       0.81037243      19.95766851        3       0.00100164       0.00105947      -0.02515197
Pt       2.80721413       3.24149135      19.95766844        3      -0.00024895       0.00201165      -0.02201506
Pt       5.61442751       3.24149134      19.95766853        3       0.00297688       0.00294845      -0.02359890
Pt       8.42164211       3.24149148      19.95766852        3      -0.00259181       0.00368946      -0.02495687
Pt       4.21082074       5.67261030      19.95766878        3       0.00257264       0.00104132      -0.02335871
Pt       7.01803477       5.67261047      19.95766871        3      -0.00058145       0.00110842      -0.02629603
Pt       9.82524854       5.67261039      19.95766860        3      -0.00223464      -0.00030569      -0.02475523
Pt       0.00000046       1.62074540      22.29208304        2       0.00409006      -0.00984080       0.02706437
Pt       2.80721419       1.62074531      22.29208311        2       0.00190266       0.00147406       0.02779815
Pt       5.61442748       1.62074566      22.29208290        2      -0.00689842      -0.00305736       0.03331257
Pt       1.40360675       4.05186459      22.29208313        2       0.00927317      -0.00175766       0.02090072
Pt       4.21082083       4.05186449      22.29208278        2      -0.00905260      -0.00459274       0.02675152
Pt       7.01803481       4.05186460      22.29208288        2      -0.00109523      -0.01480220       0.01083833
Pt       2.80721463       6.48298242      22.29208276        2       0.00068463       0.00021197       0.03839153
Pt       5.61442775       6.48298327      22.29208278        2      -0.00776882      -0.00236061       0.02358004
Pt       8.42164096       6.48298261      22.29208273        2       0.00750437       0.01069578       0.02061693
Pt       0.00391681      -0.00468057      24.63558865        1      -0.01599044      -0.00206301      -0.01375149
Pt       2.80408843      -0.00467742      24.63011895        1       0.01641207       0.01239217       0.00406948
Pt       5.61541090      -0.00166319      24.63443586        1      -0.01007702      -0.00987845      -0.01060379
Pt       1.40267531       2.43250707      24.63184598        1       0.00395208      -0.02229177       0.00206087
Pt       4.20612632       2.42947958      24.63431070        1       0.02050944      -0.01615857      -0.00992616
Pt       7.01939811       2.41977294      24.63218807        1      -0.00920800       0.02951457      -0.00009673
Pt       2.80814191       4.86201721      24.63479000        1      -0.00348170      -0.00672030      -0.00821298
Pt       5.61727035       4.85049141      24.62977309        1      -0.02205007       0.03290560       0.00205797
Pt       8.41899527       4.86034513      24.62610586        1       0.01988006      -0.00397783       0.01643713
C        6.99672243       4.93116069      29.31956406        0      -0.00305692      -0.00040116       0.01907075
H        6.52197734       4.15269609      29.93553068        0      -0.01043833      -0.02715004      -0.01147575
H        7.44898403       5.68573946      29.98060383        0       0.01356054       0.02522535      -0.01157061
H        6.23691643       5.40751077      28.68128735        0       0.01186132      -0.00417157       0.00336683
H        7.77782922       4.47857066      28.68974247        0      -0.01130489       0.00557483       0.00603464
