32
Lattice="8.421641763931781 0.0 0.0 4.2108208819658905 7.293355709136913 0.0 0.0 0.0 44.584161137365626" Properties=species:S:1:pos:R:3:tags:I:1:forces:R:3 charge=0 spin=0 energy=-161.4818273496005 free_energy=-161.4818273496005 stress="0.012219332158565521 -6.239852154976688e-07 -1.91504739177617e-07 -6.239852154976688e-07 0.012328225187957287 -1.2788626008841675e-05 -1.91504739177617e-07 -1.2788626008841675e-05 -0.00020890840096399188" pbc="T T T"
Pt       1.40360727       0.81037244      19.95766877        3       0.00190951       0.00975131      -0.02385165
Pt       4.21082123       0.81037256      19.95766888        3       0.00110340       0.00967651      -0.02385727
Pt       7.01803445       0.81037243      19.95766851        3       0.00204810       0.01240919      -0.02448291
Pt       2.80721413       3.24149135      19.95766844        3       0.00152336       0.01209096      -0.02230011
Pt       5.61442751       3.24149134      19.95766853        3       0.00359699       0.01266832      -0.02451967
Pt       8.42164211       3.24149148      19.95766852        3       0.00015716       0.01257882      -0.02488375
Pt       4.21082074       5.67261030      19.95766878        3       0.00317121       0.01057786      -0.02452648
Pt       7.01803477       5.67261047      19.95766871        3       0.00149427       0.01043805      -0.02403844
Pt       9.82524854       5.67261039      19.95766860        3       0.00064010       0.01063826      -0.02451431
Pt       0.00000046       1.62074540      22.29208304        2      -0.00403711      -0.02512040       0.02069781
Pt       2.80721419       1.62074531      22.29208311        2      -0.00193536      -0.02173544       0.02149425
Pt       5.61442748       1.62074566      22.29208290        2      -0.00228194      -0.02392227       0.02091273
Pt       1.40360675       4.05186459      22.29208313        2       0.00160381      -0.02456898       0.02038950
Pt       4.21082083       4.05186449      22.29208278        2      -0.01056316      -0.02471502       0.02014509
Pt       7.01803481       4.05186460      22.29208288        2      -0.00294222      -0.02724065       0.02052615
Pt       2.80721463       6.48298242      22.29208276        2      -0.00521637      -0.02539711       0.02383391
Pt       5.61442775       6.48298327      22.29208278        2      -0.00316394      -0.02109649       0.01685428
Pt       8.42164096       6.48298261      22.29208273        2      -0.00259692      -0.01911168       0.01865430
Pt      -0.00429803      -0.03721917      24.63082087        1      -0.00055059       0.01485882       0.00999940
Pt       2.80280244      -0.03620370      24.63206853        1       0.00088912       0.00862128      -0.00073070
Pt       5.60926084      -0.03721861      24.63128621        1       0.00634715       0.01309935       0.00828361
Pt       1.39853848       2.39412118      24.63094595        1       0.00388877       0.01415018       0.00774981
Pt       4.20736537       2.39398692      24.63120225        1      -0.00298577       0.01432985       0.00720617
Pt       7.01335152       2.39403834      24.63249786        1       0.00308484       0.01472003      -0.00247529
Pt       2.80291974       4.82478082      24.63384594        1       0.00063407       0.01375103      -0.00135076
Pt       5.60847228       4.82569394      24.63017807        1       0.01084927       0.00922677       0.00142769
Pt       8.41867938       4.82587322      24.63030038        1      -0.00672270       0.00948785       0.00040469
C        7.00896618       4.87098106      29.34656068        0      -0.00010381       0.00030142       0.01573884
H        7.50659130       5.62138454      29.98070581        0      -0.00865395      -0.00885880      -0.01330153
H        6.51371191       4.12251271      29.98484742        0       0.00914254       0.00865238      -0.01400600
H        7.75684341       4.37522520      28.70948753        0       0.00580558      -0.00537803       0.00748602
H        6.25863023       5.36483984      28.71090608        0      -0.00613525       0.00511657       0.00703482
