32
Lattice="8.421641763931781 0.0 0.0 4.2108208819658905 7.293355709136913 0.0 0.0 0.0 44.584161137365626" Properties=species:S:1:pos:R:3:tags:I:1:forces:R:3 charge=0 spin=0 energy=-161.4790426205966 free_energy=-161.4790426205966 stress="0.012396520003676414 3.619466588133946e-05 -7.6065339271735866e-06 3.619466588133946e-05 0.012284094467759132 2.946418317151256e-05 -7.6065339271735866e-06 2.946418317151256e-05 -0.00010881826892727986" pbc="T T T"
Pt       1.40360727       0.81037244      19.95766877        3      -0.00718070      -0.00986833      -0.02203898
Pt       4.21082123       0.81037256      19.95766888        3      -0.00566292      -0.01069703      -0.02569738
Pt       7.01803445       0.81037243      19.95766851        3      -0.00882545      -0.01041767      -0.02479565
Pt       2.80721413       3.24149135      19.95766844        3      -0.00761412      -0.01073704      -0.02594238
Pt       5.61442751       3.24149134      19.95766853        3      -0.00859389      -0.01357602      -0.02516145
Pt       8.42164211       3.24149148      19.95766852        3      -0.01080937      -0.01057415      -0.02571950
Pt       4.21082074       5.67261030      19.95766878        3      -0.00845731      -0.01404154      -0.02455475
Pt       7.01803477       5.67261047      19.95766871        3      -0.00859164      -0.01393591      -0.02412693
Pt       9.82524854       5.67261039      19.95766860        3      -0.00859581      -0.01136273      -0.02699952
Pt       0.00000046       1.62074540      22.29208304        2       0.02315314       0.01589411       0.04502019
Pt       2.80721419       1.62074531      22.29208311        2       0.00075394       0.01352496       0.03397369
Pt       5.61442748       1.62074566      22.29208290        2       0.01719178       0.02322692       0.01679802
Pt       1.40360675       4.05186459      22.29208313        2       0.01400185       0.02203404       0.04431093
Pt       4.21082083       4.05186449      22.29208278        2       0.01578324       0.03635364       0.02261995
Pt       7.01803481       4.05186460      22.29208288        2       0.02350004       0.03497906       0.03097253
Pt       2.80721463       6.48298242      22.29208276        2       0.02321619       0.02795407       0.04089256
Pt       5.61442775       6.48298327      22.29208278        2       0.01749460       0.03128154       0.04574929
Pt       8.42164096       6.48298261      22.29208273        2       0.01189808       0.02492444       0.04431318
Pt       0.02977152       0.03601266      24.63948043        1      -0.02517838       0.00052423      -0.02945704
Pt       2.83352360       0.03673783      24.63929992        1      -0.00889634      -0.01270338      -0.02618222
Pt       5.64129779       0.04422173      24.63224958        1      -0.00656825      -0.04353720      -0.00096215
Pt       1.42731418       2.46780196      24.63798473        1      -0.00945475      -0.00423335      -0.02193469
Pt       4.22799765       2.47030261      24.62789055        1       0.03132780      -0.01637342       0.01961447
Pt       7.04176534       2.47093047      24.63095835        1       0.01016707      -0.01888627      -0.00171656
Pt       2.83545496       4.90210733      24.63390751        1      -0.02055428      -0.01021327      -0.00598069
Pt       5.64407111       4.89898677      24.63532778        1      -0.01893112      -0.00141743      -0.01488573
Pt       8.45295922       4.90220020      24.63701866        1      -0.02536895      -0.01678930      -0.02268997
C        5.79925631       3.13210441      29.42656531        0      -0.02185965      -0.02145374       0.02962609
H        5.02045827       3.90838633      29.39454950        0      -0.01123073       0.01776090      -0.02380419
H        6.36178971       3.22267179      30.36837362        0       0.02378582      -0.00729211      -0.01050052
H        6.48088180       3.25558008      28.57189482        0       0.01001373       0.01417131       0.00724375
H        5.32673731       2.13929225      29.37696595        0       0.00008633      -0.00451924       0.00201584
