32
Lattice="8.421641763931781 0.0 0.0 4.2108208819658905 7.293355709136913 0.0 0.0 0.0 44.584161137365626" Properties=species:S:1:pos:R:3:tags:I:1:forces:R:3 charge=0 spin=0 energy=-161.4842801999423 free_energy=-161.4842801999423 stress="0.012264403514564037 7.153510068746982e-06 2.5422666567465058e-06 7.153510068746982e-06 0.01228255033493042 -2.06776576305856e-06 2.5422666567465058e-06 -2.06776576305856e-06 -0.00021283485693857074" pbc="T T T"
Pt       1.40360727       0.81037244      19.95766877        3      -0.00111952       0.00216999      -0.02413045
Pt       4.21082123       0.81037256      19.95766888        3      -0.00164394       0.00183053      -0.02496895
Pt       7.01803445       0.81037243      19.95766851        3      -0.00217232       0.00228527      -0.02429048
Pt       2.80721413       3.24149135      19.95766844        3      -0.00161312       0.00193588      -0.02542001
Pt       5.61442751       3.24149134      19.95766853        3      -0.00170857       0.00218817      -0.02523343
Pt       8.42164211       3.24149148      19.95766852        3      -0.00152781       0.00268062      -0.02327568
Pt       4.21082074       5.67261030      19.95766878        3      -0.00161962       0.00124364      -0.02391584
Pt       7.01803477       5.67261047      19.95766871        3      -0.00123481       0.00153851      -0.02319873
Pt       9.82524854       5.67261039      19.95766860        3      -0.00196858       0.00141006      -0.02324750
Pt       0.00000046       1.62074540      22.29208304        2       0.00421315      -0.00322347       0.01950213
Pt       2.80721419       1.62074531      22.29208311        2       0.00252637      -0.00495524       0.02281880
Pt       5.61442748       1.62074566      22.29208290        2       0.00501900      -0.00438248       0.02238816
Pt       1.40360675       4.05186459      22.29208313        2      -0.00228332      -0.00160297       0.02723590
Pt       4.21082083       4.05186449      22.29208278        2       0.00315088      -0.00247780       0.02310635
Pt       7.01803481       4.05186460      22.29208288        2       0.00840605      -0.00057889       0.02740470
Pt       2.80721463       6.48298242      22.29208276        2       0.00246710      -0.00408241       0.01874997
Pt       5.61442775       6.48298327      22.29208278        2       0.00411895      -0.00515289       0.01873575
Pt       8.42164096       6.48298261      22.29208273        2       0.00466957      -0.00983865       0.02750585
Pt       0.00560086      -0.00624148      24.62897208        1      -0.00226802       0.00298168       0.01048967
Pt       2.81326316      -0.00667929      24.63115093        1      -0.00440094       0.00594840       0.00352514
Pt       5.61973437      -0.00697692      24.63128173        1      -0.00208252       0.00614773       0.00338754
Pt       1.40826248       2.42613910      24.63129693        1       0.00150518      -0.00255410       0.00265472
Pt       4.21627242       2.42481580      24.62965740        1      -0.00223970       0.00286948       0.00542543
Pt       7.02387347       2.42597625      24.63108561        1      -0.00406971      -0.00229060       0.00434568
Pt       2.81142891       4.85590533      24.63114308        1       0.00481515       0.00262051       0.00373426
Pt       5.62101818       4.85599372      24.63137636        1      -0.00784555       0.00248818       0.00235088
Pt       8.42691706       4.85646815      24.63787227        1      -0.00121234       0.00081151      -0.02712607
C        8.42275693       4.85719448      29.82984638        0      -0.00021540       0.00004992      -0.02469761
H        8.19966081       3.98812324      30.46630553        0      -0.00272309      -0.00715885       0.02364815
H        8.64382703       5.73096273      30.46055743        0       0.00263079       0.00730105       0.02367438
H        7.55293382       5.07650879      29.19260410        0      -0.00259672       0.00009884      -0.01044821
H        9.29460392       4.63318897      29.19704460        0       0.00302367      -0.00030150      -0.01073034
