32
Lattice="8.421641763931781 0.0 0.0 4.2108208819658905 7.293355709136913 0.0 0.0 0.0 44.584161137365626" Properties=species:S:1:pos:R:3:tags:I:1:forces:R:3 charge=0 spin=0 energy=-161.48362979405852 free_energy=-161.48362979405852 stress="0.012328348122537136 2.1363945052144118e-05 4.977173375664279e-06 2.1363945052144118e-05 0.012283778749406338 6.667960406048223e-06 4.977173375664279e-06 6.667960406048223e-06 -0.00015604057989548892" pbc="T T T"
Pt       1.40360727       0.81037244      19.95766877        3      -0.00508191      -0.00466968      -0.02350415
Pt       4.21082123       0.81037256      19.95766888        3      -0.00382448      -0.00448391      -0.02374298
Pt       7.01803445       0.81037243      19.95766851        3      -0.00408772      -0.00266802      -0.02443539
Pt       2.80721413       3.24149135      19.95766844        3      -0.00419520      -0.00395084      -0.02392478
Pt       5.61442751       3.24149134      19.95766853        3      -0.00277291      -0.00352420      -0.02451049
Pt       8.42164211       3.24149148      19.95766852        3      -0.00620681      -0.00345018      -0.02477612
Pt       4.21082074       5.67261030      19.95766878        3      -0.00301944      -0.00489357      -0.02457262
Pt       7.01803477       5.67261047      19.95766871        3      -0.00455695      -0.00613322      -0.02502790
Pt       9.82524854       5.67261039      19.95766860        3      -0.00583460      -0.00487885      -0.02489631
Pt       0.00000046       1.62074540      22.29208304        2       0.01196078       0.00386207       0.02636149
Pt       2.80721419       1.62074531      22.29208311        2       0.00902516       0.01015793       0.02883829
Pt       5.61442748       1.62074566      22.29208290        2       0.00760375       0.00516661       0.02656806
Pt       1.40360675       4.05186459      22.29208313        2       0.01233216       0.01096749       0.02877075
Pt       4.21082083       4.05186449      22.29208278        2       0.00292198       0.01022845       0.02777568
Pt       7.01803481       4.05186460      22.29208288        2       0.01010940       0.01045910       0.02462138
Pt       2.80721463       6.48298242      22.29208276        2       0.00857729       0.00872919       0.03673180
Pt       5.61442775       6.48298327      22.29208278        2       0.00679551       0.01157493       0.02652008
Pt       8.42164096       6.48298261      22.29208273        2       0.01268915       0.01307253       0.02839966
Pt       0.01443133       0.01450449      24.63422615        1      -0.00887050      -0.00627153      -0.00550196
Pt       2.82117677       0.01392970      24.63195577        1      -0.00417329      -0.00191369      -0.00009391
Pt       5.62792003       0.01447183      24.63429795        1      -0.00123312      -0.00696625      -0.00694780
Pt       1.41718905       2.44596477      24.63217051        1      -0.00049055      -0.00784297      -0.00271083
Pt       4.22545567       2.44577827      24.63228218        1      -0.00957004      -0.00786423      -0.00291615
Pt       7.03219450       2.44461871      24.63137329        1      -0.00525404      -0.00137617      -0.00199026
Pt       2.82109786       4.87634551      24.63414760        1      -0.00328357      -0.00119703      -0.00797343
Pt       5.62748733       4.87691854      24.63171950        1      -0.00095925      -0.00621185      -0.00205782
Pt       8.43630982       4.87701584      24.63256075        1      -0.00697809      -0.00628981      -0.00524910
C        6.97522607       3.99637031      29.55314741        0      -0.00100238       0.00091967       0.00354336
H        6.12019553       3.78098821      30.21234124        0       0.00408893       0.00031610      -0.00186024
H        7.85565248       4.24747420      30.16453279        0      -0.00357421      -0.00073176      -0.00269185
H        6.72817050       4.84557821      28.89818287        0      -0.00199982       0.00494723      -0.00009867
H        7.19652560       3.11169431      28.93718344        0       0.00086469      -0.00508332       0.00135221
