32
Lattice="8.421641763931781 0.0 0.0 4.2108208819658905 7.293355709136913 0.0 0.0 0.0 44.584161137365626" Properties=species:S:1:pos:R:3:tags:I:1:forces:R:3 charge=0 spin=0 energy=-161.48200568669768 free_energy=-161.48200568669768 stress="0.01223811786621809 6.537109698001586e-07 4.56011821370339e-06 6.537109698001586e-07 0.012309735640883446 -1.0247206773783546e-05 4.56011821370339e-06 -1.0247206773783546e-05 -0.00019475753651931882" pbc="T T T"
Pt       1.40360727       0.81037244      19.95766877        3      -0.00025981       0.00783285      -0.02408884
Pt       4.21082123       0.81037256      19.95766888        3      -0.00089170       0.00783997      -0.02392498
Pt       7.01803445       0.81037243      19.95766851        3      -0.00090666       0.01026952      -0.02424769
Pt       2.80721413       3.24149135      19.95766844        3      -0.00048208       0.00974271      -0.02260727
Pt       5.61442751       3.24149134      19.95766853        3       0.00091755       0.01013222      -0.02461202
Pt       8.42164211       3.24149148      19.95766852        3      -0.00248255       0.01041751      -0.02398130
Pt       4.21082074       5.67261030      19.95766878        3       0.00066938       0.00839155      -0.02448956
Pt       7.01803477       5.67261047      19.95766871        3      -0.00074324       0.00833998      -0.02415960
Pt       9.82524854       5.67261039      19.95766860        3      -0.00225759       0.00888882      -0.02442792
Pt       0.00000046       1.62074540      22.29208304        2       0.00243777      -0.02098759       0.02174727
Pt       2.80721419       1.62074531      22.29208311        2       0.00145682      -0.01768764       0.02193200
Pt       5.61442748       1.62074566      22.29208290        2       0.00383468      -0.01857739       0.02075728
Pt       1.40360675       4.05186459      22.29208313        2       0.00662454      -0.02038586       0.02164580
Pt       4.21082083       4.05186449      22.29208278        2      -0.00434844      -0.01896796       0.02209795
Pt       7.01803481       4.05186460      22.29208288        2       0.00210075      -0.02161727       0.02297517
Pt       2.80721463       6.48298242      22.29208276        2       0.00252323      -0.02149929       0.02382131
Pt       5.61442775       6.48298327      22.29208278        2       0.00098030      -0.01730878       0.02018228
Pt       8.42164096       6.48298261      22.29208273        2       0.00211137      -0.01578989       0.01932495
Pt       0.00361357      -0.03002926      24.63131485        1      -0.00314322       0.01095458       0.00744979
Pt       2.81009567      -0.02864520      24.63195377        1      -0.00018873       0.00397392      -0.00149156
Pt       5.61755737      -0.02998783      24.63088180        1      -0.00154124       0.01160547       0.00887372
Pt       1.40607513       2.40148031      24.63126758        1       0.00065595       0.01211442       0.00601033
Pt       4.21426452       2.40142931      24.63085484        1      -0.00081467       0.01134111       0.00688264
Pt       7.02136652       2.40066157      24.63243412        1      -0.00246577       0.01677769      -0.00338091
Pt       2.81032804       4.83220013      24.63327212        1      -0.00019397       0.01107995      -0.00286857
Pt       5.61622178       4.83309054      24.63089695        1       0.00865544       0.00656330      -0.00095233
Pt       8.42638605       4.83304074      24.63073986        1      -0.01214877       0.00667453       0.00020833
C        7.02244937       4.86776597      29.46112770        0      -0.00020466       0.00013034       0.02321531
H        7.85490990       4.53218963      30.09943168        0      -0.01021207       0.00233880      -0.01769836
H        6.18783419       5.20328567      30.09661220        0       0.00978390      -0.00276151      -0.01689432
H        6.68840875       4.03513567      28.82408253        0      -0.00203400      -0.01068027       0.00648660
H        7.35859166       5.70058731      28.82548909        0       0.00256751       0.01085433       0.00621408
