32
Lattice="8.421641763931781 0.0 0.0 4.2108208819658905 7.293355709136913 0.0 0.0 0.0 44.584161137365626" Properties=species:S:1:pos:R:3:tags:I:1:forces:R:3 charge=0 spin=0 energy=-161.482663721976 free_energy=-161.482663721976 stress="0.012226042337715626 -9.582923667039722e-06 -8.783711564319674e-06 -9.582923667039722e-06 0.012257792986929417 -7.07766866980819e-06 -8.783711564319674e-06 -7.07766866980819e-06 -0.00024268991546705365" pbc="T T T"
Pt       1.40360727       0.81037244      19.95766877        3       0.00390776       0.00564999      -0.02339143
Pt       4.21082123       0.81037256      19.95766888        3       0.00475055       0.00774501      -0.02371713
Pt       7.01803445       0.81037243      19.95766851        3       0.00395276       0.00786026      -0.02391272
Pt       2.80721413       3.24149135      19.95766844        3       0.00602631       0.00647899      -0.02346616
Pt       5.61442751       3.24149134      19.95766853        3       0.00440850       0.00667441      -0.02349625
Pt       8.42164211       3.24149148      19.95766852        3       0.00212103       0.00631058      -0.02389334
Pt       4.21082074       5.67261030      19.95766878        3       0.00526425       0.00572305      -0.02449662
Pt       7.01803477       5.67261047      19.95766871        3       0.00290458       0.00536310      -0.02447593
Pt       9.82524854       5.67261039      19.95766860        3       0.00418196       0.00662540      -0.02338596
Pt       0.00000046       1.62074540      22.29208304        2      -0.00889759      -0.01467965       0.01242122
Pt       2.80721419       1.62074531      22.29208311        2      -0.00859864      -0.01235277       0.01561872
Pt       5.61442748       1.62074566      22.29208290        2      -0.00983804      -0.01638393       0.01720819
Pt       1.40360675       4.05186459      22.29208313        2      -0.00923374      -0.01166881       0.01681036
Pt       4.21082083       4.05186449      22.29208278        2      -0.01407877      -0.01571854       0.01337367
Pt       7.01803481       4.05186460      22.29208288        2      -0.00528654      -0.01381822       0.01122652
Pt       2.80721463       6.48298242      22.29208276        2      -0.01273537      -0.01661628       0.01691889
Pt       5.61442775       6.48298327      22.29208278        2      -0.00803056      -0.01130294       0.00896758
Pt       8.42164096       6.48298261      22.29208273        2      -0.00501339      -0.01411991       0.01672797
Pt      -0.01297380      -0.02162039      24.62861122        1       0.00222089       0.00859900       0.01919942
Pt       2.79462090      -0.02193608      24.62861695        1       0.00715364       0.01006458       0.01743195
Pt       5.60142434      -0.02100265      24.63113515        1       0.00552811       0.00204175       0.00331341
Pt       1.39079643       2.40976947      24.62865429        1       0.00645715       0.00777533       0.01539680
Pt       4.19833548       2.40992724      24.63192223        1       0.00263829       0.00367806      -0.00132930
Pt       7.00539362       2.41004031      24.63055579        1       0.00437288       0.00290357       0.00372970
Pt       2.79523112       4.84014670      24.63095688        1      -0.00288168       0.01230257       0.00387138
Pt       5.60171053       4.84086209      24.62860617        1       0.00309587       0.00705341       0.01094327
Pt       8.40801315       4.83997422      24.63059229        1       0.01354520       0.01329072       0.00665904
C        5.66678085       3.33507807      29.46981281        0       0.00173816       0.00227598       0.03765183
H        4.80136570       3.03999060      30.08506996        0       0.03302449       0.00263985      -0.02891549
H        6.53547358       3.51867798      30.12292897        0      -0.03223197      -0.01553172      -0.03451803
H        5.42504037       4.25278324      28.91368458        0      -0.00803393       0.03236473       0.00618348
H        5.90420150       2.53304401      28.75462577        0       0.00756805      -0.02122749       0.02534521
