32
Lattice="8.421641763931781 0.0 0.0 4.2108208819658905 7.293355709136913 0.0 0.0 0.0 44.584161137365626" Properties=species:S:1:pos:R:3:tags:I:1:forces:R:3 charge=0 spin=0 energy=-161.48436221593352 free_energy=-161.48436221593352 stress="0.012271815910935402 -4.0889835872803815e-06 2.2973289048877632e-07 -4.0889835872803815e-06 0.012288744561374187 -4.347417643657536e-07 2.2973289048877632e-07 -4.347417643657536e-07 -0.0001905673270812258" pbc="T T T"
Pt       1.40360727       0.81037244      19.95766877        3       0.00046680       0.00049214      -0.02430428
Pt       4.21082123       0.81037256      19.95766888        3      -0.00001862      -0.00145624      -0.02395907
Pt       7.01803445       0.81037243      19.95766851        3      -0.00079663       0.00060714      -0.02423307
Pt       2.80721413       3.24149135      19.95766844        3      -0.00145771       0.00130939      -0.02400040
Pt       5.61442751       3.24149134      19.95766853        3       0.00130893       0.00126240      -0.02437809
Pt       8.42164211       3.24149148      19.95766852        3      -0.00016459       0.00099943      -0.02442088
Pt       4.21082074       5.67261030      19.95766878        3      -0.00014553      -0.00045043      -0.02404677
Pt       7.01803477       5.67261047      19.95766871        3       0.00042319      -0.00033196      -0.02432625
Pt       9.82524854       5.67261039      19.95766860        3      -0.00055349      -0.00013826      -0.02434253
Pt       0.00000046       1.62074540      22.29208304        2       0.00101419       0.00018282       0.02596554
Pt       2.80721419       1.62074531      22.29208311        2      -0.00100756      -0.00215221       0.02461088
Pt       5.61442748       1.62074566      22.29208290        2       0.00248889      -0.00103615       0.02498564
Pt       1.40360675       4.05186459      22.29208313        2       0.00350140      -0.00332216       0.02439880
Pt       4.21082083       4.05186449      22.29208278        2      -0.00033264       0.00108709       0.02351224
Pt       7.01803481       4.05186460      22.29208288        2      -0.00372755      -0.00291916       0.02468790
Pt       2.80721463       6.48298242      22.29208276        2      -0.00096012       0.00033824       0.02529601
Pt       5.61442775       6.48298327      22.29208278        2       0.00050312      -0.00107760       0.02537429
Pt       8.42164096       6.48298261      22.29208273        2       0.00077250       0.00393680       0.02513122
Pt       0.00041773      -0.00088307      24.63078768        1      -0.00032835       0.00080977       0.00529840
Pt       2.80735775      -0.00046434      24.63281506        1       0.00128422      -0.00239525      -0.00465650
Pt       5.61479748      -0.00044838      24.63283532        1      -0.00062270      -0.00313729      -0.00541646
Pt       1.40412524       2.43001661      24.63278002        1      -0.00248340       0.00277114      -0.00463642
Pt       4.21112237       2.43028251      24.62991334        1      -0.00007276      -0.00026698       0.00769826
Pt       7.01831699       2.42979088      24.63275946        1       0.00116355       0.00321078      -0.00510618
Pt       2.80813222       4.86131769      24.63253998        1      -0.00406070       0.00123988      -0.00386765
Pt       5.61427036       4.86143508      24.63248362        1       0.00417595       0.00042564      -0.00397993
Pt       8.42202344       4.86146176      24.63008216        1      -0.00041057       0.00000912       0.00199429
C        8.42050328       4.86065825      29.79872292        0       0.00004708       0.00002657       0.01903525
H        8.65190165       3.99275562      30.43542618        0      -0.00096573       0.00660618      -0.00620365
H        8.18623466       5.72906213      30.43368658        0       0.00095474      -0.00657353      -0.00611183
H        7.55529360       4.62734537      29.16047900        0      -0.01569458      -0.00384565      -0.00006444
H        9.28859582       5.09348333      29.16422199        0       0.01569882       0.00378847       0.00006592
