32
Lattice="8.421641763931781 0.0 0.0 4.2108208819658905 7.293355709136913 0.0 0.0 0.0 44.584161137365626" Properties=species:S:1:pos:R:3:tags:I:1:forces:R:3 charge=0 spin=0 energy=-161.48381862157316 free_energy=-161.48381862157316 stress="0.012269541621208191 -1.5498339053010568e-05 -3.2034522519097663e-06 -1.5498339053010568e-05 0.01230703666806221 -6.011991445120657e-06 -3.2034522519097663e-06 -6.011991445120657e-06 -0.0001906899706227705" pbc="T T T"
Pt       1.40360727       0.81037244      19.95766877        3       0.00450284       0.00497904      -0.02438494
Pt       4.21082123       0.81037256      19.95766888        3       0.00358323       0.00305735      -0.02460780
Pt       7.01803445       0.81037243      19.95766851        3       0.00272221       0.00515939      -0.02397481
Pt       2.80721413       3.24149135      19.95766844        3       0.00252923       0.00553024      -0.02455485
Pt       5.61442751       3.24149134      19.95766853        3       0.00448606       0.00561639      -0.02498600
Pt       8.42164211       3.24149148      19.95766852        3       0.00359569       0.00552708      -0.02409557
Pt       4.21082074       5.67261030      19.95766878        3       0.00376282       0.00383614      -0.02422973
Pt       7.01803477       5.67261047      19.95766871        3       0.00392748       0.00408967      -0.02435947
Pt       9.82524854       5.67261039      19.95766860        3       0.00343302       0.00448210      -0.02424730
Pt       0.00000046       1.62074540      22.29208304        2      -0.00798918      -0.00978991       0.02708122
Pt       2.80721419       1.62074531      22.29208311        2      -0.00989166      -0.01163448       0.02500061
Pt       5.61442748       1.62074566      22.29208290        2      -0.00339349      -0.01124897       0.02958883
Pt       1.40360675       4.05186459      22.29208313        2      -0.00545771      -0.01302490       0.02370050
Pt       4.21082083       4.05186449      22.29208278        2      -0.00772412      -0.00794630       0.02909929
Pt       7.01803481       4.05186460      22.29208288        2      -0.01055748      -0.01195556       0.02367591
Pt       2.80721463       6.48298242      22.29208276        2      -0.00964987      -0.00855039       0.02520231
Pt       5.61442775       6.48298327      22.29208278        2      -0.00822293      -0.01096004       0.02568327
Pt       8.42164096       6.48298261      22.29208273        2      -0.00614813      -0.00559953       0.02723549
Pt      -0.01184707      -0.01626651      24.63078551        1       0.00645726       0.00773706       0.00516638
Pt       2.79523629      -0.01553407      24.63285853        1       0.00741674       0.00587464      -0.00361931
Pt       5.60342812      -0.01567527      24.63400884        1       0.00350183       0.00827720      -0.00982853
Pt       1.39163892       2.41538892      24.63298464        1       0.00821344       0.00537748      -0.00403767
Pt       4.19948430       2.41419018      24.62968549        1       0.00555257       0.01332278       0.00646160
Pt       7.00788146       2.41690555      24.63354589        1      -0.00278158      -0.00373445      -0.00682553
Pt       2.79511216       4.84673010      24.63246579        1       0.01283446       0.00265845      -0.00358952
Pt       5.60476335       4.84648545      24.63285331        1      -0.00677411       0.00478795      -0.00531370
Pt       8.41093897       4.84717260      24.63130155        1       0.00226617       0.00450137       0.00106111
C        8.42377499       4.86724414      29.81937875        0      -0.00006975      -0.00030232      -0.00037446
H        8.21519768       5.74167096      30.45354897        0      -0.00404773       0.01529020       0.01291838
H        8.63422311       3.99511738      30.45609814        0       0.00426352      -0.01516090       0.01289039
H        9.29704773       5.07638609      29.18340055        0      -0.00158417      -0.00059997      -0.01062774
H        7.54858948       4.65580364      29.18683113        0       0.00124329       0.00040323      -0.01110838
