32
Lattice="8.421641763931781 0.0 0.0 4.2108208819658905 7.293355709136913 0.0 0.0 0.0 44.584161137365626" Properties=species:S:1:pos:R:3:tags:I:1:forces:R:3 charge=0 spin=0 energy=-161.48355063909025 free_energy=-161.48355063909025 stress="0.012323008850216866 -1.5933435861370526e-05 -5.7643042055133265e-06 -1.5933435861370526e-05 0.01231892965734005 -4.438616997504141e-06 -5.7643042055133265e-06 -4.438616997504141e-06 -0.00013765635958407074" pbc="T T T"
Pt       1.40360727       0.81037244      19.95766877        3       0.00499936      -0.00054912      -0.02344555
Pt       4.21082123       0.81037256      19.95766888        3       0.00684640       0.00052194      -0.02445947
Pt       7.01803445       0.81037243      19.95766851        3       0.00519608       0.00052415      -0.02491327
Pt       2.80721413       3.24149135      19.95766844        3       0.00705483      -0.00023733      -0.02434964
Pt       5.61442751       3.24149134      19.95766853        3       0.00590927      -0.00058901      -0.02359162
Pt       8.42164211       3.24149148      19.95766852        3       0.00423775      -0.00041176      -0.02507996
Pt       4.21082074       5.67261030      19.95766878        3       0.00597822      -0.00150127      -0.02453471
Pt       7.01803477       5.67261047      19.95766871        3       0.00495901      -0.00205960      -0.02453282
Pt       9.82524854       5.67261039      19.95766860        3       0.00593562      -0.00050100      -0.02479785
Pt       0.00000046       1.62074540      22.29208304        2      -0.00766588      -0.00173240       0.03152657
Pt       2.80721419       1.62074531      22.29208311        2      -0.01509522      -0.00061686       0.03303500
Pt       5.61442748       1.62074566      22.29208290        2      -0.01361270      -0.00006840       0.02672775
Pt       1.40360675       4.05186459      22.29208313        2      -0.01345550      -0.00053769       0.02995809
Pt       4.21082083       4.05186449      22.29208278        2      -0.01316970       0.00014300       0.02776827
Pt       7.01803481       4.05186460      22.29208288        2      -0.01158342       0.00303406       0.02608026
Pt       2.80721463       6.48298242      22.29208276        2      -0.01110775       0.00029730       0.02870923
Pt       5.61442775       6.48298327      22.29208278        2      -0.01067646       0.00437284       0.03191208
Pt       8.42164096       6.48298261      22.29208273        2      -0.01362071       0.00224215       0.02983479
Pt      -0.01875090       0.00079422      24.63367008        1       0.00796427       0.00269659      -0.00465433
Pt       2.78874535       0.00120781      24.63377893        1       0.00434073      -0.00065660      -0.00777873
Pt       5.59586565       0.00186938      24.63197029        1       0.00657185      -0.00519935      -0.00137315
Pt       1.38546676       2.43256098      24.63394743        1       0.00577248      -0.00253095      -0.00595435
Pt       4.19167929       2.43186903      24.63373276        1       0.00880405       0.00154300      -0.00990108
Pt       7.00034445       2.43220614      24.63208484        1       0.00334237       0.00038860      -0.00529666
Pt       2.78902202       4.86305304      24.63219011        1       0.00426304       0.00157479       0.00044843
Pt       5.59587897       4.86399412      24.63307552        1       0.00581534      -0.00347256      -0.00749699
Pt       8.40225742       4.86316740      24.63237770        1       0.01208744       0.00212288      -0.00312815
C        5.67721373       3.23489931      29.55819177        0      -0.00177428       0.00605739       0.03632697
H        5.03553437       2.59820205      30.18833774        0       0.02251356       0.02199748      -0.01936031
H        6.31080462       3.86798961      30.20011084        0      -0.02324374      -0.02338453      -0.01886068
H        5.04703819       3.87316428      28.92033345        0      -0.00253766       0.00266851       0.00118423
H        6.31539872       2.60102333      28.92436080        0       0.00495150      -0.00613626      -0.00000271
