32
Lattice="8.421641763931781 0.0 0.0 4.2108208819658905 7.293355709136913 0.0 0.0 0.0 44.584161137365626" Properties=species:S:1:pos:R:3:tags:I:1:forces:R:3 charge=0 spin=0 energy=-161.48361930364104 free_energy=-161.48361930364104 stress="0.012294567190110683 2.6777845050673932e-05 8.587967386119999e-06 2.6777845050673932e-05 0.012308543547987938 -4.649483344110195e-06 8.587967386119999e-06 -4.649483344110195e-06 -0.00016283549484796822" pbc="T T T"
Pt       1.40360727       0.81037244      19.95766877        3      -0.00532633       0.00166181      -0.02296149
Pt       4.21082123       0.81037256      19.95766888        3      -0.00514055       0.00256922      -0.02478653
Pt       7.01803445       0.81037243      19.95766851        3      -0.00713262       0.00291202      -0.02428240
Pt       2.80721413       3.24149135      19.95766844        3      -0.00426164       0.00169021      -0.02492137
Pt       5.61442751       3.24149134      19.95766853        3      -0.00612830       0.00173798      -0.02388715
Pt       8.42164211       3.24149148      19.95766852        3      -0.00730295       0.00218772      -0.02427589
Pt       4.21082074       5.67261030      19.95766878        3      -0.00533182      -0.00015125      -0.02470296
Pt       7.01803477       5.67261047      19.95766871        3      -0.00649404       0.00040292      -0.02442385
Pt       9.82524854       5.67261039      19.95766860        3      -0.00605021       0.00160092      -0.02479391
Pt       0.00000046       1.62074540      22.29208304        2       0.01643872      -0.00683387       0.03091849
Pt       2.80721419       1.62074531      22.29208311        2       0.00683753      -0.00560307       0.02961057
Pt       5.61442748       1.62074566      22.29208290        2       0.01475595      -0.00630396       0.02310409
Pt       1.40360675       4.05186459      22.29208313        2       0.01203727      -0.00487331       0.02878666
Pt       4.21082083       4.05186449      22.29208278        2       0.01031122      -0.00194401       0.02275163
Pt       7.01803481       4.05186460      22.29208288        2       0.01478109      -0.00278655       0.02366645
Pt       2.80721463       6.48298242      22.29208276        2       0.01486553      -0.00317402       0.02935755
Pt       5.61442775       6.48298327      22.29208278        2       0.01276667       0.00229237       0.02983060
Pt       8.42164096       6.48298261      22.29208273        2       0.01253620      -0.00201070       0.02827982
Pt       0.01914414      -0.00463750      24.63375798        1      -0.00402008       0.00248893      -0.00745218
Pt       2.82679986      -0.00490337      24.63377517        1      -0.00933730       0.00375087      -0.00449250
Pt       5.63386923      -0.00411605      24.63221316        1      -0.00745455      -0.00287749      -0.00159567
Pt       1.42279152       2.42690321      24.63387458        1      -0.00624247      -0.00101094      -0.00626832
Pt       4.22964741       2.42602892      24.63115647        1      -0.00519350       0.00287483      -0.00127247
Pt       7.03795158       2.42613461      24.63236004        1      -0.00809787       0.00329966      -0.00411640
Pt       2.82706038       4.85719920      24.63224482        1      -0.01126277       0.00483670      -0.00195574
Pt       5.63348280       4.85840140      24.63156699        1      -0.00595623      -0.00082208      -0.00116124
Pt       8.44067019       4.85748427      24.63206351        1      -0.00411738       0.00250763       0.00084033
C        5.54730516       3.25114144      29.55444768        0       0.00027843       0.00117826       0.00245824
H        6.20487705       2.61519709      30.16691312        0      -0.00211060       0.00238715      -0.00209056
H        4.93303348       3.88486747      30.21247251        0       0.00194797      -0.00296201      -0.00109606
H        4.89201496       2.61617908      28.93926575        0      -0.00402094      -0.00337985       0.00123677
H        6.15932447       3.88876102      28.89868532        0       0.00342550       0.00435399      -0.00030449
