32
Lattice="8.421641763931781 0.0 0.0 4.2108208819658905 7.293355709136913 0.0 0.0 0.0 44.584161137365626" Properties=species:S:1:pos:R:3:tags:I:1:forces:R:3 charge=0 spin=0 energy=-161.48098716252775 free_energy=-161.48098716252775 stress="0.012292055413126945 3.6342375096865e-05 -3.7398767744889483e-06 3.6342375096865e-05 0.012286913581192493 4.7578845396856195e-07 -3.7398767744889483e-06 4.7578845396856195e-07 -0.0001959587389137596" pbc="T T T"
Pt       1.40360727       0.81037244      19.95766877        3      -0.00907538       0.00090977      -0.02263594
Pt       4.21082123       0.81037256      19.95766888        3      -0.00742475       0.00137722      -0.02601004
Pt       7.01803445       0.81037243      19.95766851        3      -0.01007131       0.00232183      -0.02443600
Pt       2.80721413       3.24149135      19.95766844        3      -0.00722893      -0.00049345      -0.02455171
Pt       5.61442751       3.24149134      19.95766853        3      -0.00845142       0.00094644      -0.02545258
Pt       8.42164211       3.24149148      19.95766852        3      -0.01031559       0.00150326      -0.02517813
Pt       4.21082074       5.67261030      19.95766878        3      -0.00829072      -0.00126413      -0.02288649
Pt       7.01803477       5.67261047      19.95766871        3      -0.00911394      -0.00100370      -0.02321561
Pt       9.82524854       5.67261039      19.95766860        3      -0.01055324      -0.00018653      -0.02401134
Pt       0.00000046       1.62074540      22.29208304        2       0.02830561      -0.00917950       0.01926751
Pt       2.80721419       1.62074531      22.29208311        2       0.00835407       0.00177746       0.02167106
Pt       5.61442748       1.62074566      22.29208290        2       0.02250143      -0.00704362       0.00804954
Pt       1.40360675       4.05186459      22.29208313        2       0.01623047       0.00163594       0.03240216
Pt       4.21082083       4.05186449      22.29208278        2       0.01285412       0.00725578       0.01687489
Pt       7.01803481       4.05186460      22.29208288        2       0.02130389       0.00558686       0.02988061
Pt       2.80721463       6.48298242      22.29208276        2       0.02490237      -0.00299748       0.03055778
Pt       5.61442775       6.48298327      22.29208278        2       0.01549130       0.00068502       0.02258814
Pt       8.42164096       6.48298261      22.29208273        2       0.02199668      -0.00738393       0.01915284
Pt       0.03234893       0.00005799      24.63474183        1      -0.02333424      -0.00581326      -0.00933433
Pt       2.83846008       0.00017431      24.62881303        1      -0.02607398      -0.00428529       0.01754779
Pt       5.64335970      -0.00289032      24.63000419        1      -0.00399864       0.00720825       0.01046479
Pt       1.42926422       2.43419654      24.63384665        1       0.00751565      -0.01356732      -0.00687795
Pt       4.24089498       2.43088878      24.62582714        1      -0.01866546       0.00163544       0.02360577
Pt       7.04891585       2.42724238      24.62788464        1      -0.02036099       0.02157881       0.01686681
Pt       2.83519993       4.86107954      24.63407051        1      -0.00610538       0.00596235      -0.00431339
Pt       5.64038491       4.86306071      24.63243708        1       0.00973448      -0.00653618      -0.00592719
Pt       8.44928524       4.86222391      24.63666657        1      -0.01011271      -0.00323653      -0.01900147
C        6.58872302       4.13689207      29.66979983        0      -0.02992625      -0.01617196       0.00554336
H        7.34837778       3.35526568      29.51217413        0      -0.02008480       0.01506535       0.02295161
H        6.13507308       4.02161655      30.66679875        0       0.03916946      -0.00970360      -0.00586561
H        5.80330232       4.04328666      28.90471021        0       0.00775469       0.00731259      -0.02662369
H        7.06008673       5.12820412      29.59348568        0       0.00307338       0.00610393      -0.00110322
