32
Lattice="8.421641763931781 0.0 0.0 4.2108208819658905 7.293355709136913 0.0 0.0 0.0 44.584161137365626" Properties=species:S:1:pos:R:3:tags:I:1:forces:R:3 charge=0 spin=0 energy=-161.47940406316252 free_energy=-161.47940406316252 stress="0.012278887443244457 -2.6721290851128288e-05 -1.7645541447564028e-05 -2.6721290851128288e-05 0.012393234297633171 -1.2848082405980676e-05 -1.7645541447564028e-05 -1.2848082405980676e-05 -0.0001140871099778451" pbc="T T T"
Pt       1.40360727       0.81037244      19.95766877        3       0.00545037       0.01047028      -0.02199065
Pt       4.21082123       0.81037256      19.95766888        3       0.00833858       0.01367812      -0.02402347
Pt       7.01803445       0.81037243      19.95766851        3       0.00449583       0.01358616      -0.02585862
Pt       2.80721413       3.24149135      19.95766844        3       0.00851692       0.01365698      -0.02418626
Pt       5.61442751       3.24149134      19.95766853        3       0.00752356       0.01339728      -0.02531596
Pt       8.42164211       3.24149148      19.95766852        3       0.00486716       0.01255746      -0.02475379
Pt       4.21082074       5.67261030      19.95766878        3       0.00554269       0.01096560      -0.02628222
Pt       7.01803477       5.67261047      19.95766871        3       0.00621987       0.00969959      -0.02532707
Pt       9.82524854       5.67261039      19.95766860        3       0.00592687       0.01237856      -0.02685141
Pt       0.00000046       1.62074540      22.29208304        2      -0.00257171      -0.02829625       0.04429098
Pt       2.80721419       1.62074531      22.29208311        2      -0.01793558      -0.02758459       0.04547967
Pt       5.61442748       1.62074566      22.29208290        2      -0.01703328      -0.03527765       0.03091103
Pt       1.40360675       4.05186459      22.29208313        2      -0.01362641      -0.03331035       0.03849876
Pt       4.21082083       4.05186449      22.29208278        2      -0.02435840      -0.03250083       0.02233300
Pt       7.01803481       4.05186460      22.29208288        2      -0.01151359      -0.02556431       0.01590653
Pt       2.80721463       6.48298242      22.29208276        2      -0.01104096      -0.02288849       0.04427809
Pt       5.61442775       6.48298327      22.29208278        2      -0.01150951      -0.00674876       0.03374002
Pt       8.42164096       6.48298261      22.29208273        2      -0.01388917      -0.01934523       0.04387093
Pt      -0.01864550      -0.03788173      24.63805464        1      -0.00112163       0.01009637      -0.02227736
Pt       2.78992497      -0.03983987      24.63869885        1       0.00485138       0.01105914      -0.02447763
Pt       5.59641179      -0.04544377      24.63696519        1       0.00220491       0.02752719      -0.02228985
Pt       1.38858712       2.38846805      24.63931741        1      -0.01300163       0.02116617      -0.02828652
Pt       4.19503793       2.38854145      24.63572459        1      -0.00781903       0.01521964      -0.01676503
Pt       6.99685568       2.39130379      24.63093974        1       0.02123072       0.00355999      -0.00109497
Pt       2.78745987       4.81927305      24.63366840        1       0.00169668       0.02163070      -0.00582643
Pt       5.59068543       4.82858492      24.62746796        1       0.02607604      -0.01791552       0.02046521
Pt       8.39845565       4.81766109      24.63173629        1       0.03107497       0.02874755       0.00091976
C        5.80781065       3.14938465      29.42269127        0       0.01049052       0.03047564       0.02442358
H        4.74520719       3.43071792      29.38027749        0      -0.02201887       0.00096803      -0.01874024
H        6.00634836       2.62338288      30.36901653        0       0.01473717      -0.01480621      -0.00960042
H        6.42778919       4.05743223      29.37139869        0       0.00296583       0.00153518       0.00351543
H        6.05120269       2.49337870      28.57384891        0      -0.00476996      -0.01813759       0.00531480
