32
Lattice="8.421641763931781 0.0 0.0 4.2108208819658905 7.293355709136913 0.0 0.0 0.0 44.584161137365626" Properties=species:S:1:pos:R:3:tags:I:1:forces:R:3 charge=0 spin=0 energy=-161.47903880589934 free_energy=-161.47903880589934 stress="0.01234382577240467 -6.548935925820842e-05 -1.9199360394850373e-05 -6.548935925820842e-05 0.01233622059226036 -1.9431612599873915e-05 -1.9199360394850373e-05 -1.9431612599873915e-05 -0.00010918721091002226" pbc="T T T"
Pt       1.40360727       0.81037244      19.95766877        3       0.01213233      -0.00127686      -0.02204409
Pt       4.21082123       0.81037256      19.95766888        3       0.01639061      -0.00031987      -0.02452964
Pt       7.01803445       0.81037243      19.95766851        3       0.01312644      -0.00122796      -0.02593464
Pt       2.80721413       3.24149135      19.95766844        3       0.01635360      -0.00047833      -0.02411202
Pt       5.61442751       3.24149134      19.95766853        3       0.01606677      -0.00066420      -0.02515672
Pt       8.42164211       3.24149148      19.95766852        3       0.01208328       0.00044066      -0.02570190
Pt       4.21082074       5.67261030      19.95766878        3       0.01458133      -0.00406017      -0.02573049
Pt       7.01803477       5.67261047      19.95766871        3       0.01343277      -0.00244217      -0.02480867
Pt       9.82524854       5.67261039      19.95766860        3       0.01413468      -0.00177331      -0.02699520
Pt       0.00000046       1.62074540      22.29208304        2      -0.01213081      -0.00609676       0.03382760
Pt       2.80721419       1.62074531      22.29208311        2      -0.03574562      -0.00042775       0.04577736
Pt       5.61442748       1.62074566      22.29208290        2      -0.03947429      -0.00451393       0.02262586
Pt       1.40360675       4.05186459      22.29208313        2      -0.02748788      -0.00217337       0.04420331
Pt       4.21082083       4.05186449      22.29208278        2      -0.04205896       0.00278613       0.03099161
Pt       7.01803481       4.05186460      22.29208288        2      -0.02875179       0.00326087       0.01671042
Pt       2.80721463       6.48298242      22.29208276        2      -0.02614938       0.00108966       0.04421929
Pt       5.61442775       6.48298327      22.29208278        2      -0.02535871       0.01207197       0.04493325
Pt       8.42164096       6.48298261      22.29208273        2      -0.03578513       0.00620036       0.04080725
Pt      -0.04362770       0.00218974      24.63794268        1       0.00834650      -0.00613145      -0.02185382
Pt       2.76112383       0.00777479      24.63944913        1       0.01227018      -0.02197939      -0.02941936
Pt       5.56575945       0.00453718      24.63391492        1       0.01914549      -0.01266861      -0.00604246
Pt       1.35861545       2.43554883      24.63927022        1       0.01559104      -0.00137098      -0.02612397
Pt       4.16414939       2.43843031      24.63539092        1       0.01068646      -0.01575235      -0.01514241
Pt       6.97549040       2.42640671      24.62786761        1      -0.00146421       0.03528494       0.01973186
Pt       2.75694934       4.86938189      24.63701308        1       0.02710567      -0.01358696      -0.02255893
Pt       5.56808029       4.86286002      24.63095119        1       0.01117232       0.01835162      -0.00157449
Pt       8.36991090       4.86340929      24.63220608        1       0.04103095       0.01610123      -0.00067273
C        5.61674400       3.45625405      29.42665626        0       0.02959267      -0.00825934       0.02961409
H        5.25705221       3.89811562      30.36847812        0      -0.00569466       0.02431316      -0.01055131
H        5.33386699       2.39365192      29.39462904        0      -0.00972540      -0.01856992      -0.02381878
H        6.71280439       3.54345668      29.37707458        0       0.00388606       0.00227451       0.00196108
H        5.16901071       3.98482630      28.57198110        0      -0.01730218       0.00159855       0.00736898
