32
Lattice="8.421641763931781 0.0 0.0 4.2108208819658905 7.293355709136913 0.0 0.0 0.0 44.584161137365626" Properties=species:S:1:pos:R:3:tags:I:1:forces:R:3 charge=0 spin=0 energy=-161.48266181462736 free_energy=-161.48266181462736 stress="0.012259519658982754 1.4688921510241926e-05 -8.247946539086115e-07 1.4688921510241926e-05 0.012235676869750023 1.2933046491525602e-05 -8.247946539086115e-07 1.2933046491525602e-05 -0.0002353213494643569" pbc="T T T"
Pt       1.40360727       0.81037244      19.95766877        3      -0.00466315      -0.00482254      -0.02332727
Pt       4.21082123       0.81037256      19.95766888        3      -0.00473312      -0.00404153      -0.02463846
Pt       7.01803445       0.81037243      19.95766851        3      -0.00611811      -0.00377190      -0.02369357
Pt       2.80721413       3.24149135      19.95766844        3      -0.00393063      -0.00614624      -0.02445884
Pt       5.61442751       3.24149134      19.95766853        3      -0.00534734      -0.00576323      -0.02345199
Pt       8.42164211       3.24149148      19.95766852        3      -0.00642793      -0.00589443      -0.02401051
Pt       4.21082074       5.67261030      19.95766878        3      -0.00440601      -0.00714087      -0.02364675
Pt       7.01803477       5.67261047      19.95766871        3      -0.00610924      -0.00672862      -0.02371139
Pt       9.82524854       5.67261039      19.95766860        3      -0.00525771      -0.00579803      -0.02354290
Pt       0.00000046       1.62074540      22.29208304        2       0.01037951       0.01106702       0.01430166
Pt       2.80721419       1.62074531      22.29208311        2       0.00758270       0.01070316       0.01050161
Pt       5.61442748       1.62074566      22.29208290        2       0.01398986       0.00911207       0.01193499
Pt       1.40360675       4.05186459      22.29208313        2       0.00914859       0.01623321       0.01753389
Pt       4.21082083       4.05186449      22.29208278        2       0.00996888       0.01649016       0.01389021
Pt       7.01803481       4.05186460      22.29208288        2       0.01207371       0.01435440       0.01794156
Pt       2.80721463       6.48298242      22.29208276        2       0.00990203       0.01036352       0.01761711
Pt       5.61442775       6.48298327      22.29208278        2       0.01112324       0.01190931       0.01657166
Pt       8.42164096       6.48298261      22.29208273        2       0.01357075       0.01085653       0.01737605
Pt       0.01633049       0.01868538      24.62912899        1      -0.00564272      -0.00767737       0.01306489
Pt       2.82389161       0.01828129      24.62914686        1      -0.00709431      -0.00849966       0.01576291
Pt       5.63085994       0.01969034      24.63068231        1      -0.00436975      -0.01670386       0.00649175
Pt       1.42029450       2.45003754      24.62900757        1      -0.00842863      -0.00571609       0.01722039
Pt       4.22711628       2.44911189      24.62851619        1      -0.00505766      -0.00413131       0.01112482
Pt       7.03430626       2.44954469      24.63099227        1      -0.00276608      -0.00404296       0.00170426
Pt       2.82472150       4.88047918      24.63073433        1      -0.01409151      -0.00256625       0.00466296
Pt       5.63075276       4.88063753      24.63192422        1      -0.00362088      -0.00454450      -0.00160799
Pt       8.43761384       4.88067452      24.63116423        1      -0.00006318      -0.00529220       0.00324772
C        5.54876796       3.16505830      29.46278003        0      -0.00090564      -0.00239365       0.03932913
H        5.83027533       2.30315189      30.08942919        0      -0.00311490       0.03638662      -0.03207817
H        5.38048174       4.04549028      30.10413085        0       0.01422082      -0.03231039      -0.03160447
H        4.62637458       2.93082638      28.91111850        0      -0.02934665      -0.00742822       0.00548369
H        6.35402051       3.37950502      28.74390210        0       0.01953505       0.00393770       0.02401113
