32
Lattice="8.421641763931781 0.0 0.0 4.2108208819658905 7.293355709136913 0.0 0.0 0.0 44.584161137365626" Properties=species:S:1:pos:R:3:tags:I:1:forces:R:3 charge=0 spin=0 energy=-161.48266181462736 free_energy=-161.48266181462736 stress="0.012226145714521408 -9.585289262759034e-06 -8.772329238126986e-06 -9.585289262759034e-06 0.012257893569767475 -7.090158760547638e-06 -8.772329238126986e-06 -7.090158760547638e-06 -0.0002425809361739084" pbc="T T T"
Pt       1.40360727       0.81037244      19.95766877        3       0.00390752       0.00564958      -0.02338982
Pt       4.21082123       0.81037256      19.95766888        3       0.00475112       0.00774316      -0.02371885
Pt       7.01803445       0.81037243      19.95766851        3       0.00395189       0.00785905      -0.02391435
Pt       2.80721413       3.24149135      19.95766844        3       0.00602599       0.00647962      -0.02346618
Pt       5.61442751       3.24149134      19.95766853        3       0.00440813       0.00667373      -0.02349425
Pt       8.42164211       3.24149148      19.95766852        3       0.00212159       0.00631113      -0.02389389
Pt       4.21082074       5.67261030      19.95766878        3       0.00526261       0.00572253      -0.02450031
Pt       7.01803477       5.67261047      19.95766871        3       0.00290544       0.00536262      -0.02447688
Pt       9.82524854       5.67261039      19.95766860        3       0.00418200       0.00662508      -0.02338844
Pt       0.00000046       1.62074540      22.29208304        2      -0.00888862      -0.01468046       0.01245159
Pt       2.80721419       1.62074531      22.29208311        2      -0.00860640      -0.01235630       0.01564876
Pt       5.61442748       1.62074566      22.29208290        2      -0.00983697      -0.01637468       0.01721881
Pt       1.40360675       4.05186459      22.29208313        2      -0.00923389      -0.01167791       0.01682674
Pt       4.21082083       4.05186449      22.29208278        2      -0.01407466      -0.01572157       0.01338496
Pt       7.01803481       4.05186460      22.29208288        2      -0.00528978      -0.01382107       0.01123791
Pt       2.80721463       6.48298242      22.29208276        2      -0.01272556      -0.01661265       0.01693158
Pt       5.61442775       6.48298327      22.29208278        2      -0.00802747      -0.01129218       0.00899970
Pt       8.42164096       6.48298261      22.29208273        2      -0.00502319      -0.01411565       0.01674206
Pt      -0.01297415      -0.02161959      24.62861864        1       0.00223213       0.00860235       0.01916443
Pt       2.79462257      -0.02193468      24.62862547        1       0.00713647       0.01006233       0.01739022
Pt       5.60142543      -0.02099991      24.63113378        1       0.00552605       0.00202515       0.00331441
Pt       1.39079750       2.40977100      24.62866329        1       0.00645266       0.00776493       0.01535649
Pt       4.19833383       2.40992668      24.63192625        1       0.00265001       0.00368764      -0.00134633
Pt       7.00539601       2.41004033      24.63055911        1       0.00436571       0.00290960       0.00370692
Pt       2.79523231       4.84014678      24.63095748        1      -0.00288369       0.01230485       0.00387446
Pt       5.60171044       4.84086487      24.62860884        1       0.00309717       0.00704715       0.01093112
Pt       8.40801258       4.83997508      24.63059310        1       0.01355379       0.01329359       0.00665465
C        5.66677627       3.33507126      29.46961981        0       0.00175022       0.00224361       0.03770568
H        6.53547112       3.51867319      30.12273486        0      -0.03226815      -0.01552830      -0.03452044
H        4.80135996       3.03998642      30.08487967        0       0.03305274       0.00266123      -0.02891667
H        5.90419799       2.53302652      28.75444483        0       0.00754998      -0.02117092       0.02532437
H        5.42503594       4.25277601      28.91348963        0      -0.00802484       0.03232292       0.00616179
