38
Lattice="8.421641763931781 0.0 0.0 4.2108208819658905 7.293355709136913 0.0 0.0 0.0 46.87624170604845" Properties=species:S:1:pos:R:3:tags:I:1:forces:R:3 charge=0 spin=0 energy=-202.81927585244884 free_energy=-202.81927585244884 stress="0.009581423364579678 -8.60238387190293e-08 9.476617179871027e-08 -8.60238387190293e-08 0.009581504389643669 -1.5843355072320264e-07 9.476617179871027e-08 -1.5843355072320264e-07 -0.00038859297637827694" pbc="T T T"
Pt      -0.00000010      -0.00000005      19.95723451        4      -0.00209519      -0.00929184       0.02010883
Pt       2.80721394      -0.00000020      19.95723457        4       0.00000186       0.00000334       0.01755336
Pt       5.61442787      -0.00000008      19.95723465        4       0.00151739      -0.00829998       0.01951604
Pt       1.40360721       2.43111841      19.95723445        4       0.00642953       0.00545249       0.01954318
Pt       4.21082082       2.43111837      19.95723453        4      -0.00698856       0.00646020       0.02006485
Pt       7.01803480       2.43111844      19.95723439        4       0.00000213      -0.00000590       0.02220785
Pt       2.80721416       4.86223734      19.95723425        4      -0.00000690       0.00000612      -0.06918369
Pt       5.61442796       4.86223739      19.95723443        4      -0.00794334       0.00284395       0.01958262
Pt       8.42164143       4.86223725      19.95723447        4       0.00908927       0.00283007       0.02009146
Pt       1.40360729       0.81037262      22.29206795        3       0.00455751       0.00205651      -0.02837829
Pt       4.21082131       0.81037249      22.29206793        3      -0.00054710      -0.00501328      -0.02841155
Pt       7.01803470       0.81037255      22.29206785        3       0.00573986      -0.00196408      -0.06338713
Pt       2.80721448       3.24149122      22.29206774        3      -0.00139314       0.06274242      -0.11442772
Pt       5.61442764       3.24149121      22.29206791        3      -0.00457879      -0.00401660      -0.06317845
Pt       8.42164154       3.24149129      22.29206806        3      -0.00112939       0.00597090      -0.06317386
Pt       4.21082091       5.67260997      22.29206741        3      -0.05365650      -0.03254285      -0.11441205
Pt       7.01803487       5.67261038      22.29206779        3      -0.00399962       0.00292482      -0.02820000
Pt       9.82524821       5.67261068      22.29206808        3       0.05506442      -0.03022447      -0.11446875
Pt      -0.00000053       1.62074567      24.58417372        2       0.00213071      -0.00533018      -0.03979626
Pt       2.80721436       1.62074552      24.58417391        2       0.00193252      -0.27295890       0.34093389
Pt       5.61442781       1.62074537      24.58417374        2      -0.00578704       0.00060328      -0.03972916
Pt       1.40360639       4.05186438      24.58417385        2       0.04158149       0.02371069      -0.12959097
Pt       4.21082087       4.05186396      24.58417384        2      -0.04130710       0.02402330      -0.12947081
Pt       7.01803504       4.05186408      24.58417403        2       0.00348566       0.00466062      -0.04006417
Pt       2.80721276       6.48298348      24.58417381        2      -0.00029111      -0.04762445      -0.12913771
Pt       5.61442804       6.48298329      24.58417396        2       0.23515885       0.13819921       0.34090814
Pt       8.42164223       6.48298338      24.58417376        2      -0.23700245       0.13480477       0.34070671
Pt      -0.03158947      -0.00129551      26.89951790        1       0.01088752      -0.00302765      -0.00497327
Pt       2.80716650       0.00005296      27.06841343        1       0.00023175      -0.00025437      -0.01481001
Pt       5.64525221      -0.00213320      26.90058695        1      -0.01006875      -0.00056377      -0.00370610
Pt       1.39007974       2.45889406      26.90049467        1       0.00538453      -0.00822173      -0.00338587
Pt       4.22541906       2.45914994      26.89945727        1      -0.00800014      -0.00794225      -0.00470760
Pt       7.01800110       2.43114784      26.91542347        1       0.00003423      -0.00000712       0.00905458
Pt       2.80717305       4.86229297      26.92445115        1       0.00005553      -0.00009668       0.00754044
Pt       5.59707260       4.83667550      26.90050295        1       0.00459643       0.00885110      -0.00339615
Pt       8.43856217       4.83557803      26.89939089        1      -0.00291922       0.01104975      -0.00467384
O        2.80751664      -0.00034797      30.08158970        0       0.00009142      -0.00010886       0.01040625
C        2.80743027      -0.00024738      28.91915805        0      -0.00025857       0.00030139       0.02644522
