38
Lattice="8.421641763931781 0.0 0.0 4.2108208819658905 7.293355709136913 0.0 0.0 0.0 46.87624170604845" Properties=species:S:1:pos:R:3:tags:I:1:forces:R:3 charge=0 spin=0 energy=-202.91206264138927 free_energy=-202.91206264138927 stress="0.009984041564166546 3.5061160641447486e-09 -1.2858224485157166e-09 3.5061160641447486e-09 0.009984059259295464 3.9549441055442e-08 -1.2858224485157166e-09 3.9549441055442e-08 -0.0003009296488016844" pbc="T T T"
Pt      -0.00000010      -0.00000005      19.95723451        4      -0.00034983       0.00128983       0.01726499
Pt       2.80721394      -0.00000020      19.95723457        4      -0.00110325      -0.00370904       0.01340749
Pt       5.61442787      -0.00000008      19.95723465        4       0.00378176       0.00092402       0.01345847
Pt       1.40360721       2.43111841      19.95723445        4       0.01529832      -0.00877045       0.01067771
Pt       4.21082082       2.43111837      19.95723453        4      -0.00267704       0.00279010       0.01343701
Pt       7.01803480       2.43111844      19.95723439        4      -0.01525587      -0.00890489       0.01066914
Pt       2.80721416       4.86223734      19.95723425        4      -0.00094981      -0.00092357       0.01727775
Pt       5.61442796       4.86223739      19.95723443        4       0.00129553      -0.00037100       0.01720871
Pt       8.42164143       4.86223725      19.95723447        4      -0.00004055       0.01767421       0.01064338
Pt       1.40360729       0.81037262      22.29206795        3      -0.00754325       0.03387847      -0.06636719
Pt       4.21082131       0.81037249      22.29206793        3      -0.00000112       0.00000604      -0.07606383
Pt       7.01803470       0.81037255      22.29206785        3       0.01448601       0.03599894      -0.06512844
Pt       2.80721448       3.24149122      22.29206774        3      -0.03835372      -0.00538189      -0.06507631
Pt       5.61442764       3.24149121      22.29206791        3       0.03303119      -0.01041120      -0.06642400
Pt       8.42164154       3.24149129      22.29206806        3       0.00000341       0.00000045      -0.27931735
Pt       4.21082091       5.67260997      22.29206741        3      -0.00000369       0.00000042      -0.01059498
Pt       7.01803487       5.67261038      22.29206779        3       0.02385807      -0.03061472      -0.06512086
Pt       9.82524821       5.67261068      22.29206808        3      -0.02547716      -0.02347538      -0.06646092
Pt      -0.00000053       1.62074567      24.58417372        2      -0.00140610      -0.10708503       0.12827763
Pt       2.80721436       1.62074552      24.58417391        2      -0.02529621       0.01192410      -0.05028281
Pt       5.61442781       1.62074537      24.58417374        2       0.02304365       0.01598085      -0.05033811
Pt       1.40360639       4.05186438      24.58417385        2       0.09347159       0.05225200       0.12831147
Pt       4.21082087       4.05186396      24.58417384        2       0.00036180       0.06672695       0.15598668
Pt       7.01803504       4.05186408      24.58417403        2      -0.09207182       0.05485103       0.12830798
Pt       2.80721276       6.48298348      24.58417381        2       0.05765628      -0.03367804       0.15602979
Pt       5.61442804       6.48298329      24.58417396        2      -0.05799235      -0.03305835       0.15607598
Pt       8.42164223       6.48298338      24.58417376        2       0.00223715      -0.02791260      -0.05020815
Pt      -0.00150079       0.02765793      27.01292647        1      -0.00041652      -0.02873622       0.03320963
Pt       2.82344363       0.01126773      26.90198499        1       0.03228695       0.01666838      -0.01518842
Pt       5.59655722       0.00841989      26.90198797        1      -0.03058608       0.01962994      -0.01519157
Pt       1.39813686       2.43551350      26.91239504        1       0.02119092      -0.01529997      -0.01476618
Pt       4.21246680       2.41143233      26.90198451        1      -0.00171053      -0.03629608      -0.01518849
Pt       7.02457555       2.43365892      26.91239728        1      -0.02384504      -0.01069269      -0.01477059
Pt       2.78400850       4.84710847      27.01293379        1       0.02510695       0.01400454       0.03318856
Pt       5.63913256       4.84970938      27.01293381        1      -0.02467737       0.01472112       0.03318619
Pt       8.42057331       4.85530369      26.91240808        1       0.00264224       0.02599879      -0.01480250
O        4.21081883       5.67261350      29.54890646        0      -0.00000063       0.00000000      -0.04361330
C        4.21081758       5.67261009      28.34771477        0       0.00000606       0.00000118      -0.03171461
