38
Lattice="8.421641763931781 0.0 0.0 4.2108208819658905 7.293355709136913 0.0 0.0 0.0 46.87624170604845" Properties=species:S:1:pos:R:3:tags:I:1:forces:R:3 charge=0 spin=0 energy=-202.91267966867198 free_energy=-202.91267966867198 stress="0.00991794653236866 5.487994059194534e-09 1.3774634766150484e-09 5.487994059194534e-09 0.009917964227497578 4.085048388446921e-08 1.3774634766150484e-09 4.085048388446921e-08 -0.0004363574553281069" pbc="T T T"
Pt      -0.00000010      -0.00000005      19.95723451        4      -0.00086924      -0.00082232       0.01723761
Pt       2.80721394      -0.00000020      19.95723457        4       0.00117387      -0.00034293       0.01717938
Pt       5.61442787      -0.00000008      19.95723465        4      -0.00011359       0.01755077       0.01072122
Pt       1.40360721       2.43111841      19.95723445        4      -0.00030645       0.00117353       0.01723666
Pt       4.21082082       2.43111837      19.95723453        4      -0.00100700      -0.00366130       0.01329140
Pt       7.01803480       2.43111844      19.95723439        4       0.00368935       0.00097786       0.01334311
Pt       2.80721416       4.86223734      19.95723425        4       0.01521822      -0.00865049       0.01076269
Pt       5.61442796       4.86223739      19.95723443        4      -0.00268099       0.00267800       0.01331714
Pt       8.42164143       4.86223725      19.95723447        4      -0.01510414      -0.00890390       0.01074690
Pt       1.40360729       0.81037262      22.29206795        3      -0.00000082       0.00000100      -0.00960438
Pt       4.21082131       0.81037249      22.29206793        3       0.02397934      -0.03095558      -0.06543013
Pt       7.01803470       0.81037255      22.29206785        3      -0.02549530      -0.02363712      -0.06682494
Pt       2.80721448       3.24149122      22.29206774        3      -0.00769620       0.03397474      -0.06673760
Pt       5.61442764       3.24149121      22.29206791        3       0.00000153       0.00000084      -0.07411734
Pt       8.42164154       3.24149129      22.29206806        3       0.01472871       0.03627747      -0.06543293
Pt       4.21082091       5.67260997      22.29206741        3      -0.03871084      -0.00531467      -0.06536137
Pt       7.01803487       5.67261038      22.29206779        3       0.03318088      -0.01033497      -0.06678312
Pt       9.82524821       5.67261068      22.29206808        3       0.00000855      -0.00001066      -0.28143817
Pt      -0.00000053       1.62074567      24.58417372        2       0.06132657      -0.03575089       0.15462832
Pt       2.80721436       1.62074552      24.58417391        2      -0.06163429      -0.03519506       0.15467779
Pt       5.61442781       1.62074537      24.58417374        2       0.00228951      -0.02609237      -0.06615588
Pt       1.40360639       4.05186438      24.58417385        2      -0.00141656      -0.10812172       0.12025828
Pt       4.21082087       4.05186396      24.58417384        2      -0.02374856       0.01098057      -0.06625399
Pt       7.01803504       4.05186408      24.58417403        2       0.02146349       0.01510937      -0.06630575
Pt       2.80721276       6.48298348      24.58417381        2       0.09437589       0.05275172       0.12029204
Pt       5.61442804       6.48298329      24.58417396        2       0.00032149       0.07094929       0.15455997
Pt       8.42164223       6.48298338      24.58417376        2      -0.09297104       0.05536909       0.12028841
Pt      -0.02400897      -0.01592035      27.01570237        1       0.00650284       0.00373207      -0.00288002
Pt       2.83299716      -0.01282441      27.01570439        1      -0.00644139       0.00374310      -0.00289584
Pt       5.61387747      -0.00338532      26.90698567        1       0.00083630       0.00590166       0.00030129
Pt       1.40182308       2.45986550      27.01570364        1      -0.00001691      -0.00747572      -0.00288659
Pt       4.22685477       2.44199884      26.89884931        1       0.02960533       0.01576013      -0.00265451
Pt       7.00060403       2.43955854      26.89885130        1      -0.02848040       0.01777185      -0.00265839
Pt       2.80455423       4.86439920      26.90696994        1       0.00469910      -0.00364723       0.00034627
Pt       5.61584338       4.84291821      26.89883917        1      -0.00117850      -0.03353784      -0.00262487
Pt       8.42484961       4.86346268      26.90697806        1      -0.00552355      -0.00224815       0.00032218
O        1.40360463       0.81037437      29.53989790        0      -0.00000644      -0.00000227       0.01431756
C        1.40360334       0.81037298      28.33849737        0       0.00000134       0.00000223       0.01321764
