38
Lattice="8.421641763931781 0.0 0.0 4.2108208819658905 7.293355709136913 0.0 0.0 0.0 46.87624170604845" Properties=species:S:1:pos:R:3:tags:I:1:forces:R:3 charge=0 spin=0 energy=-202.91223716378917 free_energy=-202.91223716378917 stress="0.009914892725646496 6.3537926031642655e-09 8.910102877734971e-09 6.3537926031642655e-09 0.009914902970194817 3.710717422222842e-08 8.910102877734971e-09 3.710717422222842e-08 -0.0004492531006690115" pbc="T T T"
Pt      -0.00000010      -0.00000005      19.95723451        4      -0.00073073      -0.00061506       0.01699285
Pt       2.80721394      -0.00000020      19.95723457        4       0.00092582      -0.00032604       0.01693384
Pt       5.61442787      -0.00000008      19.95723465        4      -0.00011447       0.01753767       0.01061700
Pt       1.40360721       2.43111841      19.95723445        4      -0.00019541       0.00094946       0.01699162
Pt       4.21082082       2.43111837      19.95723453        4      -0.00088289      -0.00358930       0.01321612
Pt       7.01803480       2.43111844      19.95723439        4       0.00356521       0.00104828       0.01326875
Pt       2.80721416       4.86223734      19.95723425        4       0.01520729      -0.00864264       0.01065987
Pt       5.61442796       4.86223739      19.95723443        4      -0.00268193       0.00253475       0.01324403
Pt       8.42164143       4.86223725      19.95723447        4      -0.01509234      -0.00889851       0.01064361
Pt       1.40360729       0.81037262      22.29206795        3      -0.00000140       0.00000002      -0.00723162
Pt       4.21082131       0.81037249      22.29206793        3       0.02467284      -0.03124665      -0.06582192
Pt       7.01803470       0.81037255      22.29206785        3      -0.02602135      -0.02403531      -0.06692518
Pt       2.80721448       3.24149122      22.29206774        3      -0.00777596       0.03462940      -0.06683321
Pt       5.61442764       3.24149121      22.29206791        3       0.00000203       0.00000147      -0.07233996
Pt       8.42164154       3.24149129      22.29206806        3       0.01463311       0.03702405      -0.06583694
Pt       4.21082091       5.67260997      22.29206741        3      -0.03930712      -0.00577165      -0.06576169
Pt       7.01803487       5.67261038      22.29206779        3       0.03378773      -0.01059349      -0.06688052
Pt       9.82524821       5.67261068      22.29206808        3       0.00000876      -0.00001087      -0.28188947
Pt      -0.00000053       1.62074567      24.58417372        2       0.06542127      -0.03840726       0.14739096
Pt       2.80721436       1.62074552      24.58417391        2      -0.06597371      -0.03740712       0.14743704
Pt       5.61442781       1.62074537      24.58417374        2       0.00295046      -0.02852142      -0.08110990
Pt       1.40360639       4.05186438      24.58417385        2      -0.00098671      -0.10879006       0.13135119
Pt       4.21082087       4.05186396      24.58417384        2      -0.02619918       0.01158028      -0.08120746
Pt       7.01803504       4.05186408      24.58417403        2       0.02322380       0.01691717      -0.08128724
Pt       2.80721276       6.48298348      24.58417381        2       0.09473401       0.05343591       0.13140061
Pt       5.61442804       6.48298329      24.58417396        2       0.00057733       0.07583416       0.14731036
Pt       8.42164223       6.48298338      24.58417376        2      -0.09374592       0.05536276       0.13137780
Pt      -0.02038031      -0.01435575      27.01638751        1      -0.02167373      -0.00956236       0.00069022
Pt       2.82982977      -0.01045911      27.01639366        1       0.01916840      -0.01402412       0.00065872
Pt       5.61397289       0.00215453      26.90728942        1       0.00164070      -0.03185894      -0.00436729
Pt       1.40135886       2.45594050      27.01638905        1       0.00253842       0.02360286       0.00066864
Pt       4.22608616       2.44061371      26.89435445        1       0.03229426       0.02096785       0.01688261
Pt       7.00216308       2.43958986      26.89433430        1      -0.03422656       0.01750083       0.01694465
Pt       2.80931810       4.86155142      26.90727378        1      -0.02845238       0.01451359      -0.00433090
Pt       5.61502886       4.84427028      26.89432619        1       0.00197043      -0.03844919       0.01697828
Pt       8.42001379       4.86077889      26.90726164        1       0.02675004       0.01730752      -0.00429500
O        1.40360358       0.81037362      29.54615900        0      -0.00001033      -0.00000199       0.00903729
C        1.40360246       0.81037337      28.34499845        0       0.00000011       0.00000363      -0.00457778
