38
Lattice="8.421641763931781 0.0 0.0 4.2108208819658905 7.293355709136913 0.0 0.0 0.0 46.87624170604845" Properties=species:S:1:pos:R:3:tags:I:1:forces:R:3 charge=0 spin=0 energy=-202.9126806223463 free_energy=-202.9126806223463 stress="0.009917959570884705 7.0449122091531535e-09 4.011487142463466e-09 7.0449122091531535e-09 0.009917963296175003 4.254266983139132e-08 4.011487142463466e-09 4.254266983139132e-08 -0.0004364117339719087" pbc="T T T"
Pt      -0.00000010      -0.00000005      19.95723451        4      -0.00011474       0.01755124       0.01071956
Pt       2.80721394      -0.00000020      19.95723457        4      -0.00086823      -0.00082250       0.01723956
Pt       5.61442787      -0.00000008      19.95723465        4       0.00117375      -0.00034308       0.01717930
Pt       1.40360721       2.43111841      19.95723445        4       0.00369047       0.00098021       0.01334303
Pt       4.21082082       2.43111837      19.95723453        4      -0.00030476       0.00117149       0.01723596
Pt       7.01803480       2.43111844      19.95723439        4      -0.00100990      -0.00366132       0.01329197
Pt       2.80721416       4.86223734      19.95723425        4      -0.01511041      -0.00890425       0.01075360
Pt       5.61442796       4.86223739      19.95723443        4       0.01522139      -0.00865152       0.01075256
Pt       8.42164143       4.86223725      19.95723447        4      -0.00267848       0.00267925       0.01332021
Pt       1.40360729       0.81037262      22.29206795        3      -0.02549621      -0.02363760      -0.06682383
Pt       4.21082131       0.81037249      22.29206793        3      -0.00000084       0.00000470      -0.00960688
Pt       7.01803470       0.81037255      22.29206785        3       0.02398081      -0.03095916      -0.06542972
Pt       2.80721448       3.24149122      22.29206774        3       0.01471891       0.03627975      -0.06543384
Pt       5.61442764       3.24149121      22.29206791        3      -0.00768700       0.03397083      -0.06673466
Pt       8.42164154       3.24149129      22.29206806        3       0.00000309       0.00000143      -0.07411923
Pt       4.21082091       5.67260997      22.29206741        3      -0.00000401       0.00000106      -0.28141662
Pt       7.01803487       5.67261038      22.29206779        3      -0.03870932      -0.00531887      -0.06537458
Pt       9.82524821       5.67261068      22.29206808        3       0.03319318      -0.01034196      -0.06678748
Pt      -0.00000053       1.62074567      24.58417372        2       0.00229290      -0.02609743      -0.06615936
Pt       2.80721436       1.62074552      24.58417391        2       0.06132290      -0.03574786       0.15463106
Pt       5.61442781       1.62074537      24.58417374        2      -0.06163463      -0.03519049       0.15468034
Pt       1.40360639       4.05186438      24.58417385        2       0.02147183       0.01510732      -0.06631079
Pt       4.21082087       4.05186396      24.58417384        2      -0.00142035      -0.10811777       0.12025779
Pt       7.01803504       4.05186408      24.58417403        2      -0.02375383       0.01097861      -0.06624891
Pt       2.80721276       6.48298348      24.58417381        2      -0.09295031       0.05536443       0.12027728
Pt       5.61442804       6.48298329      24.58417396        2       0.09435853       0.05275406       0.12029233
Pt       8.42164223       6.48298338      24.58417376        2       0.00031839       0.07094850       0.15456645
Pt      -0.00054972      -0.00338559      26.90698502        1       0.00083537       0.00590186       0.00030473
Pt       2.78320537      -0.01592021      27.01570338        1       0.00650706       0.00373375      -0.00287808
Pt       5.64021090      -0.01282454      27.01570573        1      -0.00644943       0.00374767      -0.00289407
Pt       1.38617576       2.43955859      26.89885047        1      -0.02847641       0.01776947      -0.00265943
Pt       4.20903681       2.45986585      27.01570481        1      -0.00001687      -0.00747810      -0.00289203
Pt       7.03406859       2.44199918      26.89884914        1       0.02960212       0.01575800      -0.00265440
Pt       2.81042202       4.86346237      26.90697737        1      -0.00552348      -0.00224938       0.00032790
Pt       5.61176842       4.86439916      26.90697025        1       0.00470125      -0.00364563       0.00034137
Pt       8.42305705       4.84291789      26.89883922        1      -0.00117862      -0.03353377      -0.00262277
O        4.21081808       0.81037433      29.53989761        0      -0.00000587      -0.00000428       0.01445607
C        4.21081715       0.81037311      28.33849815        0       0.00000157       0.00000140       0.01307552
