38
Lattice="8.421641763931781 0.0 0.0 4.2108208819658905 7.293355709136913 0.0 0.0 0.0 46.87624170604845" Properties=species:S:1:pos:R:3:tags:I:1:forces:R:3 charge=0 spin=0 energy=-202.81936835885753 free_energy=-202.81936835885753 stress="0.009599275887012482 -8.087690872571329e-08 -5.22117504786479e-09 -8.087690872571329e-08 0.00959929171949625 -4.8340268676838605e-08 -5.22117504786479e-09 -4.8340268676838605e-08 -0.0003772946656681597" pbc="T T T"
Pt      -0.00000010      -0.00000005      19.95723451        4      -0.00000124       0.00000363       0.01772644
Pt       2.80721394      -0.00000020      19.95723457        4       0.00144743      -0.00830271       0.01941873
Pt       5.61442787      -0.00000008      19.95723465        4      -0.00197480      -0.00923283       0.02004693
Pt       1.40360721       2.43111841      19.95723445        4      -0.00700009       0.00633102       0.01999859
Pt       4.21082082       2.43111837      19.95723453        4       0.00000112      -0.00000055       0.02237250
Pt       7.01803480       2.43111844      19.95723439        4       0.00646235       0.00539455       0.01943913
Pt       2.80721416       4.86223734      19.95723425        4      -0.00791295       0.00290667       0.01948822
Pt       5.61442796       4.86223739      19.95723443        4       0.00897467       0.00290226       0.02002594
Pt       8.42164143       4.86223725      19.95723447        4       0.00000407      -0.00000287      -0.06873747
Pt       1.40360729       0.81037262      22.29206795        3      -0.00036956      -0.00501215      -0.02760671
Pt       4.21082131       0.81037249      22.29206793        3       0.00582016      -0.00193292      -0.06376436
Pt       7.01803470       0.81037255      22.29206785        3       0.00445916       0.00222792      -0.02758115
Pt       2.80721448       3.24149122      22.29206774        3      -0.00462558      -0.00409840      -0.06353345
Pt       5.61442764       3.24149121      22.29206791        3      -0.00119645       0.00604020      -0.06352096
Pt       8.42164154       3.24149129      22.29206806        3      -0.00144443       0.06260444      -0.11474345
Pt       4.21082091       5.67260997      22.29206741        3      -0.00409893       0.00278566      -0.02733569
Pt       7.01803487       5.67261038      22.29206779        3       0.05496369      -0.03009120      -0.11473916
Pt       9.82524821       5.67261068      22.29206808        3      -0.05350883      -0.03252243      -0.11472755
Pt      -0.00000053       1.62074567      24.58417372        2       0.00138178      -0.27820766       0.34261706
Pt       2.80721436       1.62074552      24.58417391        2      -0.00357128       0.00194658      -0.03595882
Pt       5.61442781       1.62074537      24.58417374        2      -0.00003763      -0.00403127      -0.03600893
Pt       1.40360639       4.05186438      24.58417385        2      -0.04224343       0.02498634      -0.12507151
Pt       4.21082087       4.05186396      24.58417384        2       0.00354936       0.00209513      -0.03622057
Pt       7.01803504       4.05186408      24.58417403        2       0.04290537       0.02407246      -0.12517540
Pt       2.80721276       6.48298348      24.58417381        2       0.24016291       0.14026916       0.34261477
Pt       5.61442804       6.48298329      24.58417396        2      -0.24148807       0.13794395       0.34257305
Pt       8.42164223       6.48298338      24.58417376        2      -0.00066553      -0.04907508      -0.12489715
Pt       0.00000125      -0.00000056      27.07455831        1      -0.00000305       0.00000989      -0.04855441
Pt       2.83682913      -0.00254676      26.89993440        1      -0.00013695       0.00304306      -0.00180171
Pt       5.58450616      -0.00256610      26.89841709        1      -0.00012342       0.00335801      -0.00168146
Pt       1.41635611       2.45832031      26.89843564        1       0.00295491      -0.00160954      -0.00165665
Pt       4.21082211       2.43112206      26.91800217        1       0.00000536      -0.00002432      -0.00407037
Pt       7.00544606       2.45804390      26.89992495        1      -0.00255756      -0.00167095      -0.00179211
Pt       2.79018526       4.83786140      26.89993776        1       0.00271819      -0.00136323      -0.00178282
Pt       5.63160428       4.83760653      26.89839311        1      -0.00284461      -0.00176437      -0.00167807
Pt       8.42164123       4.86223499      26.92751744        1      -0.00000575       0.00002156      -0.00439816
O        0.00000040      -0.00000049      30.08662295        0      -0.00000048       0.00000063       0.02656939
C        0.00000018      -0.00000002      28.92433032        0       0.00000023      -0.00000068       0.02414769
