38
Lattice="8.421641763931781 0.0 0.0 4.2108208819658905 7.293355709136913 0.0 0.0 0.0 46.87624170604845" Properties=species:S:1:pos:R:3:tags:I:1:forces:R:3 charge=0 spin=0 energy=-202.88603114724864 free_energy=-202.88603114724864 stress="0.009942448697984219 -2.1293189433890802e-08 2.0463126748637706e-09 -2.1293189433890802e-08 0.00994245894253254 -1.4608496634593848e-08 2.0463126748637706e-09 -1.4608496634593848e-08 -0.0004229280457366258" pbc="T T T"
Pt      -0.00000010      -0.00000005      19.95723451        4       0.01341174       0.00855926       0.00969177
Pt       2.80721394      -0.00000020      19.95723457        4      -0.00176369       0.00275323       0.01080243
Pt       5.61442787      -0.00000008      19.95723465        4      -0.01410525       0.00732705       0.00963288
Pt       1.40360721       2.43111841      19.95723445        4       0.00330054       0.00014327       0.01084895
Pt       4.21082082       2.43111837      19.95723453        4      -0.00153484      -0.00289168       0.01079003
Pt       7.01803480       2.43111844      19.95723439        4      -0.00030271      -0.00258509       0.02366459
Pt       2.80721416       4.86223734      19.95723425        4       0.00068904      -0.01588403       0.00964376
Pt       5.61442796       4.86223739      19.95723443        4      -0.00211844       0.00157679       0.02361898
Pt       8.42164143       4.86223725      19.95723447        4       0.00242399       0.00100068       0.02361970
Pt       1.40360729       0.81037262      22.29206795        3      -0.01993741      -0.01328831      -0.06292848
Pt       4.21082131       0.81037249      22.29206793        3       0.02150589      -0.01070013      -0.06294131
Pt       7.01803470       0.81037255      22.29206785        3       0.00192339      -0.06071237      -0.15863019
Pt       2.80721448       3.24149122      22.29206774        3      -0.00157587       0.02399955      -0.06305660
Pt       5.61442764       3.24149121      22.29206791        3      -0.00879847      -0.00925349      -0.02494670
Pt       8.42164154       3.24149129      22.29206806        3       0.01243313      -0.00298630      -0.02498569
Pt       4.21082091       5.67260997      22.29206741        3      -0.05349872       0.02876889      -0.15857211
Pt       7.01803487       5.67261038      22.29206779        3      -0.00363173       0.01223830      -0.02482704
Pt       9.82524821       5.67261068      22.29206808        3       0.05158205       0.03193689      -0.15863818
Pt      -0.00000053       1.62074567      24.58417372        2       0.07641562       0.05483675       0.11641493
Pt       2.80721436       1.62074552      24.58417391        2      -0.00000297      -0.00000083       0.13543400
Pt       5.61442781       1.62074537      24.58417374        2      -0.08163869       0.05722728       0.11801332
Pt       1.40360639       4.05186438      24.58417385        2      -0.00859874      -0.09927623       0.11781916
Pt       4.21082087       4.05186396      24.58417384        2       0.00916281      -0.09354879       0.11624134
Pt       7.01803504       4.05186408      24.58417403        2      -0.00000171       0.00000526      -0.01608961
Pt       2.80721276       6.48298348      24.58417381        2       0.00000999      -0.00000851      -0.21477146
Pt       5.61442804       6.48298329      24.58417396        2       0.09023162       0.04205246       0.11793714
Pt       8.42164223       6.48298338      24.58417376        2      -0.08558349       0.03871003       0.11624815
Pt      -0.01517956      -0.00992347      26.89738021        1      -0.03555827      -0.01941325      -0.00539434
Pt       2.80775744      -0.01810041      27.01779473        1       0.00088476      -0.01630672      -0.01612554
Pt       5.63060436      -0.00818037      26.89738178        1       0.03462260      -0.02109999      -0.00538959
Pt       1.38766368       2.43969658      27.01779428        1      -0.01458768       0.00738446      -0.01612234
Pt       4.22622587       2.44064096      27.01779333        1       0.01366746       0.00891626      -0.01611292
Pt       7.01876722       2.43481501      26.90937651        1       0.00069035      -0.00939871      -0.00031455
Pt       2.80620835       4.88033945      26.89737878        1       0.00095706       0.04052439      -0.00538686
Pt       5.61726051       4.85975567      26.90937552        1      -0.00847082       0.00410920      -0.00031276
Pt       8.41807339       4.86102418      26.90937917        1       0.00779912       0.00528246      -0.00032515
O        2.80721652       1.62074378      29.55135400        0       0.00000214       0.00000477       0.03800115
C        2.80721683       1.62074532      28.35093677        0      -0.00000395      -0.00000295       0.02744919
