38
Lattice="8.421641763931781 0.0 0.0 4.2108208819658905 7.293355709136913 0.0 0.0 0.0 46.87624170604845" Properties=species:S:1:pos:R:3:tags:I:1:forces:R:3 charge=0 spin=0 energy=-202.81940269113292 free_energy=-202.81940269113292 stress="0.009595590643584728 -8.260367678758485e-08 -4.608774695213924e-09 -8.260367678758485e-08 0.009595604613423347 -4.6355602023595566e-08 -4.608774695213924e-09 -4.6355602023595566e-08 -0.00033148526563309133" pbc="T T T"
Pt      -0.00000010      -0.00000005      19.95723451        4      -0.00000039       0.00000360      -0.06854936
Pt       2.80721394      -0.00000020      19.95723457        4      -0.00795181       0.00290351       0.01944081
Pt       5.61442787      -0.00000008      19.95723465        4       0.00901501       0.00290043       0.01999695
Pt       1.40360721       2.43111841      19.95723445        4      -0.00200286      -0.00926362       0.02001884
Pt       4.21082082       2.43111837      19.95723453        4       0.00000187       0.00000028       0.01782673
Pt       7.01803480       2.43111844      19.95723439        4       0.00147556      -0.00833716       0.01938196
Pt       2.80721416       4.86223734      19.95723425        4       0.00647265       0.00543228       0.01940465
Pt       5.61442796       4.86223739      19.95723443        4      -0.00701188       0.00636390       0.01996277
Pt       8.42164143       4.86223725      19.95723447        4       0.00000281      -0.00000382       0.02237140
Pt       1.40360729       0.81037262      22.29206795        3      -0.05333608      -0.03241850      -0.11422815
Pt       4.21082131       0.81037249      22.29206793        3      -0.00414271       0.00279477      -0.02747020
Pt       7.01803470       0.81037255      22.29206785        3       0.05479642      -0.02997437      -0.11424676
Pt       2.80721448       3.24149122      22.29206774        3       0.00447939       0.00226780      -0.02769432
Pt       5.61442764       3.24149121      22.29206791        3      -0.00034715      -0.00505585      -0.02772114
Pt       8.42164154       3.24149129      22.29206806        3       0.00584821      -0.00194676      -0.06354739
Pt       4.21082091       5.67260997      22.29206741        3      -0.00146434       0.06240033      -0.11422888
Pt       7.01803487       5.67261038      22.29206779        3      -0.00464183      -0.00412007      -0.06331506
Pt       9.82524821       5.67261068      22.29206808        3      -0.00119303       0.00605490      -0.06330682
Pt      -0.00000053       1.62074567      24.58417372        2      -0.00074822      -0.04999753      -0.12838413
Pt       2.80721436       1.62074552      24.58417391        2       0.24208869       0.14131126       0.34524027
Pt       5.61442781       1.62074537      24.58417374        2      -0.24334909       0.13911776       0.34519914
Pt       1.40360639       4.05186438      24.58417385        2      -0.00013877      -0.00393458      -0.03860236
Pt       4.21082087       4.05186396      24.58417384        2       0.00130252      -0.28039473       0.34523636
Pt       7.01803504       4.05186408      24.58417403        2      -0.00343584       0.00199941      -0.03854416
Pt       2.80721276       6.48298348      24.58417381        2       0.04376819       0.02443815      -0.12865037
Pt       5.61442804       6.48298329      24.58417396        2      -0.04300610       0.02551837      -0.12853459
Pt       8.42164223       6.48298338      24.58417376        2       0.00351244       0.00193871      -0.03879338
Pt      -0.00000137       0.00000013      26.92724274        1      -0.00000035      -0.00000149      -0.00282090
Pt       2.79009491      -0.02514987      26.89926962        1       0.00532244       0.00653744       0.00156726
Pt       5.63177746      -0.02531999      26.89769284        1      -0.00571846       0.00588851       0.00182578
Pt       1.37299923       2.42874752      26.89771326        1       0.00796563       0.00201141       0.00183742
Pt       4.21082103       2.43111862      27.07653646        1      -0.00000129       0.00000044      -0.00615380
Pt       7.04836977       2.42888109      26.89926297        1      -0.00832138       0.00134156       0.00156511
Pt       2.79399753       4.88962779      26.89925480        1       0.00299993      -0.00787508       0.00155894
Pt       5.62768711       4.88993089      26.89773540        1      -0.00223998      -0.00790100       0.00183863
Pt       8.42164346       4.86223772      26.91822103        1      -0.00000062      -0.00000082      -0.00344571
O        4.21082093       2.43111822      30.09112675        0      -0.00000093      -0.00000104      -0.00738777
C        4.21082088       2.43111832      28.92857277        0       0.00000142       0.00000169       0.00135224
