38
Lattice="8.421641763931781 0.0 0.0 4.2108208819658905 7.293355709136913 0.0 0.0 0.0 46.87624170604845" Properties=species:S:1:pos:R:3:tags:I:1:forces:R:3 charge=0 spin=0 energy=-202.91267966867198 free_energy=-202.91267966867198 stress="0.009917935356497765 6.250342909908113e-09 1.1920652243091467e-09 6.250342909908113e-09 0.009917954914271832 4.167642941865779e-08 1.1920652243091467e-09 4.167642941865779e-08 -0.0004363649932201952" pbc="T T T"
Pt      -0.00000010      -0.00000005      19.95723451        4      -0.01510847      -0.00889755       0.01074424
Pt       2.80721394      -0.00000020      19.95723457        4       0.01522094      -0.00864400       0.01075476
Pt       5.61442787      -0.00000008      19.95723465        4      -0.00268160       0.00268534       0.01331924
Pt       1.40360721       2.43111841      19.95723445        4      -0.00011356       0.01754984       0.01072427
Pt       4.21082082       2.43111837      19.95723453        4      -0.00086602      -0.00082577       0.01724128
Pt       7.01803480       2.43111844      19.95723439        4       0.00117317      -0.00034633       0.01718180
Pt       2.80721416       4.86223734      19.95723425        4       0.00368746       0.00097487       0.01334820
Pt       5.61442796       4.86223739      19.95723443        4      -0.00030622       0.00116710       0.01723199
Pt       8.42164143       4.86223725      19.95723447        4      -0.00100581      -0.00366420       0.01329023
Pt       1.40360729       0.81037262      22.29206795        3      -0.00000114       0.00000142      -0.28143513
Pt       4.21082131       0.81037249      22.29206793        3      -0.03870765      -0.00531084      -0.06537847
Pt       7.01803470       0.81037255      22.29206785        3       0.03318413      -0.01033022      -0.06678604
Pt       2.80721448       3.24149122      22.29206774        3      -0.02550235      -0.02363553      -0.06682654
Pt       5.61442764       3.24149121      22.29206791        3       0.00000226      -0.00000046      -0.00960565
Pt       8.42164154       3.24149129      22.29206806        3       0.02398497      -0.03095995      -0.06542972
Pt       4.21082091       5.67260997      22.29206741        3       0.01472139       0.03627791      -0.06541590
Pt       7.01803487       5.67261038      22.29206779        3      -0.00769274       0.03396773      -0.06673241
Pt       9.82524821       5.67261068      22.29206808        3       0.00000783      -0.00000974      -0.07411981
Pt      -0.00000053       1.62074567      24.58417372        2      -0.09296153       0.05537274       0.12028313
Pt       2.80721436       1.62074552      24.58417391        2       0.09436141       0.05275908       0.12029696
Pt       5.61442781       1.62074537      24.58417374        2       0.00032425       0.07095801       0.15456435
Pt       1.40360639       4.05186438      24.58417385        2       0.00229432      -0.02609477      -0.06616452
Pt       4.21082087       4.05186396      24.58417384        2       0.06132649      -0.03574355       0.15462461
Pt       7.01803504       4.05186408      24.58417403        2      -0.06163584      -0.03519171       0.15467907
Pt       2.80721276       6.48298348      24.58417381        2       0.02147907       0.01509842      -0.06631584
Pt       5.61442804       6.48298329      24.58417396        2      -0.00142453      -0.10812829       0.12025865
Pt       8.42164223       6.48298338      24.58417376        2      -0.02375792       0.01097028      -0.06624570
Pt       0.00320835       0.00122512      26.90697747        1      -0.00552076      -0.00224852       0.00032746
Pt       2.80455477       0.00216208      26.90697096        1       0.00470097      -0.00364714       0.00034158
Pt       5.61584268      -0.01931897      26.89884009        1      -0.00118123      -0.03353622      -0.00262069
Pt       1.40305742       2.42773296      26.90698513        1       0.00083461       0.00590162       0.00030445
Pt       4.18681246       2.41519812      27.01570347        1       0.00650198       0.00373039      -0.00287912
Pt       7.04381788       2.41829395      27.01570546        1      -0.00644067       0.00374395      -0.00289789
Pt       2.78978281       4.87067756      26.89885043        1      -0.02847925       0.01776925      -0.00265364
Pt       5.61264385       4.89098412      27.01570441        1      -0.00001571      -0.00747065      -0.00289599
Pt       8.43767538       4.87311783      26.89884891        1       0.02960260       0.01575980      -0.00265440
O        5.61442517       3.24149316      29.53989872        0      -0.00000639      -0.00000541       0.01432061
C        5.61442382       3.24149143      28.33849725        0       0.00000182       0.00000321       0.01322027
