38
Lattice="8.421641763931781 0.0 0.0 4.2108208819658905 7.293355709136913 0.0 0.0 0.0 46.87624170604845" Properties=species:S:1:pos:R:3:tags:I:1:forces:R:3 charge=0 spin=0 energy=-202.87920856118907 free_energy=-202.87920856118907 stress="0.009760419838130474 -0.0002803020179271698 -1.0179239325225353e-05 -0.0002803020179271698 0.010052227415144444 4.456398073671153e-06 -1.0179239325225353e-05 4.456398073671153e-06 -0.00035273763933219016" pbc="T T T"
Pt      -0.00000010      -0.00000005      19.95723451        4      -0.00330415      -0.00268359       0.00721885
Pt       2.80721394      -0.00000020      19.95723457        4       0.00224940       0.00060329       0.01982759
Pt       5.61442787      -0.00000008      19.95723465        4       0.00392971       0.00191124       0.01307229
Pt       1.40360721       2.43111841      19.95723445        4      -0.00179275       0.00292799       0.01780729
Pt       4.21082082       2.43111837      19.95723453        4       0.00835896       0.00394470       0.02552253
Pt       7.01803480       2.43111844      19.95723439        4       0.01073920      -0.01662948      -0.00635596
Pt       2.80721416       4.86223734      19.95723425        4       0.00015244       0.00296476       0.01507784
Pt       5.61442796       4.86223739      19.95723443        4      -0.00791888       0.01795545      -0.00395448
Pt       8.42164143       4.86223725      19.95723447        4      -0.00000040      -0.00021851       0.02184576
Pt       1.40360729       0.81037262      22.29206795        3      -0.00516102      -0.00447432      -0.06900632
Pt       4.21082131       0.81037249      22.29206793        3       0.02015506       0.01524562      -0.02027184
Pt       7.01803470       0.81037255      22.29206785        3      -0.00041512       0.03590862      -0.08306113
Pt       2.80721448       3.24149122      22.29206774        3       0.01190001       0.00881264      -0.01888530
Pt       5.61442764       3.24149121      22.29206791        3       0.06970928       0.04222255      -0.21883723
Pt       8.42164154       3.24149129      22.29206806        3      -0.05218449      -0.01858741      -0.11207543
Pt       4.21082091       5.67260997      22.29206741        3       0.03232585      -0.01932068      -0.08539434
Pt       7.01803487       5.67261038      22.29206779        3      -0.03940464      -0.03496515      -0.11157349
Pt       9.82524821       5.67261068      22.29206808        3      -0.00637825      -0.00195349      -0.00812239
Pt      -0.00000053       1.62074567      24.58417372        2      -0.02726620       0.02212216      -0.07668043
Pt       2.80721436       1.62074552      24.58417391        2       0.00501067      -0.00254042      -0.02961754
Pt       5.61442781       1.62074537      24.58417374        2      -0.03285968      -0.21447796       0.27076709
Pt       1.40360639       4.05186438      24.58417385        2       0.11354525       0.08170673       0.15458930
Pt       4.21082087       4.05186396      24.58417384        2      -0.18897586       0.07412817       0.27098462
Pt       7.01803504       4.05186408      24.58417403        2      -0.04225259      -0.02557377      -0.16009888
Pt       2.80721276       6.48298348      24.58417381        2      -0.06762417      -0.03753148       0.16136143
Pt       5.61442804       6.48298329      24.58417396        2       0.00932391      -0.03356759      -0.06885042
Pt       8.42164223       6.48298338      24.58417376        2       0.12009411       0.05863459       0.14782077
Pt       0.04231887       0.02537198      26.89056088        1      -0.02757711      -0.01784133       0.01070502
Pt       2.80432020      -0.00171402      26.90872663        1      -0.00546772      -0.00481211      -0.00049495
Pt       5.60335096       0.00428531      27.06507510        1       0.04058003       0.00711052      -0.01250358
Pt       1.40165531       2.42768670      26.90697604        1      -0.01119832      -0.00298114      -0.00208102
Pt       4.19927076       2.42403335      26.91242946        1       0.02376334       0.01222979      -0.01707773
Pt       7.00101230       2.42235659      26.90868144        1      -0.00037719       0.00326240      -0.00051478
Pt       2.80762398       4.85014425      27.06267752        1       0.01577497       0.04044843      -0.00198938
Pt       5.59874451       4.85174375      26.90930749        1       0.00332279      -0.00355602      -0.00021817
Pt       8.35723131       4.82396959      26.90186232        1       0.03247591       0.01825197      -0.02578765
O       10.45842626       6.03777230      29.69932373        0      -0.00451248      -0.00505010      -0.00941318
C       10.47291572       6.04572678      28.51111246        0       0.00126013      -0.00362686       0.00626538
