38
Lattice="8.421641763931781 0.0 0.0 4.2108208819658905 7.293355709136913 0.0 0.0 0.0 46.87624170604845" Properties=species:S:1:pos:R:3:tags:I:1:forces:R:3 charge=0 spin=0 energy=-202.87921142221202 free_energy=-202.87921142221202 stress="0.009736616164445877 0.00026666169287636876 9.796328868105775e-07 0.00026666169287636876 0.01007602084428072 -1.1137301044072956e-05 9.796328868105775e-07 -1.1137301044072956e-05 -0.00035268976353108883" pbc="T T T"
Pt      -0.00000010      -0.00000005      19.95723451        4       0.00904591       0.01764391      -0.00635456
Pt       2.80721394      -0.00000020      19.95723457        4      -0.00363501       0.00245585       0.01306173
Pt       5.61442787      -0.00000008      19.95723465        4       0.00020506       0.00010477       0.02178484
Pt       1.40360721       2.43111841      19.95723445        4       0.00400026      -0.00149320       0.00727914
Pt       4.21082082       2.43111837      19.95723453        4      -0.00267553      -0.00134722       0.01511830
Pt       7.01803480       2.43111844      19.95723439        4      -0.00162524      -0.00299891       0.01779047
Pt       2.80721416       4.86223734      19.95723425        4      -0.01159360      -0.01586205      -0.00391761
Pt       5.61442796       4.86223739      19.95723443        4      -0.00763321       0.00524110       0.02552228
Pt       8.42164143       4.86223725      19.95723447        4      -0.00162756       0.00161782       0.01977601
Pt       1.40360729       0.81037262      22.29206795        3      -0.03084139      -0.01831596      -0.08307737
Pt       4.21082131       0.81037249      22.29206793        3       0.00488542      -0.00461721      -0.00810218
Pt       7.01803470       0.81037255      22.29206785        3       0.04223182      -0.03594122      -0.11214284
Pt       2.80721448       3.24149122      22.29206774        3       0.00043178       0.03769409      -0.08540151
Pt       5.61442764       3.24149121      22.29206791        3      -0.01358568       0.00595238      -0.01886654
Pt       8.42164154       3.24149129      22.29206806        3       0.00649912      -0.00222624      -0.06903895
Pt       4.21082091       5.67260997      22.29206741        3      -0.07147178       0.03931537      -0.21880913
Pt       7.01803487       5.67261038      22.29206779        3      -0.02319010       0.00984098      -0.02021229
Pt       9.82524821       5.67261068      22.29206808        3       0.04994545      -0.01669345      -0.11157601
Pt      -0.00000053       1.62074567      24.58417372        2      -0.00559880      -0.03460647      -0.07665162
Pt       2.80721436       1.62074552      24.58417391        2       0.06631063      -0.03988120       0.16145849
Pt       5.61442781       1.62074537      24.58417374        2      -0.12748946       0.05760210       0.15467419
Pt       1.40360639       4.05186438      24.58417385        2       0.02446071       0.02496142      -0.06896037
Pt       4.21082087       4.05186396      24.58417384        2       0.03025832      -0.20081887       0.27102274
Pt       7.01803504       4.05186408      24.58417403        2      -0.00016480       0.00565826      -0.02963715
Pt       2.80721276       6.48298348      24.58417381        2       0.04314584      -0.02378270      -0.16018048
Pt       5.61442804       6.48298329      24.58417396        2       0.20207898       0.07856113       0.27078810
Pt       8.42164223       6.48298338      24.58417376        2      -0.11072818       0.07472186       0.14775275
Pt       0.01609923      -0.01035980      26.90868034        1      -0.00263473      -0.00195979      -0.00050897
Pt       2.80903955      -0.01173634      27.06507417        1      -0.02643833       0.03159420      -0.01251045
Pt       5.67977465      -0.03664880      26.90186265        1      -0.03205316       0.01901088      -0.02578399
Pt       1.36047400       2.45508355      26.89056105        1       0.02925034      -0.01497240       0.01070823
Pt       4.22108966       2.43751981      27.06268015        1      -0.04291643      -0.00655706      -0.00200386
Pt       7.02198444       2.43114391      26.90697585        1       0.00816837      -0.00820940      -0.00207907
Pt       2.82414412       4.85390212      26.90930741        1       0.00142054       0.00464962      -0.00021741
Pt       5.62633996       4.85577717      26.91243051        1      -0.02247848       0.01446055      -0.01707779
Pt       8.42457247       4.86058710      26.90872607        1       0.00690200      -0.00231962      -0.00049328
O        3.57799107       1.17613826      29.69932382        0       0.00662804      -0.00137879      -0.00956276
C        3.56385839       1.18471098      28.51111066        0       0.00251251       0.00289552       0.00642891
