38
Lattice="8.421641763931781 0.0 0.0 4.2108208819658905 7.293355709136913 0.0 0.0 0.0 46.87624170604845" Properties=species:S:1:pos:R:3:tags:I:1:forces:R:3 charge=0 spin=0 energy=-202.91206073404064 free_energy=-202.91206073404064 stress="0.009984036907553673 4.545672727118699e-09 -1.7534913521188855e-09 4.545672727118699e-09 0.009984053671360016 3.883775789859101e-08 -1.7534913521188855e-09 3.883775789859101e-08 -0.00030094539397396147" pbc="T T T"
Pt      -0.00000010      -0.00000005      19.95723451        4       0.01529707      -0.00876947       0.01067313
Pt       2.80721394      -0.00000020      19.95723457        4      -0.00267891       0.00279380       0.01343508
Pt       5.61442787      -0.00000008      19.95723465        4      -0.01525505      -0.00890182       0.01066643
Pt       1.40360721       2.43111841      19.95723445        4      -0.00094641      -0.00091798       0.01727262
Pt       4.21082082       2.43111837      19.95723453        4       0.00129714      -0.00036695       0.01721242
Pt       7.01803480       2.43111844      19.95723439        4      -0.00004458       0.01767723       0.01064482
Pt       2.80721416       4.86223734      19.95723425        4      -0.00035168       0.00128321       0.01727459
Pt       5.61442796       4.86223739      19.95723443        4      -0.00110288      -0.00371646       0.01340554
Pt       8.42164143       4.86223725      19.95723447        4       0.00378523       0.00091818       0.01345942
Pt       1.40360729       0.81037262      22.29206795        3      -0.03834847      -0.00538441      -0.06507353
Pt       4.21082131       0.81037249      22.29206793        3       0.03302800      -0.01040671      -0.06642624
Pt       7.01803470       0.81037255      22.29206785        3      -0.00000066       0.00000076      -0.27931654
Pt       2.80721448       3.24149122      22.29206774        3      -0.00000665       0.00000302      -0.01061400
Pt       5.61442764       3.24149121      22.29206791        3       0.02386310      -0.03061114      -0.06512341
Pt       8.42164154       3.24149129      22.29206806        3      -0.02548238      -0.02346435      -0.06646077
Pt       4.21082091       5.67260997      22.29206741        3      -0.00754649       0.03387807      -0.06635186
Pt       7.01803487       5.67261038      22.29206779        3      -0.00000365      -0.00000259      -0.07605981
Pt       9.82524821       5.67261068      22.29206808        3       0.01449508       0.03598678      -0.06512851
Pt      -0.00000053       1.62074567      24.58417372        2       0.09346726       0.05224815       0.12831220
Pt       2.80721436       1.62074552      24.58417391        2       0.00035955       0.06672060       0.15598647
Pt       5.61442781       1.62074537      24.58417374        2      -0.09206782       0.05485040       0.12830794
Pt       1.40360639       4.05186438      24.58417385        2       0.05764777      -0.03366697       0.15602711
Pt       4.21082087       4.05186396      24.58417384        2      -0.05798667      -0.03304818       0.15607169
Pt       7.01803504       4.05186408      24.58417403        2       0.00224140      -0.02790383      -0.05020924
Pt       2.80721276       6.48298348      24.58417381        2      -0.00139735      -0.10708988       0.12827249
Pt       5.61442804       6.48298329      24.58417396        2      -0.02529768       0.01191881      -0.05028607
Pt       8.42164223       6.48298338      24.58417376        2       0.02303816       0.01597186      -0.05033486
Pt      -0.00547057       0.00439510      26.91239531        1       0.02119276      -0.01530146      -0.01476688
Pt       2.80885985      -0.01968565      26.90198489        1      -0.00171046      -0.03630406      -0.01518934
Pt       5.62096884       0.00254051      26.91239891        1      -0.02384531      -0.01069483      -0.01477430
Pt       1.38040188       2.41598990      27.01293212        1       0.02510258       0.01400350       0.03319485
Pt       4.23552556       2.41859047      27.01293265        1      -0.02467570       0.01472163       0.03319386
Pt       7.01696638       2.42418461      26.91240909        1       0.00264271       0.02600108      -0.01480276
Pt       2.80571282       4.88989496      27.01292457        1      -0.00041542      -0.02873122       0.03321438
Pt       5.63065695       4.87350484      26.90198473        1       0.03229249       0.01667203      -0.01519058
Pt       8.40377134       4.87065689      26.90198704        1      -0.03059123       0.01963237      -0.01519444
O        2.80721203       3.24149525      29.54890401        0      -0.00000084      -0.00000034      -0.04361295
C        2.80721102       3.24149135      28.34771382        0       0.00000596       0.00000131      -0.03170913
