38
Lattice="8.421641763931781 0.0 0.0 4.2108208819658905 7.293355709136913 0.0 0.0 0.0 46.87624170604845" Properties=species:S:1:pos:R:3:tags:I:1:forces:R:3 charge=0 spin=0 energy=-202.8856334650587 free_energy=-202.8856334650587 stress="0.010025977157056332 -1.8038390336982957e-08 1.4401567716149088e-09 -1.8038390336982957e-08 0.010025989264249802 -1.2101702751010635e-08 1.4401567716149088e-09 -1.2101702751010635e-08 -0.0002533125807531178" pbc="T T T"
Pt      -0.00000010      -0.00000005      19.95723451        4      -0.01414382       0.00739416       0.00972177
Pt       2.80721394      -0.00000020      19.95723457        4       0.01348851       0.00855829       0.00978282
Pt       5.61442787      -0.00000008      19.95723465        4      -0.00174602       0.00237333       0.01088570
Pt       1.40360721       2.43111841      19.95723445        4      -0.00025618      -0.00273102       0.02368704
Pt       4.21082082       2.43111837      19.95723453        4       0.00296369       0.00031525       0.01093383
Pt       7.01803480       2.43111844      19.95723439        4      -0.00121671      -0.00268639       0.01087703
Pt       2.80721416       4.86223734      19.95723425        4       0.00252202       0.00111376       0.02364695
Pt       5.61442796       4.86223739      19.95723443        4       0.00065390      -0.01595031       0.00972442
Pt       8.42164143       4.86223725      19.95723447        4      -0.00226512       0.00161266       0.02364203
Pt       1.40360729       0.81037262      22.29206795        3       0.00170151      -0.06045929      -0.15735146
Pt       4.21082131       0.81037249      22.29206793        3      -0.01968508      -0.01314984      -0.06404221
Pt       7.01803470       0.81037255      22.29206785        3       0.02126350      -0.01055360      -0.06405265
Pt       2.80721448       3.24149122      22.29206774        3       0.01260325      -0.00309771      -0.02490661
Pt       5.61442764       3.24149121      22.29206791        3      -0.00157482       0.02371063      -0.06416015
Pt       8.42164154       3.24149129      22.29206806        3      -0.00898595      -0.00935337      -0.02487260
Pt       4.21082091       5.67260997      22.29206741        3       0.05145901       0.03162998      -0.15734600
Pt       7.01803487       5.67261038      22.29206779        3      -0.05316757       0.02882928      -0.15731606
Pt       9.82524821       5.67261068      22.29206808        3      -0.00361148       0.01244591      -0.02476436
Pt      -0.00000053       1.62074567      24.58417372        2      -0.07809161       0.05617369       0.13056172
Pt       2.80721436       1.62074552      24.58417391        2       0.07197919       0.05318128       0.12816228
Pt       5.61442781       1.62074537      24.58417374        2      -0.00000464       0.00000846       0.13736790
Pt       1.40360639       4.05186438      24.58417385        2       0.00001136      -0.00000399      -0.01225217
Pt       4.21082087       4.05186396      24.58417384        2      -0.00946645      -0.09568539       0.13038348
Pt       7.01803504       4.05186408      24.58417403        2       0.00992728      -0.08888589       0.12799209
Pt       2.80721276       6.48298348      24.58417381        2      -0.08190169       0.03569986       0.12798841
Pt       5.61442804       6.48298329      24.58417396        2      -0.00000842      -0.00000383      -0.20296161
Pt       8.42164223       6.48298338      24.58417376        2       0.08755142       0.03951165       0.13047867
Pt       0.01800185      -0.00880378      26.90097396        1       0.02580757      -0.01672048      -0.01858252
Pt       2.79058679      -0.01119161      26.90097209        1      -0.02738022      -0.01396349      -0.01857355
Pt       5.61591292      -0.01863850      27.01582141        1      -0.00245775       0.02899615       0.02585617
Pt       1.40421029       2.43915551      26.91493369        1       0.00031726      -0.03457595      -0.01562771
Pt       4.19394017       2.43914937      27.01583008        1       0.02630739      -0.01234953       0.02580879
Pt       7.03343488       2.44172337      27.01582603        1      -0.02388017      -0.01662106       0.02583710
Pt       2.79994909       4.85874309      26.91493140        1       0.02979816       0.01753550      -0.01562169
Pt       5.61304753       4.88223056      26.90097375        1       0.00158092       0.03069504      -0.01858116
Pt       8.42829690       4.85769741      26.91492347        1      -0.03008987       0.01700732      -0.01558961
O        5.61443197       1.62074324      29.56202558        0       0.00000507      -0.00000672      -0.03933804
C        5.61443172       1.62074324      28.36171389        0      -0.00000738       0.00000566      -0.02739810
