38
Lattice="8.421641763931781 0.0 0.0 4.2108208819658905 7.293355709136913 0.0 0.0 0.0 46.87624170604845" Properties=species:S:1:pos:R:3:tags:I:1:forces:R:3 charge=0 spin=0 energy=-202.88563155771007 free_energy=-202.88563155771007 stress="0.01002597063779831 -1.84335480213349e-08 3.765558975743488e-09 -1.84335480213349e-08 0.010026000440120697 -1.1785641795825086e-08 3.765558975743488e-09 -1.1785641795825086e-08 -0.0002534343511797488" pbc="T T T"
Pt      -0.00000010      -0.00000005      19.95723451        4       0.00296100       0.00031879       0.01093006
Pt       2.80721394      -0.00000020      19.95723457        4      -0.00121593      -0.00268262       0.01087455
Pt       5.61442787      -0.00000008      19.95723465        4      -0.00025653      -0.00272996       0.02368420
Pt       1.40360721       2.43111841      19.95723445        4       0.00065390      -0.01594406       0.00972915
Pt       4.21082082       2.43111837      19.95723453        4      -0.00226630       0.00161575       0.02364302
Pt       7.01803480       2.43111844      19.95723439        4       0.00252393       0.00111724       0.02364171
Pt       2.80721416       4.86223734      19.95723425        4       0.01348607       0.00855154       0.00979079
Pt       5.61442796       4.86223739      19.95723443        4      -0.00174542       0.00236583       0.01088347
Pt       8.42164143       4.86223725      19.95723447        4      -0.01413969       0.00738782       0.00972457
Pt       1.40360729       0.81037262      22.29206795        3      -0.00157849       0.02371154      -0.06415886
Pt       4.21082131       0.81037249      22.29206793        3      -0.00899078      -0.00934902      -0.02487311
Pt       7.01803470       0.81037255      22.29206785        3       0.01260971      -0.00309999      -0.02490561
Pt       2.80721448       3.24149122      22.29206774        3      -0.05317120       0.02883598      -0.15732032
Pt       5.61442764       3.24149121      22.29206791        3      -0.00361819       0.01245615      -0.02476234
Pt       8.42164154       3.24149129      22.29206806        3       0.05146741       0.03162989      -0.15736395
Pt       4.21082091       5.67260997      22.29206741        3      -0.01968853      -0.01315438      -0.06402537
Pt       7.01803487       5.67261038      22.29206779        3       0.02126050      -0.01055863      -0.06404935
Pt       9.82524821       5.67261068      22.29206808        3       0.00171118      -0.06047159      -0.15735509
Pt      -0.00000053       1.62074567      24.58417372        2      -0.00946375      -0.09569313       0.13038488
Pt       2.80721436       1.62074552      24.58417391        2       0.00992902      -0.08888984       0.12799618
Pt       5.61442781       1.62074537      24.58417374        2       0.00000276      -0.00000054      -0.01224606
Pt       1.40360639       4.05186438      24.58417385        2       0.00000129       0.00000102      -0.20296517
Pt       4.21082087       4.05186396      24.58417384        2       0.08756041       0.03952017       0.13047180
Pt       7.01803504       4.05186408      24.58417403        2      -0.08191843       0.03571167       0.12799074
Pt       2.80721276       6.48298348      24.58417381        2       0.07199350       0.05317346       0.12815481
Pt       5.61442804       6.48298329      24.58417396        2      -0.00000519       0.00000183       0.13736197
Pt       8.42164223       6.48298338      24.58417376        2      -0.07810391       0.05617210       0.13056582
Pt      -0.01688074       0.00803092      27.01582978        1       0.02630603      -0.01235345       0.02581442
Pt       2.82261401       0.01060473      27.01582638        1      -0.02387576      -0.01662101       0.02582783
Pt       5.61503076       0.00803704      26.91493475        1       0.00032058      -0.03457391      -0.01562593
Pt       1.40222660       2.45111242      26.90097368        1       0.00158027       0.03069065      -0.01857857
Pt       4.21747625       2.42657870      26.91492413        1      -0.03008722       0.01700569      -0.01559544
Pt       7.01077056       2.42762476      26.91493164        1       0.02979595       0.01753375      -0.01561932
Pt       2.79058592       4.85104505      26.90097141        1      -0.02737628      -0.01396040      -0.01856927
Pt       5.61591330       4.84359822      27.01582047        1      -0.00245992       0.02900098       0.02585968
Pt       8.43964400       4.85343336      26.90097457        1       0.02580214      -0.01671690      -0.01857891
O        5.61443184       6.48298017      29.56202366        0       0.00000067      -0.00000924      -0.03905698
C        5.61443148       6.48298015      28.36171493        0      -0.00000466       0.00000693      -0.02768037
