38
Lattice="8.421641763931781 0.0 0.0 4.2108208819658905 7.293355709136913 0.0 0.0 0.0 46.87624170604845" Properties=species:S:1:pos:R:3:tags:I:1:forces:R:3 charge=0 spin=0 energy=-202.81936835885753 free_energy=-202.81936835885753 stress="0.009599278680980206 -8.652945382436883e-08 -4.688207599912175e-09 -8.652945382436883e-08 0.009599284268915653 -4.8484540826621014e-08 -4.688207599912175e-09 -4.8484540826621014e-08 -0.0003772947529796511" pbc="T T T"
Pt      -0.00000010      -0.00000005      19.95723451        4       0.00646207       0.00539825       0.01943476
Pt       2.80721394      -0.00000020      19.95723457        4      -0.00700064       0.00633213       0.01999594
Pt       5.61442787      -0.00000008      19.95723465        4      -0.00000074       0.00000236       0.02237032
Pt       1.40360721       2.43111841      19.95723445        4       0.00000091       0.00000238      -0.06873544
Pt       4.21082082       2.43111837      19.95723453        4      -0.00790819       0.00291013       0.01948218
Pt       7.01803480       2.43111844      19.95723439        4       0.00897334       0.00290629       0.02003065
Pt       2.80721416       4.86223734      19.95723425        4      -0.00197756      -0.00923886       0.02005486
Pt       5.61442796       4.86223739      19.95723443        4       0.00000023      -0.00000408       0.01772633
Pt       8.42164143       4.86223725      19.95723447        4       0.00145071      -0.00830917       0.01941960
Pt       1.40360729       0.81037262      22.29206795        3      -0.00144953       0.06260475      -0.11474111
Pt       4.21082131       0.81037249      22.29206793        3      -0.00462010      -0.00409654      -0.06353410
Pt       7.01803470       0.81037255      22.29206785        3      -0.00119834       0.00604169      -0.06352124
Pt       2.80721448       3.24149122      22.29206774        3      -0.05352442      -0.03250885      -0.11472608
Pt       5.61442764       3.24149121      22.29206791        3      -0.00409276       0.00278465      -0.02735302
Pt       8.42164154       3.24149129      22.29206806        3       0.05497127      -0.03008745      -0.11474256
Pt       4.21082091       5.67260997      22.29206741        3       0.00445550       0.00222723      -0.02756335
Pt       7.01803487       5.67261038      22.29206779        3      -0.00037194      -0.00501678      -0.02760493
Pt       9.82524821       5.67261068      22.29206808        3       0.00582981      -0.00194871      -0.06376451
Pt      -0.00000053       1.62074567      24.58417372        2       0.04291216       0.02406782      -0.12518093
Pt       2.80721436       1.62074552      24.58417391        2      -0.04225301       0.02498589      -0.12506941
Pt       5.61442781       1.62074537      24.58417374        2       0.00354774       0.00209417      -0.03621434
Pt       1.40360639       4.05186438      24.58417385        2      -0.00065035      -0.04906972      -0.12490992
Pt       4.21082087       4.05186396      24.58417384        2       0.24015161       0.14028603       0.34261671
Pt       7.01803504       4.05186408      24.58417403        2      -0.24149001       0.13795263       0.34257856
Pt       2.80721276       6.48298348      24.58417381        2      -0.00002303      -0.00404468      -0.03602117
Pt       5.61442804       6.48298329      24.58417396        2       0.00137508      -0.27821216       0.34261411
Pt       8.42164223       6.48298338      24.58417376        2      -0.00357635       0.00194134      -0.03596066
Pt      -0.01258867       0.02692533      26.89992402        1      -0.00255489      -0.00167508      -0.00178594
Pt       2.81996382       0.02720209      26.89843498        1       0.00295015      -0.00161285      -0.00165578
Pt       5.61442887       0.00000321      26.91800394        1       0.00000602      -0.00002034      -0.00406744
Pt       1.40360640       2.43111627      26.92751752        1      -0.00000190       0.00001987      -0.00439772
Pt       4.19379212       2.40674284      26.89993831        1       0.00272325      -0.00136076      -0.00178038
Pt       7.03521183       2.40648770      26.89839339        1      -0.00285272      -0.00176116      -0.00167589
Pt       2.77729176       4.85967092      26.89841505        1      -0.00011614       0.00335670      -0.00167646
Pt       5.61442833       4.86223638      27.07456045        1      -0.00000120       0.00000794      -0.04856212
Pt       8.45125730       4.85969031      26.89993346        1      -0.00014705       0.00304499      -0.00179232
O        5.61442806       4.86223680      30.08662414        0      -0.00000110       0.00000023       0.02656973
C        5.61442780       4.86223718      28.92433082        0       0.00000201      -0.00000003       0.02414251
