38
Lattice="8.421641763931781 0.0 0.0 4.2108208819658905 7.293355709136913 0.0 0.0 0.0 46.87624170604845" Properties=species:S:1:pos:R:3:tags:I:1:forces:R:3 charge=0 spin=0 energy=-202.88632297158946 free_energy=-202.88632297158946 stress="0.01000885758548975 -1.9452160771038507e-08 -4.1796066607702187e-10 -1.9452160771038507e-08 0.010008868761360645 -1.0670912153898371e-08 -4.1796066607702187e-10 -1.0670912153898371e-08 -0.00029512454057112336" pbc="T T T"
Pt      -0.00000010      -0.00000005      19.95723451        4      -0.00248589       0.00173267       0.02371465
Pt       2.80721394      -0.00000020      19.95723457        4       0.00273190       0.00124957       0.02371389
Pt       5.61442787      -0.00000008      19.95723465        4       0.00064484      -0.01587607       0.00965920
Pt       1.40360721       2.43111841      19.95723445        4      -0.00175068       0.00274627       0.01099287
Pt       4.21082082       2.43111837      19.95723453        4      -0.01407735       0.00736405       0.00965894
Pt       7.01803480       2.43111844      19.95723439        4       0.01343330       0.00851439       0.00971935
Pt       2.80721416       4.86223734      19.95723425        4      -0.00154059      -0.00288151       0.01098538
Pt       5.61442796       4.86223739      19.95723443        4      -0.00024705      -0.00298034       0.02375666
Pt       8.42164143       4.86223725      19.95723447        4       0.00329190       0.00013076       0.01103574
Pt       1.40360729       0.81037262      22.29206795        3      -0.00368693       0.01226077      -0.02590376
Pt       4.21082131       0.81037249      22.29206793        3       0.05155914       0.03178947      -0.15754323
Pt       7.01803470       0.81037255      22.29206785        3      -0.05335148       0.02883921      -0.15749350
Pt       2.80721448       3.24149122      22.29206774        3       0.02125454      -0.01056477      -0.06246467
Pt       5.61442764       3.24149121      22.29206791        3       0.00179415      -0.06062084      -0.15753686
Pt       8.42164154       3.24149129      22.29206806        3      -0.01969053      -0.01314176      -0.06245086
Pt       4.21082091       5.67260997      22.29206741        3      -0.00879211      -0.00931109      -0.02600322
Pt       7.01803487       5.67261038      22.29206779        3       0.01246911      -0.00294987      -0.02605398
Pt       9.82524821       5.67261068      22.29206808        3      -0.00155687       0.02370198      -0.06257266
Pt      -0.00000053       1.62074567      24.58417372        2       0.09283704       0.04240318       0.12934454
Pt       2.80721436       1.62074552      24.58417391        2      -0.08745510       0.03871123       0.12688841
Pt       5.61442781       1.62074537      24.58417374        2      -0.00000155       0.00000294      -0.23093407
Pt       1.40360639       4.05186438      24.58417385        2       0.00000380       0.00000059       0.14669646
Pt       4.21082087       4.05186396      24.58417384        2      -0.08323541       0.05930270       0.12941642
Pt       7.01803504       4.05186408      24.58417403        2       0.07734391       0.05647330       0.12704355
Pt       2.80721276       6.48298348      24.58417381        2       0.01011563      -0.09518817       0.12689337
Pt       5.61442804       6.48298329      24.58417396        2      -0.00000442      -0.00000439       0.00365157
Pt       8.42164223       6.48298338      24.58417376        2      -0.00960366      -0.10170826       0.12923297
Pt       0.00116758      -0.00107469      26.91394922        1       0.00695585      -0.00564088      -0.01662495
Pt       2.80569969      -0.00047390      26.91395073        1      -0.00836063      -0.00320785      -0.01662336
Pt       5.61336287       0.02478948      26.89887762        1       0.00087164      -0.01390338      -0.00274037
Pt       1.40509013       2.41236607      27.01984486        1      -0.00252778       0.01113385      -0.00531451
Pt       4.23282311       2.41964393      26.89887692        1      -0.01247738       0.00620092      -0.00273574
Pt       6.99709796       2.41779980      26.89887587        1       0.01160508       0.00770887      -0.00273492
Pt       2.82271297       4.87289716      27.01984247        1      -0.00837729      -0.00775814      -0.00531329
Pt       5.61477453       4.86378438      26.91395041        1       0.00140656       0.00884511      -0.01662531
Pt       8.40466066       4.87032763      27.01984451        1       0.01090430      -0.00336936      -0.00532018
O        9.82525006       4.05186737      29.55952875        0       0.00000148      -0.00000445      -0.01318541
C        9.82524942       4.05186572      28.35899521        0      -0.00000156      -0.00000063       0.00377082
