38
Lattice="8.421641763931781 0.0 0.0 4.2108208819658905 7.293355709136913 0.0 0.0 0.0 46.87624170604845" Properties=species:S:1:pos:R:3:tags:I:1:forces:R:3 charge=0 spin=0 energy=-202.91206073404064 free_energy=-202.91206073404064 stress="0.00998404435813427 1.9050101496276284e-09 -3.8548983449793184e-10 1.9050101496276284e-09 0.009984050877392292 4.041933365783734e-08 -3.8548983449793184e-10 4.041933365783734e-08 -0.00030080327996984124" pbc="T T T"
Pt      -0.00000010      -0.00000005      19.95723451        4      -0.00094774      -0.00091701       0.01726834
Pt       2.80721394      -0.00000020      19.95723457        4       0.00129487      -0.00036359       0.01721096
Pt       5.61442787      -0.00000008      19.95723465        4      -0.00004378       0.01768013       0.01064251
Pt       1.40360721       2.43111841      19.95723445        4      -0.00034845       0.00128835       0.01726961
Pt       4.21082082       2.43111837      19.95723453        4      -0.00110115      -0.00371231       0.01340953
Pt       7.01803480       2.43111844      19.95723439        4       0.00378089       0.00092101       0.01346114
Pt       2.80721416       4.86223734      19.95723425        4       0.01529540      -0.00877579       0.01068290
Pt       5.61442796       4.86223739      19.95723443        4      -0.00267863       0.00278619       0.01343313
Pt       8.42164143       4.86223725      19.95723447        4      -0.01525169      -0.00890778       0.01066753
Pt       1.40360729       0.81037262      22.29206795        3      -0.00000067       0.00000121      -0.01060997
Pt       4.21082131       0.81037249      22.29206793        3       0.02385990      -0.03060637      -0.06512496
Pt       7.01803470       0.81037255      22.29206785        3      -0.02548629      -0.02346396      -0.06646036
Pt       2.80721448       3.24149122      22.29206774        3      -0.00754893       0.03388059      -0.06637043
Pt       5.61442764       3.24149121      22.29206791        3       0.00000214       0.00000102      -0.07606208
Pt       8.42164154       3.24149129      22.29206806        3       0.01448990       0.03599831      -0.06512794
Pt       4.21082091       5.67260997      22.29206741        3      -0.03835098      -0.00538401      -0.06505749
Pt       7.01803487       5.67261038      22.29206779        3       0.03302560      -0.01041466      -0.06642197
Pt       9.82524821       5.67261068      22.29206808        3       0.00000853      -0.00001096      -0.27931821
Pt      -0.00000053       1.62074567      24.58417372        2       0.05764600      -0.03367053       0.15603149
Pt       2.80721436       1.62074552      24.58417391        2      -0.05799020      -0.03305389       0.15608005
Pt       5.61442781       1.62074537      24.58417374        2       0.00224285      -0.02790409      -0.05020572
Pt       1.40360639       4.05186438      24.58417385        2      -0.00140339      -0.10708085       0.12827334
Pt       4.21082087       4.05186396      24.58417384        2      -0.02529309       0.01192876      -0.05028516
Pt       7.01803504       4.05186408      24.58417403        2       0.02304170       0.01597929      -0.05033910
Pt       2.80721276       6.48298348      24.58417381        2       0.09347650       0.05224173       0.12831001
Pt       5.61442804       6.48298329      24.58417396        2       0.00035822       0.06671692       0.15598400
Pt       8.42164223       6.48298338      24.58417376        2      -0.09207434       0.05484300       0.12831116
Pt      -0.02320530      -0.01512855      27.01293258        1       0.02510375       0.01400322       0.03319950
Pt       2.83191874      -0.01252826      27.01293325        1      -0.02467707       0.01472490       0.03319139
Pt       5.61335911      -0.00693388      26.91240985        1       0.00264453       0.02600133      -0.01480780
Pt       1.40210598       2.45877677      27.01292550        1      -0.00041165      -0.02873569       0.03321384
Pt       4.22705015       2.44238584      26.90198503        1       0.03228951       0.01667162      -0.01519031
Pt       7.00016468       2.43953809      26.90198722        1      -0.03059197       0.01963241      -0.01519407
Pt       2.80174322       4.86663235      26.91239462        1       0.02119412      -0.01530115      -0.01476769
Pt       5.61607389       4.84255154      26.90198429        1      -0.00171369      -0.03630494      -0.01519067
Pt       8.42818257       4.86477775      26.91239750        1      -0.02384529      -0.01069315      -0.01477087
O        1.40360536       0.81037650      29.54890908        0      -0.00000166      -0.00000146      -0.04390149
C        1.40360447       0.81037296      28.34771282        0       0.00000623       0.00000230      -0.03143425
