38
Lattice="8.421641763931781 0.0 0.0 4.2108208819658905 7.293355709136913 0.0 0.0 0.0 46.87624170604845" Properties=species:S:1:pos:R:3:tags:I:1:forces:R:3 charge=0 spin=0 energy=-202.87981223703136 free_energy=-202.87981223703136 stress="0.009697548113763332 0.00024411460617557168 -2.4669569029356353e-05 0.00024411460617557168 0.010018077678978443 7.313918558793375e-06 -2.4669569029356353e-05 7.313918558793375e-06 -0.0004381126491352916" pbc="T T T"
Pt      -0.00000010      -0.00000005      19.95723451        4      -0.00066350      -0.00345610       0.01794777
Pt       2.80721394      -0.00000020      19.95723457        4       0.00499873      -0.00181550       0.00692859
Pt       5.61442787      -0.00000008      19.95723465        4      -0.00205141      -0.00165600       0.01515265
Pt       1.40360721       2.43111841      19.95723445        4      -0.00049911       0.00112129       0.01986078
Pt       4.21082082       2.43111837      19.95723453        4      -0.01080003      -0.01667918      -0.00444496
Pt       7.01803480       2.43111844      19.95723439        4      -0.00658126       0.00488840       0.02542788
Pt       2.80721416       4.86223734      19.95723425        4       0.00109756      -0.00030058       0.02187242
Pt       5.61442796       4.86223739      19.95723443        4       0.01033871       0.01756754      -0.00683630
Pt       8.42164143       4.86223725      19.95723447        4      -0.00295446       0.00237116       0.01297592
Pt       1.40360729       0.81037262      22.29206795        3       0.01009241      -0.00415385      -0.06890693
Pt       4.21082131       0.81037249      22.29206793        3       0.00321432       0.03631736      -0.08314668
Pt       7.01803470       0.81037255      22.29206785        3      -0.01038667       0.00302406      -0.01665245
Pt       2.80721448       3.24149122      22.29206774        3       0.05316314      -0.01751775      -0.11229371
Pt       5.61442764       3.24149121      22.29206791        3      -0.07033699       0.03828300      -0.21955737
Pt       8.42164154       3.24149129      22.29206806        3      -0.01896820       0.00847744      -0.01816640
Pt       4.21082091       5.67260997      22.29206741        3       0.04509574      -0.03853155      -0.11345762
Pt       7.01803487       5.67261038      22.29206779        3      -0.02837001      -0.02039263      -0.08093379
Pt       9.82524821       5.67261068      22.29206808        3       0.00812703      -0.00674161      -0.00988652
Pt      -0.00000053       1.62074567      24.58417372        2      -0.01225944       0.01234202      -0.03464413
Pt       2.80721436       1.62074552      24.58417391        2       0.01560588       0.02767522      -0.08025351
Pt       5.61442781       1.62074537      24.58417374        2       0.01987679      -0.19909810       0.26488048
Pt       1.40360639       4.05186438      24.58417385        2      -0.13632666       0.07605898       0.12947288
Pt       4.21082087       4.05186396      24.58417384        2       0.03906659      -0.02249446      -0.18811539
Pt       7.01803504       4.05186408      24.58417403        2       0.19401094       0.08525824       0.26345021
Pt       2.80721276       6.48298348      24.58417381        2      -0.14226817       0.07909635       0.13633946
Pt       5.61442804       6.48298329      24.58417396        2      -0.01137874      -0.02855511      -0.08880404
Pt       8.42164223       6.48298338      24.58417376        2       0.05733009      -0.03446653       0.14905922
Pt      -0.00592214       0.00552191      26.90359387        1      -0.01141559       0.00245136       0.01049287
Pt       2.75394870       0.03052530      26.88953077        1       0.01052792      -0.00653643       0.02184076
Pt       5.60576876       0.01334270      27.06280351        1      -0.00409621       0.00014372       0.00019519
Pt       1.39580316       2.43553463      26.90576328        1      -0.00843484       0.00622377       0.00937919
Pt       4.21463651       2.43289966      26.90672046        1       0.00207341      -0.00485041       0.01035837
Pt       7.01475247       2.43261411      26.90885698        1      -0.00342037       0.00203262      -0.00842754
Pt       2.85314894       4.83655785      26.88766353        1      -0.01326177       0.00733754       0.01919379
Pt       5.61472706       4.85798161      26.90608237        1       0.00529775       0.00135844       0.01042836
Pt       8.40528914       4.86167048      27.06405485        1      -0.00155817       0.00431246      -0.00060183
O        9.13216789       6.07233070      29.70210006        0       0.01076499      -0.00629171      -0.01726384
C        9.13290403       6.07199195      28.51385334        0       0.00534953      -0.00280366       0.00713628
