38
Lattice="8.421641763931781 0.0 0.0 4.2108208819658905 7.293355709136913 0.0 0.0 0.0 46.87624170604845" Properties=species:S:1:pos:R:3:tags:I:1:forces:R:3 charge=0 spin=0 energy=-202.81927203775157 free_energy=-202.81927203775157 stress="0.009581424295902252 -5.727538621158601e-08 3.132496999569412e-07 -5.727538621158601e-08 0.009581536054611206 -1.3965225775791623e-07 3.132496999569412e-07 -1.3965225775791623e-07 -0.0003886585764121264" pbc="T T T"
Pt      -0.00000010      -0.00000005      19.95723451        4      -0.00001798       0.00001557      -0.06919368
Pt       2.80721394      -0.00000020      19.95723457        4      -0.00794420       0.00285203       0.01959121
Pt       5.61442787      -0.00000008      19.95723465        4       0.00908583       0.00283634       0.02008550
Pt       1.40360721       2.43111841      19.95723445        4      -0.00209205      -0.00929407       0.02011589
Pt       4.21082082       2.43111837      19.95723453        4       0.00000804       0.00000183       0.01755504
Pt       7.01803480       2.43111844      19.95723439        4       0.00151962      -0.00830173       0.01951538
Pt       2.80721416       4.86223734      19.95723425        4       0.00642908       0.00544468       0.01954526
Pt       5.61442796       4.86223739      19.95723443        4      -0.00698873       0.00645692       0.02006301
Pt       8.42164143       4.86223725      19.95723447        4       0.00001277      -0.00000793       0.02220590
Pt       1.40360729       0.81037262      22.29206795        3      -0.05364452      -0.03254519      -0.11440317
Pt       4.21082131       0.81037249      22.29206793        3      -0.00398551       0.00293468      -0.02820663
Pt       7.01803470       0.81037255      22.29206785        3       0.05506580      -0.03020657      -0.11449132
Pt       2.80721448       3.24149122      22.29206774        3       0.00456756       0.00205694      -0.02837233
Pt       5.61442764       3.24149121      22.29206791        3      -0.00052590      -0.00501500      -0.02841420
Pt       8.42164154       3.24149129      22.29206806        3       0.00575948      -0.00196471      -0.06338785
Pt       4.21082091       5.67260997      22.29206741        3      -0.00137274       0.06273876      -0.11441150
Pt       7.01803487       5.67261038      22.29206779        3      -0.00456642      -0.00402144      -0.06317493
Pt       9.82524821       5.67261068      22.29206808        3      -0.00110740       0.00596106      -0.06317657
Pt      -0.00000053       1.62074567      24.58417372        2      -0.00031272      -0.04761220      -0.12912409
Pt       2.80721436       1.62074552      24.58417391        2       0.23525673       0.13830610       0.34109679
Pt       5.61442781       1.62074537      24.58417374        2      -0.23689096       0.13471891       0.34051201
Pt       1.40360639       4.05186438      24.58417385        2       0.00204793      -0.00531059      -0.03979874
Pt       4.21082087       4.05186396      24.58417384        2       0.00186636      -0.27296135       0.34093705
Pt       7.01803504       4.05186408      24.58417403        2      -0.00587414       0.00057568      -0.03972941
Pt       2.80721276       6.48298348      24.58417381        2       0.04153522       0.02367904      -0.12956224
Pt       5.61442804       6.48298329      24.58417396        2      -0.04136219       0.02403553      -0.12949048
Pt       8.42164223       6.48298338      24.58417376        2       0.00343584       0.00465130      -0.04006036
Pt      -0.00012577       0.00005438      26.92445123        1       0.00016272      -0.00009723       0.00753870
Pt       2.78979546      -0.02552786      26.90050154        1       0.00460303       0.00870172      -0.00336462
Pt       5.63128484      -0.02669206      26.89939295        1      -0.00289729       0.01117312      -0.00469585
Pt       1.37200756       2.42982454      26.89952539        1       0.01068296      -0.00303130      -0.00496127
Pt       4.21066949       2.43116980      27.06841562        1       0.00075637      -0.00025567      -0.01481366
Pt       7.04884747       2.42898047      26.90058359        1      -0.01025308      -0.00055243      -0.00373351
Pt       2.79361857       4.88998018      26.90050110        1       0.00541462      -0.00809513      -0.00339382
Pt       5.62895644       4.89029456      26.89945180        1      -0.00796094      -0.00804384      -0.00471286
Pt       8.42152049       4.86226562      26.91542329        1       0.00015030      -0.00001240       0.00905827
O        4.21182741       2.43076812      30.08158958        0       0.00031870      -0.00010669       0.01059641
C        4.21154470       2.43087170      28.91916090        0      -0.00088198       0.00029513       0.02625684
