38
Lattice="8.421641763931781 0.0 0.0 4.2108208819658905 7.293355709136913 0.0 0.0 0.0 46.87624170604845" Properties=species:S:1:pos:R:3:tags:I:1:forces:R:3 charge=0 spin=0 energy=-202.87961864114513 free_energy=-202.87961864114513 stress="0.009768680669367313 -0.00027260102797299623 7.868065040383954e-06 -0.00027260102797299623 0.01004683505743742 1.1862123756145593e-05 7.868065040383954e-06 1.1862123756145593e-05 -0.00035324375494383276" pbc="T T T"
Pt      -0.00000010      -0.00000005      19.95723451        4       0.00383851       0.00175199       0.01313035
Pt       2.80721394      -0.00000020      19.95723457        4      -0.00353972      -0.00299812       0.00691525
Pt       5.61442787      -0.00000008      19.95723465        4       0.00181297       0.00009264       0.02004734
Pt       1.40360721       2.43111841      19.95723445        4       0.01039856      -0.01712185      -0.00641921
Pt       4.21082082       2.43111837      19.95723453        4      -0.00223689       0.00261978       0.01805218
Pt       7.01803480       2.43111844      19.95723439        4       0.00798286       0.00360713       0.02538155
Pt       2.80721416       4.86223734      19.95723425        4      -0.00022793      -0.00049883       0.02188775
Pt       5.61442796       4.86223739      19.95723443        4       0.00001711       0.00276516       0.01525526
Pt       8.42164143       4.86223725      19.95723447        4      -0.00841370       0.01774741      -0.00403502
Pt       1.40360729       0.81037262      22.29206795        3      -0.00197160       0.03525007      -0.08155466
Pt       4.21082131       0.81037249      22.29206793        3      -0.00644020      -0.00541894      -0.06887030
Pt       7.01803470       0.81037255      22.29206785        3       0.01876351       0.01358219      -0.02008375
Pt       2.80721448       3.24149122      22.29206774        3      -0.05348852      -0.01873921      -0.11284555
Pt       5.61442764       3.24149121      22.29206791        3       0.00995846       0.00803829      -0.01850497
Pt       8.42164154       3.24149129      22.29206806        3       0.06888169       0.04174842      -0.21873663
Pt       4.21082091       5.67260997      22.29206741        3      -0.00781078      -0.00289162      -0.00992520
Pt       7.01803487       5.67261038      22.29206779        3       0.03116824      -0.02023528      -0.08353508
Pt       9.82524821       5.67261068      22.29206808        3      -0.03973534      -0.03602007      -0.11205225
Pt      -0.00000053       1.62074567      24.58417372        2      -0.02260492      -0.21222626       0.26455814
Pt       2.80721436       1.62074552      24.58417391        2      -0.02357037       0.02428771      -0.07123510
Pt       5.61442781       1.62074537      24.58417374        2       0.00415377      -0.00185482      -0.02679911
Pt       1.40360639       4.05186438      24.58417385        2      -0.04051665      -0.02365349      -0.16408734
Pt       4.21082087       4.05186396      24.58417384        2       0.12353428       0.07966003       0.15635131
Pt       7.01803504       4.05186408      24.58417403        2      -0.18357341       0.08350067       0.26629442
Pt       2.80721276       6.48298348      24.58417381        2       0.12185912       0.06819569       0.14865802
Pt       5.61442804       6.48298329      24.58417396        2      -0.06325690      -0.03506709       0.15605235
Pt       8.42164223       6.48298338      24.58417376        2       0.01203563      -0.03057110      -0.06284844
Pt      -0.00369214       0.00992830      27.06454709        1       0.02241885      -0.00562790      -0.00661593
Pt       2.85145646       0.02739632      26.89128003        1      -0.00809832      -0.00763326       0.00993019
Pt       5.61349090       0.00245960      26.91115675        1       0.01025285      -0.00649423      -0.01050478
Pt       1.39221503       2.42864482      26.91109576        1       0.00446554      -0.00381084      -0.00778034
Pt       4.21250468       2.42886148      26.90951728        1      -0.00277393       0.01084609      -0.01211738
Pt       7.01458332       2.42947357      26.90548539        1       0.00333851       0.00242419       0.00483012
Pt       2.75130020       4.82940688      26.89662629        1       0.02508662       0.01516716      -0.01136177
Pt       5.62255930       4.85590829      27.06352879        1       0.00024955       0.02146055      -0.00672767
Pt       8.41361790       4.85468999      26.91154202        1      -0.00084804       0.00396582      -0.00722443
O        4.88774651       6.06421090      29.70043828        0      -0.01622618      -0.01057301      -0.00911664
C        4.88659315       6.06261039      28.51217561        0       0.00511664       0.00472473       0.00563726
