38
Lattice="8.421641763931781 0.0 0.0 4.2108208819658905 7.293355709136913 0.0 0.0 0.0 46.87624170604845" Properties=species:S:1:pos:R:3:tags:I:1:forces:R:3 charge=0 spin=0 energy=-202.88649463296642 free_energy=-202.88649463296642 stress="0.009958180598914623 -2.0910462694700982e-08 3.719548002933948e-09 -2.0910462694700982e-08 0.009958193637430668 -1.441073038677132e-08 3.719548002933948e-09 -1.441073038677132e-08 -0.00038511372986249626" pbc="T T T"
Pt      -0.00000010      -0.00000005      19.95723451        4      -0.00030066      -0.00294025       0.02368759
Pt       2.80721394      -0.00000020      19.95723457        4       0.00333643       0.00013662       0.01094217
Pt       5.61442787      -0.00000008      19.95723465        4      -0.00156197      -0.00291622       0.01088504
Pt       1.40360721       2.43111841      19.95723445        4       0.00273098       0.00118676       0.02364781
Pt       4.21082082       2.43111837      19.95723453        4       0.00065446      -0.01597441       0.00951685
Pt       7.01803480       2.43111844      19.95723439        4      -0.00243193       0.00175831       0.02365030
Pt       2.80721416       4.86223734      19.95723425        4      -0.01416860       0.00740174       0.00952107
Pt       5.61442796       4.86223739      19.95723443        4       0.01351362       0.00856473       0.00957116
Pt       8.42164143       4.86223725      19.95723447        4      -0.00177178       0.00278256       0.01089991
Pt       1.40360729       0.81037262      22.29206795        3       0.01250847      -0.00290480      -0.02553698
Pt       4.21082131       0.81037249      22.29206793        3      -0.00155445       0.02401736      -0.06226067
Pt       7.01803470       0.81037255      22.29206785        3      -0.00877162      -0.00936203      -0.02550049
Pt       2.80721448       3.24149122      22.29206774        3       0.05184012       0.03213267      -0.15794635
Pt       5.61442764       3.24149121      22.29206791        3      -0.05379021       0.02891402      -0.15789554
Pt       8.42164154       3.24149129      22.29206806        3      -0.00373461       0.01227227      -0.02538687
Pt       4.21082091       5.67260997      22.29206741        3       0.00194279      -0.06104149      -0.15792079
Pt       7.01803487       5.67261038      22.29206779        3      -0.01996277      -0.01328584      -0.06213237
Pt       9.82524821       5.67261068      22.29206808        3       0.02152335      -0.01073975      -0.06214986
Pt      -0.00000053       1.62074567      24.58417372        2       0.00000067      -0.00000892      -0.01335929
Pt       2.80721436       1.62074552      24.58417391        2      -0.00941320      -0.10369808       0.11787038
Pt       5.61442781       1.62074537      24.58417374        2       0.00975811      -0.09802166       0.11567965
Pt       1.40360639       4.05186438      24.58417385        2      -0.08973437       0.04043607       0.11566906
Pt       4.21082087       4.05186396      24.58417384        2       0.00000157       0.00001378      -0.24439250
Pt       7.01803504       4.05186408      24.58417403        2       0.09445557       0.04357039       0.11799321
Pt       2.80721276       6.48298348      24.58417381        2      -0.08503809       0.06012319       0.11807092
Pt       5.61442804       6.48298329      24.58417396        2       0.07997376       0.05758515       0.11584028
Pt       8.42164223       6.48298338      24.58417376        2      -0.00000677      -0.00000454       0.13881201
Pt       0.00107459       0.00206388      26.90917358        1      -0.00071723       0.00485633      -0.00076603
Pt       2.79163132       0.00845974      27.01825778        1       0.00216901      -0.00189501      -0.00012540
Pt       5.62954848       0.00926507      27.01825709        1      -0.00273233      -0.00093037      -0.00013010
Pt       1.40127925       2.43101222      26.90916662        1      -0.00384077      -0.00303386      -0.00074194
Pt       4.20986739       2.45483035      26.89509263        1       0.00060335      -0.00789191       0.01007328
Pt       7.01928746       2.42915776      26.90916598        1       0.00455417      -0.00181814      -0.00074188
Pt       2.82822380       4.85120626      26.89509794        1      -0.00712953       0.00342203       0.01005296
Pt       5.59436651       4.84955684      26.89510167        1       0.00653816       0.00446372       0.01004247
Pt       8.42210497       4.84451011      27.01825722        1       0.00056174       0.00282921      -0.00012815
O        8.42164573       6.48298206      29.55867594        0      -0.00000465       0.00000069      -0.00923589
C        8.42164447       6.48298266      28.35819716        0      -0.00000039      -0.00000026       0.00392470
