38
Lattice="8.421641763931781 0.0 0.0 4.2108208819658905 7.293355709136913 0.0 0.0 0.0 46.87624170604845" Properties=species:S:1:pos:R:3:tags:I:1:forces:R:3 charge=0 spin=0 energy=-202.8193368876051 free_energy=-202.8193368876051 stress="0.009625967592000961 -9.186233285163325e-08 4.028286593182884e-09 -9.186233285163325e-08 0.009625978767871857 -7.994988493464916e-08 4.028286593182884e-09 -7.994988493464916e-08 -0.00028539402410387993" pbc="T T T"
Pt      -0.00000010      -0.00000005      19.95723451        4      -0.00000105       0.00000286       0.02240055
Pt       2.80721394      -0.00000020      19.95723457        4       0.00640578       0.00542670       0.01950041
Pt       5.61442787      -0.00000008      19.95723465        4      -0.00697246       0.00635451       0.02007318
Pt       1.40360721       2.43111841      19.95723445        4       0.00898054       0.00287313       0.02010796
Pt       4.21082082       2.43111837      19.95723453        4       0.00000264      -0.00000005      -0.06861664
Pt       7.01803480       2.43111844      19.95723439        4      -0.00790720       0.00284605       0.01954700
Pt       2.80721416       4.86223734      19.95723425        4       0.00149754      -0.00827359       0.01949117
Pt       5.61442796       4.86223739      19.95723443        4      -0.00200726      -0.00922650       0.02012159
Pt       8.42164143       4.86223725      19.95723447        4       0.00000319      -0.00000333       0.01772056
Pt       1.40360729       0.81037262      22.29206795        3      -0.00113921       0.00609300      -0.06307745
Pt       4.21082131       0.81037249      22.29206793        3      -0.00144192       0.06232136      -0.11478204
Pt       7.01803470       0.81037255      22.29206785        3      -0.00469376      -0.00407518      -0.06309522
Pt       2.80721448       3.24149122      22.29206774        3       0.05470978      -0.02994541      -0.11478186
Pt       5.61442764       3.24149121      22.29206791        3      -0.05326917      -0.03236342      -0.11476362
Pt       8.42164154       3.24149129      22.29206806        3      -0.00413289       0.00290188      -0.02812468
Pt       4.21082091       5.67260997      22.29206741        3       0.00583285      -0.00201681      -0.06330435
Pt       7.01803487       5.67261038      22.29206779        3       0.00457872       0.00219936      -0.02834474
Pt       9.82524821       5.67261068      22.29206808        3      -0.00043993      -0.00512032      -0.02838233
Pt      -0.00000053       1.62074567      24.58417372        2       0.00433516       0.00169730      -0.02886666
Pt       2.80721436       1.62074552      24.58417391        2       0.04006495       0.02276833      -0.12052277
Pt       5.61442781       1.62074537      24.58417374        2      -0.03971757       0.02318120      -0.12042742
Pt       1.40360639       4.05186438      24.58417385        2      -0.23975977       0.13654414       0.35021615
Pt       4.21082087       4.05186396      24.58417384        2      -0.00036183      -0.04597273      -0.12027796
Pt       7.01803504       4.05186408      24.58417403        2       0.23807621       0.13950057       0.35025227
Pt       2.80721276       6.48298348      24.58417381        2      -0.00360077       0.00280355      -0.02862662
Pt       5.61442804       6.48298329      24.58417396        2      -0.00075655      -0.00451009      -0.02866665
Pt       8.42164223       6.48298338      24.58417376        2       0.00171025      -0.27602530       0.35026637
Pt       0.00000589       0.00000410      26.92038371        1      -0.00001459      -0.00001271      -0.01126526
Pt       2.79356958       0.02691291      26.90176386        1       0.00247011      -0.00370480      -0.00881597
Pt       5.62755413       0.02764380      26.90093311        1       0.00014694      -0.00503062      -0.01102864
Pt       1.42098447       2.40593915      26.90089959        1      -0.00444296       0.00238266      -0.01108061
Pt       4.21081416       2.43111524      26.92583512        1       0.00001717       0.00001529       0.00055553
Pt       7.00153991       2.40583671      26.90176338        1       0.00198473       0.00399398      -0.00876358
Pt       2.83734992       4.86061144      26.90176274        1      -0.00444055      -0.00028688      -0.00878310
Pt       5.58392846       4.85977229      26.90091248        1       0.00428368       0.00266059      -0.01105056
Pt       8.42164181       4.86223707      27.07492483        1      -0.00000081       0.00000159      -0.00020653
O        8.42164134       4.86223571      30.08953883        0       0.00000001       0.00000064       0.00440745
C        8.42164121       4.86223659      28.92711473        0      -0.00000023      -0.00000100      -0.00900456
