38
Lattice="8.421641763931781 0.0 0.0 4.2108208819658905 7.293355709136913 0.0 0.0 0.0 46.87624170604845" Properties=species:S:1:pos:R:3:tags:I:1:forces:R:3 charge=0 spin=0 energy=-202.88563537240734 free_energy=-202.88563537240734 stress="0.010025981813669205 -1.5748755188838004e-08 2.6902764460601247e-09 -1.5748755188838004e-08 0.010026011615991592 -1.17034977265007e-08 2.6902764460601247e-09 -1.17034977265007e-08 -0.0002534211671445519" pbc="T T T"
Pt      -0.00000010      -0.00000005      19.95723451        4      -0.00121674      -0.00268265       0.01087283
Pt       2.80721394      -0.00000020      19.95723457        4      -0.00025644      -0.00272991       0.02368429
Pt       5.61442787      -0.00000008      19.95723465        4       0.00296177       0.00031844       0.01093188
Pt       1.40360721       2.43111841      19.95723445        4      -0.00226816       0.00161764       0.02364379
Pt       4.21082082       2.43111837      19.95723453        4       0.00252667       0.00111689       0.02364088
Pt       7.01803480       2.43111844      19.95723439        4       0.00065271      -0.01594623       0.00972904
Pt       2.80721416       4.86223734      19.95723425        4      -0.00174873       0.00236683       0.01089352
Pt       5.61442796       4.86223739      19.95723443        4      -0.01414228       0.00738658       0.00972150
Pt       8.42164143       4.86223725      19.95723447        4       0.01349182       0.00855216       0.00978379
Pt       1.40360729       0.81037262      22.29206795        3      -0.00899074      -0.00935276      -0.02487058
Pt       4.21082131       0.81037249      22.29206793        3       0.01260888      -0.00309618      -0.02490631
Pt       7.01803470       0.81037255      22.29206785        3      -0.00157738       0.02371203      -0.06416017
Pt       2.80721448       3.24149122      22.29206774        3      -0.00362718       0.01245965      -0.02476425
Pt       5.61442764       3.24149121      22.29206791        3       0.05146586       0.03162901      -0.15736358
Pt       8.42164154       3.24149129      22.29206806        3      -0.05316063       0.02883316      -0.15732041
Pt       4.21082091       5.67260997      22.29206741        3       0.02125959      -0.01055404      -0.06403532
Pt       7.01803487       5.67261038      22.29206779        3       0.00169938      -0.06046402      -0.15735027
Pt       9.82524821       5.67261068      22.29206808        3      -0.01967524      -0.01316512      -0.06404202
Pt      -0.00000053       1.62074567      24.58417372        2       0.00993278      -0.08889218       0.12799312
Pt       2.80721436       1.62074552      24.58417391        2       0.00000299      -0.00000445      -0.01224989
Pt       5.61442781       1.62074537      24.58417374        2      -0.00946804      -0.09568812       0.13038805
Pt       1.40360639       4.05186438      24.58417385        2       0.08756600       0.03951905       0.13047557
Pt       4.21082087       4.05186396      24.58417384        2      -0.08191559       0.03571467       0.12799047
Pt       7.01803504       4.05186408      24.58417403        2      -0.00000689       0.00000333      -0.20295830
Pt       2.80721276       6.48298348      24.58417381        2       0.00000759      -0.00000383       0.13736272
Pt       5.61442804       6.48298329      24.58417396        2      -0.07809966       0.05617241       0.13055819
Pt       8.42164223       6.48298338      24.58417376        2       0.07197535       0.05317593       0.12816453
Pt       0.01539992       0.01060470      27.01582560        1      -0.02388147      -0.01662547       0.02583784
Pt       2.80781728       0.00803730      26.91493443        1       0.00032065      -0.03457702      -0.01562684
Pt       5.59754730       0.00803095      27.01583113        1       0.02630718      -0.01235345       0.02581235
Pt       1.41026246       2.42657852      26.91492353        1      -0.03008907       0.01701007      -0.01559001
Pt       4.20355627       2.42762449      26.91493150        1       0.02980128       0.01753559      -0.01562031
Pt       7.01665435       2.45111192      26.90097412        1       0.00158015       0.03069497      -0.01857870
Pt       2.80869912       4.84359895      27.01582084        1      -0.00245862       0.02899933       0.02585470
Pt       5.63242988       4.85343335      26.90097400        1       0.02580171      -0.01671882      -0.01858070
Pt       8.40501433       4.85104557      26.90097208        1      -0.02737743      -0.01396312      -0.01857414
O       11.22886004       6.48297959      29.56202432        0       0.00000323      -0.00000611      -0.03906314
C       11.22885933       6.48298039      28.36171655        0      -0.00000547       0.00000570      -0.02768406
