38
Lattice="8.421641763931781 0.0 0.0 4.2108208819658905 7.293355709136913 0.0 0.0 0.0 46.87624170604845" Properties=species:S:1:pos:R:3:tags:I:1:forces:R:3 charge=0 spin=0 energy=-202.9120635950636 free_energy=-202.9120635950636 stress="0.009984046220779419 5.154631388393227e-09 -2.022785716704334e-09 5.154631388393227e-09 0.009984055534005165 4.160279232223729e-08 -2.022785716704334e-09 4.160279232223729e-08 -0.0003009355568792671" pbc="T T T"
Pt      -0.00000010      -0.00000005      19.95723451        4      -0.00267999       0.00279377       0.01343332
Pt       2.80721394      -0.00000020      19.95723457        4      -0.01525522      -0.00890162       0.01066666
Pt       5.61442787      -0.00000008      19.95723465        4       0.01529816      -0.00876974       0.01067495
Pt       1.40360721       2.43111841      19.95723445        4       0.00129527      -0.00036470       0.01721346
Pt       4.21082082       2.43111837      19.95723453        4      -0.00004172       0.01767712       0.01064454
Pt       7.01803480       2.43111844      19.95723439        4      -0.00094780      -0.00092048       0.01727264
Pt       2.80721416       4.86223734      19.95723425        4      -0.00110579      -0.00371550       0.01341536
Pt       5.61442796       4.86223739      19.95723443        4       0.00378226       0.00091679       0.01345647
Pt       8.42164143       4.86223725      19.95723447        4      -0.00034546       0.00128323       0.01726787
Pt       1.40360729       0.81037262      22.29206795        3       0.03302760      -0.01041006      -0.06642319
Pt       4.21082131       0.81037249      22.29206793        3      -0.00000169       0.00000471      -0.27931771
Pt       7.01803470       0.81037255      22.29206785        3      -0.03834698      -0.00538359      -0.06507539
Pt       2.80721448       3.24149122      22.29206774        3       0.02385449      -0.03060779      -0.06512521
Pt       5.61442764       3.24149121      22.29206791        3      -0.02548368      -0.02346510      -0.06645918
Pt       8.42164154       3.24149129      22.29206806        3       0.00000440       0.00000061      -0.01061223
Pt       4.21082091       5.67260997      22.29206741        3      -0.00000418       0.00000219      -0.07604576
Pt       7.01803487       5.67261038      22.29206779        3       0.01448310       0.03599422      -0.06512447
Pt       9.82524821       5.67261068      22.29206808        3      -0.00753386       0.03386691      -0.06636983
Pt      -0.00000053       1.62074567      24.58417372        2       0.00036375       0.06672069       0.15598859
Pt       2.80721436       1.62074552      24.58417391        2      -0.09207013       0.05484863       0.12830818
Pt       5.61442781       1.62074537      24.58417374        2       0.09346410       0.05225511       0.12831587
Pt       1.40360639       4.05186438      24.58417385        2      -0.05798294      -0.03305308       0.15607686
Pt       4.21082087       4.05186396      24.58417384        2       0.00224457      -0.02790207      -0.05021397
Pt       7.01803504       4.05186408      24.58417403        2       0.05764048      -0.03366653       0.15603259
Pt       2.80721276       6.48298348      24.58417381        2      -0.02528221       0.01191309      -0.05029040
Pt       5.61442804       6.48298329      24.58417396        2       0.02304176       0.01597215      -0.05034572
Pt       8.42164223       6.48298338      24.58417376        2      -0.00141587      -0.10708834       0.12827970
Pt       0.00164558      -0.01968645      26.90198382        1      -0.00170925      -0.03629457      -0.01518287
Pt       2.81375474       0.00254017      26.91239735        1      -0.02384359      -0.01069165      -0.01477053
Pt       5.60895770       0.00439508      26.91239616        1       0.02118940      -0.01530011      -0.01476436
Pt       1.42831187       2.41859057      27.01293425        1      -0.02467722       0.01472291       0.03318709
Pt       4.20975255       2.42418512      26.91240818        1       0.00264232       0.02599849      -0.01480289
Pt       6.99482963       2.41599017      27.01293390        1       0.02510487       0.01400250       0.03318990
Pt       2.82344360       4.87350528      26.90198425        1       0.03228399       0.01666647      -0.01519010
Pt       5.59655720       4.87065730      26.90198644        1      -0.03058747       0.01962788      -0.01519481
Pt       8.42014064       4.88989515      27.01292611        1      -0.00041093      -0.02873389       0.03321065
O        8.42163956       3.24149489      29.54890721        0      -0.00000054      -0.00000078      -0.04361229
C        8.42163861       3.24149109      28.34771492        0       0.00000598       0.00000205      -0.03171387
