38
Lattice="8.421641763931781 0.0 0.0 4.2108208819658905 7.293355709136913 0.0 0.0 0.0 46.87624170604845" Properties=species:S:1:pos:R:3:tags:I:1:forces:R:3 charge=0 spin=0 energy=-202.87981223703136 free_energy=-202.87981223703136 stress="0.010148714296519756 1.7174475942738354e-05 6.2798362705507316e-06 1.7174475942738354e-05 0.009566969238221645 -2.5182225726894103e-05 6.2798362705507316e-06 -2.5182225726894103e-05 -0.00043799419654533267" pbc="T T T"
Pt      -0.00000010      -0.00000005      19.95723451        4      -0.00056607      -0.00372996       0.01292549
Pt       2.80721394      -0.00000020      19.95723457        4      -0.00093988      -0.00809529       0.02545148
Pt       5.61442787      -0.00000008      19.95723465        4       0.00248005      -0.00091916       0.01514103
Pt       1.40360721       2.43111841      19.95723445        4      -0.00075175      -0.00098965       0.01984280
Pt       4.21082082       2.43111837      19.95723453        4       0.00333626       0.00113208       0.01791598
Pt       7.01803480       2.43111844      19.95723439        4      -0.00030586       0.00108716       0.02187377
Pt       2.80721416       4.86223734      19.95723425        4      -0.00091896       0.00520421       0.00690454
Pt       5.61442796       4.86223739      19.95723443        4      -0.02037358       0.00013751      -0.00680711
Pt       8.42164143       4.86223725      19.95723447        4       0.01983130      -0.00100974      -0.00436239
Pt       1.40360729       0.81037262      22.29206795        3       0.00211020      -0.02074912      -0.01830172
Pt       4.21082131       0.81037249      22.29206793        3       0.00262279      -0.01051656      -0.01683161
Pt       7.01803470       0.81037255      22.29206785        3       0.00171433       0.01041813      -0.01011082
Pt       2.80721448       3.24149122      22.29206774        3      -0.00146975       0.01078736      -0.06871674
Pt       5.61442764       3.24149121      22.29206791        3       0.01076778       0.05830299      -0.11344485
Pt       8.42164154       3.24149129      22.29206806        3      -0.01142215       0.05486474      -0.11218770
Pt       4.21082091       5.67260997      22.29206741        3       0.03180828      -0.01441166      -0.08084819
Pt       7.01803487       5.67261038      22.29206779        3       0.00208750      -0.08004899      -0.21952561
Pt       9.82524821       5.67261068      22.29206808        3      -0.03295297      -0.01528132      -0.08303563
Pt      -0.00000053       1.62074567      24.58417372        2       0.00224696      -0.15619615       0.12954478
Pt       2.80721436       1.62074552      24.58417391        2      -0.00464074      -0.01696422      -0.03456266
Pt       5.61442781       1.62074537      24.58417374        2       0.00272655      -0.16284308       0.13629909
Pt       1.40360639       4.05186438      24.58417385        2      -0.03170574      -0.00045779      -0.08025569
Pt       4.21082087       4.05186396      24.58417384        2       0.03052566       0.00442661      -0.08890421
Pt       7.01803504       4.05186408      24.58417403        2       0.00005611       0.04517916      -0.18823828
Pt       2.80721276       6.48298348      24.58417381        2       0.00115099       0.06693593       0.14908540
Pt       5.61442804       6.48298329      24.58417396        2      -0.17100182       0.12562355       0.26350513
Pt       8.42164223       6.48298338      24.58417376        2       0.16243050       0.11686706       0.26495776
Pt       0.00866641      -0.01386856      27.06405406        1      -0.00294536      -0.00353811      -0.00059932
Pt       2.80755845      -0.00359479      26.90889316        1      -0.00005004      -0.00397122      -0.00853785
Pt       5.60720106      -0.01416150      27.06280246        1       0.00191736      -0.00360871       0.00020223
Pt       1.40367344       2.42215414      26.90578813        1      -0.00118294      -0.01043174       0.00938002
Pt       4.20894097       2.42321881      26.90360082        1       0.00367528      -0.01107970       0.01047758
Pt       7.01728740       2.48374566      26.88766504        1       0.00029422      -0.01517837       0.01922482
Pt       2.80742407       4.80085370      26.88950666        1       0.00038669       0.01239611       0.02188323
Pt       5.61799341       4.86462982      26.90605699        1      -0.00392345       0.00390611       0.01042917
Pt       8.41822846       4.86464499      26.90671565        1       0.00316315       0.00425041       0.01037202
O        7.01840748       0.01028672      29.70210358        0       0.00006483       0.01247079      -0.01743437
C        7.01833223       0.01110115      28.51385351        0      -0.00024591       0.00603032       0.00728840
