38
Lattice="8.421641763931781 0.0 0.0 4.2108208819658905 7.293355709136913 0.0 0.0 0.0 46.87624170604845" Properties=species:S:1:pos:R:3:tags:I:1:forces:R:3 charge=0 spin=0 energy=-202.9126806223463 free_energy=-202.9126806223463 stress="0.00991794839501381 1.0165711827880841e-08 2.6617015258523224e-09 1.0165711827880841e-08 0.009917964227497578 4.0358724362477005e-08 2.6617015258523224e-09 4.0358724362477005e-08 -0.0004364246560726315" pbc="T T T"
Pt      -0.00000010      -0.00000005      19.95723451        4       0.00368921       0.00098165       0.01333864
Pt       2.80721394      -0.00000020      19.95723457        4      -0.00030676       0.00117473       0.01723399
Pt       5.61442787      -0.00000008      19.95723465        4      -0.00100917      -0.00365811       0.01328928
Pt       1.40360721       2.43111841      19.95723445        4      -0.01510705      -0.00889869       0.01074859
Pt       4.21082082       2.43111837      19.95723453        4       0.01522279      -0.00864715       0.01075693
Pt       7.01803480       2.43111844      19.95723439        4      -0.00268271       0.00268212       0.01332197
Pt       2.80721416       4.86223734      19.95723425        4      -0.00011636       0.01754434       0.01072932
Pt       5.61442796       4.86223739      19.95723443        4      -0.00086760      -0.00083017       0.01723744
Pt       8.42164143       4.86223725      19.95723447        4       0.00117726      -0.00034904       0.01718021
Pt       1.40360729       0.81037262      22.29206795        3       0.01472404       0.03627789      -0.06543010
Pt       4.21082131       0.81037249      22.29206793        3      -0.00769046       0.03397639      -0.06673697
Pt       7.01803470       0.81037255      22.29206785        3      -0.00000086       0.00000198      -0.07411874
Pt       2.80721448       3.24149122      22.29206774        3      -0.00000661       0.00000358      -0.28143814
Pt       5.61442764       3.24149121      22.29206791        3      -0.03870412      -0.00531603      -0.06537685
Pt       8.42164154       3.24149129      22.29206806        3       0.03318864      -0.01033091      -0.06678703
Pt       4.21082091       5.67260997      22.29206741        3      -0.02549954      -0.02363820      -0.06680816
Pt       7.01803487       5.67261038      22.29206779        3      -0.00000338      -0.00000391      -0.00960367
Pt       9.82524821       5.67261068      22.29206808        3       0.02398977      -0.03097129      -0.06543072
Pt      -0.00000053       1.62074567      24.58417372        2       0.02146975       0.01510441      -0.06630568
Pt       2.80721436       1.62074552      24.58417391        2      -0.00142377      -0.10812306       0.12026428
Pt       5.61442781       1.62074537      24.58417374        2      -0.02375198       0.01098016      -0.06624656
Pt       1.40360639       4.05186438      24.58417385        2      -0.09295834       0.05537422       0.12028167
Pt       4.21082087       4.05186396      24.58417384        2       0.09436411       0.05276427       0.12029354
Pt       7.01803504       4.05186408      24.58417403        2       0.00032225       0.07095620       0.15456355
Pt       2.80721276       6.48298348      24.58417381        2       0.00230338      -0.02610458      -0.06616409
Pt       5.61442804       6.48298329      24.58417396        2       0.06132093      -0.03575164       0.15462641
Pt       8.42164223       6.48298338      24.58417376        2      -0.06164012      -0.03519959       0.15468140
Pt      -0.01743089       0.00843986      26.89885047        1      -0.02847990       0.01777120      -0.00266015
Pt       2.80542998       0.02874707      27.01570471        1      -0.00001689      -0.00747017      -0.00289782
Pt       5.63046137       0.01088047      26.89884970        1       0.02960438       0.01576100      -0.00265220
Pt       1.40681521       2.43234380      26.90697796        1      -0.00552214      -0.00224933       0.00032150
Pt       4.20816137       2.43328066      26.90697100        1       0.00470107      -0.00364723       0.00034177
Pt       7.01945017       2.41179937      26.89883954        1      -0.00118026      -0.03353694      -0.00262347
Pt       2.80666425       4.85885156      26.90698517        1       0.00083479       0.00590251       0.00030382
Pt       5.59041939       4.84631679      27.01570264        1       0.00650009       0.00372927      -0.00288459
Pt       8.44742492       4.84941258      27.01570485        1      -0.00643997       0.00374254      -0.00290056
O        7.01803175       5.67261148      29.53989625        0      -0.00000577      -0.00000457       0.01446896
C        7.01803045       5.67261051      28.33849744        0       0.00000129       0.00000236       0.01308228
