38
Lattice="8.421641763931781 0.0 0.0 4.2108208819658905 7.293355709136913 0.0 0.0 0.0 46.87624170604845" Properties=species:S:1:pos:R:3:tags:I:1:forces:R:3 charge=0 spin=0 energy=-202.91278648019542 free_energy=-202.91278648019542 stress="0.009971527382731438 2.748599792212758e-09 2.321092873458497e-09 2.748599792212758e-09 0.009971541352570057 3.316012708864946e-08 2.321092873458497e-09 3.316012708864946e-08 -0.00033174874261021614" pbc="T T T"
Pt      -0.00000010      -0.00000005      19.95723451        4       0.00363016       0.00093965       0.01328686
Pt       2.80721394      -0.00000020      19.95723457        4      -0.00032081       0.00157541       0.01744467
Pt       5.61442787      -0.00000008      19.95723465        4      -0.00101470      -0.00358644       0.01323743
Pt       1.40360721       2.43111841      19.95723445        4      -0.01513491      -0.00893909       0.01086604
Pt       4.21082082       2.43111837      19.95723453        4       0.01527226      -0.00865082       0.01087436
Pt       7.01803480       2.43111844      19.95723439        4      -0.00261762       0.00265237       0.01326962
Pt       2.80721416       4.86223734      19.95723425        4      -0.00013815       0.01758805       0.01084715
Pt       5.61442796       4.86223739      19.95723443        4      -0.00120703      -0.00104408       0.01744815
Pt       8.42164143       4.86223725      19.95723447        4       0.00153148      -0.00053644       0.01739092
Pt       1.40360729       0.81037262      22.29206795        3       0.01473303       0.03610619      -0.06512008
Pt       4.21082131       0.81037249      22.29206793        3      -0.00775927       0.03385352      -0.06614690
Pt       7.01803470       0.81037255      22.29206785        3      -0.00000048       0.00000107      -0.07463886
Pt       2.80721448       3.24149122      22.29206774        3      -0.00000635       0.00000276      -0.28044558
Pt       5.61442764       3.24149121      22.29206791        3      -0.03855987      -0.00522210      -0.06506586
Pt       8.42164154       3.24149129      22.29206806        3       0.03311809      -0.01021092      -0.06619409
Pt       4.21082091       5.67260997      22.29206741        3      -0.02535917      -0.02363708      -0.06621268
Pt       7.01803487       5.67261038      22.29206779        3      -0.00000297      -0.00000348      -0.01226613
Pt       9.82524821       5.67261068      22.29206808        3       0.02383731      -0.03089403      -0.06511494
Pt      -0.00000053       1.62074567      24.58417372        2       0.02619561       0.01807149      -0.06487683
Pt       2.80721436       1.62074552      24.58417391        2      -0.00119340      -0.10823225       0.13472268
Pt       5.61442781       1.62074537      24.58417374        2      -0.02867510       0.01361804      -0.06481446
Pt       1.40360639       4.05186438      24.58417385        2      -0.09317423       0.05523136       0.13472924
Pt       4.21082087       4.05186396      24.58417384        2       0.09435794       0.05301651       0.13474506
Pt       7.01803504       4.05186408      24.58417403        2       0.00011010       0.06976037       0.16784224
Pt       2.80721276       6.48298348      24.58417381        2       0.00248468      -0.03168504      -0.06475780
Pt       5.61442804       6.48298329      24.58417396        2       0.06039846      -0.03497272       0.16789211
Pt       8.42164223       6.48298338      24.58417376        2      -0.06050546      -0.03479709       0.16794124
Pt      -0.02316005       0.01220200      26.90105810        1       0.01497025      -0.00855834      -0.00422418
Pt       2.80625622       0.02819455      27.01816449        1      -0.00191172      -0.01251886      -0.00609580
Pt       5.63657197       0.01396052      26.90105827        1      -0.01489115      -0.00869117      -0.00422104
Pt       1.40643322       2.43144962      26.91103738        1       0.00140313       0.00372765      -0.01239736
Pt       4.20912338       2.43340279      26.91103610        1      -0.00393447      -0.00065265      -0.01239244
Pt       7.01905042       2.40496538      26.90106638        1      -0.00007554       0.01723433      -0.00424454
Pt       2.80608643       4.85962689      26.91103786        1       0.00252447      -0.00307749      -0.01240026
Pt       5.59048733       4.84731095      27.01816768        1       0.01180569       0.00460995      -0.00610738
Pt       8.44653915       4.84897002      27.01816868        1      -0.00988867       0.00791545      -0.00611425
O        7.01803385       5.67261081      29.54575529        0      -0.00000108       0.00000153      -0.01630214
C        7.01803435       5.67260882      28.34420855        0      -0.00000061       0.00000442       0.00761609
