38
Lattice="8.421641763931781 0.0 0.0 4.2108208819658905 7.293355709136913 0.0 0.0 0.0 46.87624170604845" Properties=species:S:1:pos:R:3:tags:I:1:forces:R:3 charge=0 spin=0 energy=-202.91268348336925 free_energy=-202.91268348336925 stress="0.009917950257658958 8.853319855006703e-09 1.2577672237057413e-10 8.853319855006703e-09 0.009917959570884705 4.2433754288140335e-08 1.2577672237057413e-10 4.2433754288140335e-08 -0.00043642843957059085" pbc="T T T"
Pt      -0.00000010      -0.00000005      19.95723451        4      -0.00100999      -0.00365814       0.01328756
Pt       2.80721394      -0.00000020      19.95723457        4       0.00369017       0.00098140       0.01334046
Pt       5.61442787      -0.00000008      19.95723465        4      -0.00030651       0.00117443       0.01723409
Pt       1.40360721       2.43111841      19.95723445        4      -0.00268142       0.00268442       0.01332210
Pt       4.21082082       2.43111837      19.95723453        4      -0.01510558      -0.00890089       0.01074796
Pt       7.01803480       2.43111844      19.95723439        4       0.01522001      -0.00864735       0.01075746
Pt       2.80721416       4.86223734      19.95723425        4       0.00117132      -0.00034949       0.01718751
Pt       5.61442796       4.86223739      19.95723443        4      -0.00011334       0.01754350       0.01071967
Pt       8.42164143       4.86223725      19.95723447        4      -0.00086504      -0.00082887       0.01724047
Pt       1.40360729       0.81037262      22.29206795        3      -0.00000159       0.00000195      -0.07411686
Pt       4.21082131       0.81037249      22.29206793        3       0.01472407       0.03628185      -0.06543389
Pt       7.01803470       0.81037255      22.29206785        3      -0.00768968       0.03397286      -0.06673639
Pt       2.80721448       3.24149122      22.29206774        3       0.03317768      -0.01032795      -0.06678798
Pt       5.61442764       3.24149121      22.29206791        3       0.00000246       0.00000022      -0.28143591
Pt       8.42164154       3.24149129      22.29206806        3      -0.03870253      -0.00531507      -0.06537791
Pt       4.21082091       5.67260997      22.29206741        3       0.02397739      -0.03095966      -0.06541248
Pt       7.01803487       5.67261038      22.29206779        3      -0.02549889      -0.02364232      -0.06682218
Pt       9.82524821       5.67261068      22.29206808        3       0.00000915      -0.00001103      -0.00960724
Pt      -0.00000053       1.62074567      24.58417372        2      -0.02374967       0.01097347      -0.06625059
Pt       2.80721436       1.62074552      24.58417391        2       0.02146636       0.01510649      -0.06630804
Pt       5.61442781       1.62074537      24.58417374        2      -0.00142238      -0.10811914       0.12026490
Pt       1.40360639       4.05186438      24.58417385        2       0.00032956       0.07095651       0.15456164
Pt       4.21082087       4.05186396      24.58417384        2      -0.09296336       0.05537876       0.12028082
Pt       7.01803504       4.05186408      24.58417403        2       0.09436093       0.05276186       0.12029821
Pt       2.80721276       6.48298348      24.58417381        2      -0.06162138      -0.03520317       0.15467419
Pt       5.61442804       6.48298329      24.58417396        2       0.00228619      -0.02609996      -0.06616481
Pt       8.42164223       6.48298338      24.58417376        2       0.06131839      -0.03575398       0.15463416
Pt       0.01603455       0.01088069      26.89884888        1       0.02959878       0.01575863      -0.00265536
Pt       2.78978263       0.00844008      26.89885063        1      -0.02847215       0.01776876      -0.00265850
Pt       5.61264384       0.02874738      27.01570571        1      -0.00001818      -0.00747214      -0.00289561
Pt       1.40502287       2.41179875      26.89883864        1      -0.00118068      -0.03352898      -0.00261660
Pt       4.21402894       2.43234389      26.90697787        1      -0.00552215      -0.00224954       0.00032332
Pt       7.01537501       2.43328077      26.90697090        1       0.00470023      -0.00364571       0.00034188
Pt       2.83299722       4.84941275      27.01570599        1      -0.00644055       0.00374100      -0.00290315
Pt       5.61387773       4.85885172      26.90698493        1       0.00083655       0.00589922       0.00030447
Pt       8.39763301       4.84631683      27.01570440        1       0.00650066       0.00372888      -0.00289221
O        9.82524592       5.67261118      29.53989670        0      -0.00000427      -0.00000248       0.01447347
C        9.82524450       5.67261040      28.33849743        0      -0.00000023       0.00000163       0.01308126
