38
Lattice="8.421641763931781 0.0 0.0 4.2108208819658905 7.293355709136913 0.0 0.0 0.0 46.87624170604845" Properties=species:S:1:pos:R:3:tags:I:1:forces:R:3 charge=0 spin=0 energy=-202.88649463296642 free_energy=-202.88649463296642 stress="0.009958184324204922 -1.985128683656967e-08 3.71843045243736e-09 -1.985128683656967e-08 0.00995820015668869 -1.718240838499696e-08 3.71843045243736e-09 -1.718240838499696e-08 -0.00038504734402522445" pbc="T T T"
Pt      -0.00000010      -0.00000005      19.95723451        4      -0.00177594       0.00278898       0.01089721
Pt       2.80721394      -0.00000020      19.95723457        4      -0.01416591       0.00740843       0.00951338
Pt       5.61442787      -0.00000008      19.95723465        4       0.01351318       0.00857219       0.00957290
Pt       1.40360721       2.43111841      19.95723445        4      -0.00156173      -0.00291738       0.01088776
Pt       4.21082082       2.43111837      19.95723453        4      -0.00029787      -0.00294378       0.02369113
Pt       7.01803480       2.43111844      19.95723439        4       0.00333565       0.00013307       0.01094477
Pt       2.80721416       4.86223734      19.95723425        4      -0.00243351       0.00175548       0.02365574
Pt       5.61442796       4.86223739      19.95723443        4       0.00273103       0.00118009       0.02364326
Pt       8.42164143       4.86223725      19.95723447        4       0.00065573      -0.01597723       0.00951634
Pt       1.40360729       0.81037262      22.29206795        3       0.02151329      -0.01072833      -0.06214644
Pt       4.21082131       0.81037249      22.29206793        3       0.00194587      -0.06103823      -0.15794042
Pt       7.01803470       0.81037255      22.29206785        3      -0.01996015      -0.01328143      -0.06213543
Pt       2.80721448       3.24149122      22.29206774        3      -0.00877814      -0.00936035      -0.02550176
Pt       5.61442764       3.24149121      22.29206791        3       0.01251182      -0.00290620      -0.02553760
Pt       8.42164154       3.24149129      22.29206806        3      -0.00154917       0.02401350      -0.06225909
Pt       4.21082091       5.67260997      22.29206741        3      -0.00374232       0.01227244      -0.02536822
Pt       7.01803487       5.67261038      22.29206779        3       0.05184349       0.03212585      -0.15794286
Pt       9.82524821       5.67261068      22.29206808        3      -0.05378389       0.02890323      -0.15789779
Pt      -0.00000053       1.62074567      24.58417372        2       0.00000066      -0.00000259       0.13881198
Pt       2.80721436       1.62074552      24.58417391        2      -0.08505548       0.06013446       0.11807729
Pt       5.61442781       1.62074537      24.58417374        2       0.07997996       0.05759490       0.11584768
Pt       1.40360639       4.05186438      24.58417385        2       0.00976455      -0.09802680       0.11567418
Pt       4.21082087       4.05186396      24.58417384        2      -0.00000056      -0.00000138      -0.01336242
Pt       7.01803504       4.05186408      24.58417403        2      -0.00941354      -0.10369704       0.11787152
Pt       2.80721276       6.48298348      24.58417381        2       0.09447429       0.04356126       0.11798960
Pt       5.61442804       6.48298329      24.58417396        2      -0.08974588       0.04043128       0.11566962
Pt       8.42164223       6.48298338      24.58417376        2      -0.00000704       0.00000188      -0.24438563
Pt       0.00046365      -0.01772634      27.01825863        1       0.00055927       0.00282041      -0.00013708
Pt       2.82822323      -0.01103050      26.89509801        1      -0.00712722       0.00341999       0.01005375
Pt       5.59436629      -0.01267984      26.89510224        1       0.00653817       0.00446467       0.01004469
Pt       1.41872740       2.44038339      27.01825782        1      -0.00272586      -0.00092648      -0.00012983
Pt       4.21189570       2.43318219      26.90917374        1      -0.00071571       0.00485956      -0.00076524
Pt       7.00245230       2.43957818      27.01825936        1       0.00216282      -0.00189327      -0.00013252
Pt       2.80846631       4.86027660      26.90916524        1       0.00455933      -0.00181853      -0.00073906
Pt       5.61210055       4.86213101      26.90916665        1      -0.00384347      -0.00303526      -0.00074355
Pt       8.42068820       4.88594872      26.89509228        1       0.00059915      -0.00788886       0.01007234
O        8.42164652       1.62074475      29.55867689        0      -0.00000119       0.00000273      -0.00937550
C        8.42164473       1.62074559      28.35819639        0      -0.00000372      -0.00000145       0.00406527
