38
Lattice="8.421641763931781 0.0 0.0 4.2108208819658905 7.293355709136913 0.0 0.0 0.0 46.87624170604845" Properties=species:S:1:pos:R:3:tags:I:1:forces:R:3 charge=0 spin=0 energy=-202.9127855265211 free_energy=-202.9127855265211 stress="0.009971540421247482 6.499243365709617e-10 1.2340561905688219e-09 6.499243365709617e-10 0.009971552528440952 3.475534882113607e-08 1.2340561905688219e-09 3.475534882113607e-08 -0.0003318459785077721" pbc="T T T"
Pt      -0.00000010      -0.00000005      19.95723451        4      -0.01513610      -0.00893806       0.01086136
Pt       2.80721394      -0.00000020      19.95723457        4       0.01527030      -0.00864740       0.01087257
Pt       5.61442787      -0.00000008      19.95723465        4      -0.00261680       0.00265548       0.01326708
Pt       1.40360721       2.43111841      19.95723445        4      -0.00013524       0.01759332       0.01084174
Pt       4.21082082       2.43111837      19.95723453        4      -0.00120549      -0.00103991       0.01745212
Pt       7.01803480       2.43111844      19.95723439        4       0.00152718      -0.00053361       0.01739240
Pt       2.80721416       4.86223734      19.95723425        4       0.00362837       0.00093311       0.01329644
Pt       5.61442796       4.86223739      19.95723443        4      -0.00032049       0.00156760       0.01744268
Pt       8.42164143       4.86223725      19.95723447        4      -0.00101149      -0.00359239       0.01323841
Pt       1.40360729       0.81037262      22.29206795        3      -0.00000075       0.00000062      -0.28044179
Pt       4.21082131       0.81037249      22.29206793        3      -0.03856340      -0.00521698      -0.06506739
Pt       7.01803470       0.81037255      22.29206785        3       0.03311355      -0.01021007      -0.06619328
Pt       2.80721448       3.24149122      22.29206774        3      -0.02536163      -0.02363453      -0.06623099
Pt       5.61442764       3.24149121      22.29206791        3       0.00000272       0.00000002      -0.01226871
Pt       8.42164154       3.24149129      22.29206806        3       0.02383257      -0.03088271      -0.06511480
Pt       4.21082091       5.67260997      22.29206741        3       0.01473021       0.03610639      -0.06510473
Pt       7.01803487       5.67261038      22.29206779        3      -0.00776137       0.03384543      -0.06614245
Pt       9.82524821       5.67261068      22.29206808        3       0.00000911      -0.00001034      -0.07463948
Pt      -0.00000053       1.62074567      24.58417372        2      -0.09317731       0.05522838       0.13473347
Pt       2.80721436       1.62074552      24.58417391        2       0.09435700       0.05301263       0.13475208
Pt       5.61442781       1.62074537      24.58417374        2       0.00011092       0.06976130       0.16784640
Pt       1.40360639       4.05186438      24.58417385        2       0.00247747      -0.03167390      -0.06475492
Pt       4.21082087       4.05186396      24.58417384        2       0.06040245      -0.03496476       0.16789360
Pt       7.01803504       4.05186408      24.58417403        2      -0.06050182      -0.03478927       0.16793883
Pt       2.80721276       6.48298348      24.58417381        2       0.02620423       0.01806448      -0.06487935
Pt       5.61442804       6.48298329      24.58417396        2      -0.00119509      -0.10823788       0.13472047
Pt       8.42164223       6.48298338      24.58417376        2      -0.02867985       0.01360827      -0.06481096
Pt       0.00282587       0.00033078      26.91103733        1       0.00140373       0.00372805      -0.01239888
Pt       2.80551667       0.00228399      26.91103578        1      -0.00393553      -0.00065208      -0.01239267
Pt       5.61544297      -0.02615292      26.90106687        1      -0.00007330       0.01723379      -0.00424897
Pt       1.40247962       2.42850844      26.91103823        1       0.00252467      -0.00308103      -0.01239990
Pt       4.18688122       2.41619273      27.01816860        1       0.01180209       0.00460614      -0.00611393
Pt       7.04293168       2.41785167      27.01816882        1      -0.00988818       0.00791346      -0.00611420
Pt       2.78405378       4.87443938      26.90105799        1       0.01497012      -0.00855689      -0.00422499
Pt       5.61346981       4.89043107      27.01816412        1      -0.00191009      -0.01251428      -0.00609775
Pt       8.44378544       4.87619757      26.90105756        1      -0.01489244      -0.00868945      -0.00422353
O        5.61442755       3.24149243      29.54575563        0      -0.00000016       0.00000221      -0.01602254
C        5.61442775       3.24149016      28.34421174        0      -0.00000020       0.00000475       0.00733630
