38
Lattice="8.421641763931781 0.0 0.0 4.2108208819658905 7.293355709136913 0.0 0.0 0.0 46.87624170604845" Properties=species:S:1:pos:R:3:tags:I:1:forces:R:3 charge=0 spin=0 energy=-202.8192729914259 free_energy=-202.8192729914259 stress="0.009581394493579865 -7.741993357512911e-08 1.166471434999039e-07 -7.741993357512911e-08 0.00958146620541811 -8.654801320062688e-08 1.166471434999039e-07 -8.654801320062688e-08 -0.00038865182432346046" pbc="T T T"
Pt      -0.00000010      -0.00000005      19.95723451        4       0.00908485       0.00283742       0.02008790
Pt       2.80721394      -0.00000020      19.95723457        4      -0.00000639       0.00000867      -0.06919181
Pt       5.61442787      -0.00000008      19.95723465        4      -0.00794374       0.00285283       0.01958551
Pt       1.40360721       2.43111841      19.95723445        4       0.00151869      -0.00830052       0.01952015
Pt       4.21082082       2.43111837      19.95723453        4      -0.00209208      -0.00929530       0.02011407
Pt       7.01803480       2.43111844      19.95723439        4       0.00000082       0.00000157       0.01755585
Pt       2.80721416       4.86223734      19.95723425        4       0.00000078      -0.00000659       0.02221330
Pt       5.61442796       4.86223739      19.95723443        4       0.00642903       0.00544597       0.01953595
Pt       8.42164143       4.86223725      19.95723447        4      -0.00698688       0.00645778       0.02006277
Pt       1.40360729       0.81037262      22.29206795        3       0.05505712      -0.03020721      -0.11446345
Pt       4.21082131       0.81037249      22.29206793        3      -0.05365330      -0.03253382      -0.11442295
Pt       7.01803470       0.81037255      22.29206785        3      -0.00399479       0.00293561      -0.02820111
Pt       2.80721448       3.24149122      22.29206774        3       0.00573523      -0.00195564      -0.06338716
Pt       5.61442764       3.24149121      22.29206791        3       0.00456168       0.00205980      -0.02837859
Pt       8.42164154       3.24149129      22.29206806        3      -0.00053878      -0.00501333      -0.02841216
Pt       4.21082091       5.67260997      22.29206741        3      -0.00113417       0.00597691      -0.06315589
Pt       7.01803487       5.67261038      22.29206779        3      -0.00138781       0.06273710      -0.11443251
Pt       9.82524821       5.67261068      22.29206808        3      -0.00456987      -0.00402251      -0.06318005
Pt      -0.00000053       1.62074567      24.58417372        2      -0.23701428       0.13479242       0.34070233
Pt       2.80721436       1.62074552      24.58417391        2      -0.00030939      -0.04763941      -0.12914918
Pt       5.61442781       1.62074537      24.58417374        2       0.23521246       0.13822140       0.34096879
Pt       1.40360639       4.05186438      24.58417385        2      -0.00579473       0.00058005      -0.03974623
Pt       4.21082087       4.05186396      24.58417384        2       0.00212151      -0.00533933      -0.03981207
Pt       7.01803504       4.05186408      24.58417403        2       0.00191942      -0.27290982       0.34085250
Pt       2.80721276       6.48298348      24.58417381        2       0.00349767       0.00461113      -0.04008075
Pt       5.61442804       6.48298329      24.58417396        2       0.04155975       0.02369620      -0.12959149
Pt       8.42164223       6.48298338      24.58417376        2      -0.04131895       0.02400753      -0.12946914
Pt       0.01690191      -0.02667351      26.89938976        1      -0.00287242       0.01102535      -0.00465749
Pt       2.80716271       0.00002715      26.92445372        1       0.00007124      -0.00006372       0.00753503
Pt       5.59707675      -0.02556796      26.90050207        1       0.00454611       0.00879391      -0.00337083
Pt       1.43442926       2.42895718      26.90058030        1      -0.01008344      -0.00053364      -0.00368292
Pt       4.17923280       2.42979519      26.89951388        1       0.01085482      -0.00299832      -0.00495281
Pt       7.01797434       2.43113643      27.06841457        1       0.00029823      -0.00007777      -0.01481107
Pt       2.80716930       4.86223714      26.91542520        1       0.00004702       0.00003151       0.00905218
Pt       5.60088133       4.88999846      26.90049115        1       0.00543694      -0.00824535      -0.00338127
Pt       8.43624049       4.89026215      26.89945180        1      -0.00803580      -0.00799167      -0.00470077
O        7.01842698       2.43100235      30.08159042        0       0.00012089      -0.00003241       0.01040862
C        7.01831495       2.43103893      28.91916053        0      -0.00033753       0.00009348       0.02643665
