38
Lattice="8.421641763931781 0.0 0.0 4.2108208819658905 7.293355709136913 0.0 0.0 0.0 46.87624170604845" Properties=species:S:1:pos:R:3:tags:I:1:forces:R:3 charge=0 spin=0 energy=-202.87961959481945 free_energy=-202.87961959481945 stress="0.009741527028381824 0.0002570267242845148 -1.4364387425302994e-05 0.0002570267242845148 0.010073971934616566 9.430115710529208e-07 -1.4364387425302994e-05 9.430115710529208e-07 -0.00035320184542797506" pbc="T T T"
Pt      -0.00000010      -0.00000005      19.95723451        4       0.00438949      -0.00153914       0.00697046
Pt       2.80721394      -0.00000020      19.95723457        4      -0.00243695      -0.00136395       0.01530182
Pt       5.61442787      -0.00000008      19.95723465        4      -0.00113593      -0.00322835       0.01803453
Pt       1.40360721       2.43111841      19.95723445        4      -0.01116128      -0.01618267      -0.00400654
Pt       4.21082082       2.43111837      19.95723453        4      -0.00715304       0.00509133       0.02538379
Pt       7.01803480       2.43111844      19.95723439        4      -0.00097089       0.00149761       0.01999570
Pt       2.80721416       4.86223734      19.95723425        4       0.00964305       0.01758793      -0.00640395
Pt       5.61442796       4.86223739      19.95723443        4      -0.00344999       0.00244888       0.01311915
Pt       8.42164143       4.86223725      19.95723447        4       0.00056227       0.00004623       0.02182098
Pt       1.40360729       0.81037262      22.29206795        3       0.00180411       0.03714214      -0.08353084
Pt       4.21082131       0.81037249      22.29206793        3      -0.01194818       0.00465343      -0.01849531
Pt       7.01803470       0.81037255      22.29206785        3       0.00795568      -0.00285816      -0.06890152
Pt       2.80721448       3.24149122      22.29206774        3      -0.07064741       0.03883593      -0.21872577
Pt       5.61442764       3.24149121      22.29206791        3      -0.02105286       0.00946867      -0.02002510
Pt       8.42164154       3.24149129      22.29206806        3       0.05102015      -0.01645186      -0.11205464
Pt       4.21082091       5.67260997      22.29206741        3      -0.02949543      -0.01933678      -0.08154723
Pt       7.01803487       5.67261038      22.29206779        3       0.00641387      -0.00537917      -0.00991875
Pt       9.82524821       5.67261068      22.29206808        3       0.04302522      -0.03699449      -0.11290993
Pt      -0.00000053       1.62074567      24.58417372        2       0.02050551       0.02580560      -0.06295750
Pt       2.80721436       1.62074552      24.58417391        2       0.01943028      -0.20083039       0.26632521
Pt       5.61442781       1.62074537      24.58417374        2      -0.00032530       0.00456961      -0.02681667
Pt       1.40360639       4.05186438      24.58417385        2       0.04061136      -0.02323369      -0.16415527
Pt       4.21082087       4.05186396      24.58417384        2       0.19500159       0.08632177       0.26457614
Pt       7.01803504       4.05186408      24.58417403        2      -0.11987800       0.07145983       0.14859295
Pt       2.80721276       6.48298348      24.58417381        2      -0.00930807      -0.03249076      -0.07120524
Pt       5.61442804       6.48298329      24.58417396        2       0.06198422      -0.03731573       0.15613885
Pt       8.42164223       6.48298338      24.58417376        2      -0.13071805       0.06727121       0.15643966
Pt      -0.04584606       0.02461571      26.89128045        1       0.01065635      -0.00319182       0.00992145
Pt       2.80862930       0.01020691      27.06353034        1      -0.01870567      -0.01050898      -0.00674103
Pt       5.61554128       0.00258450      26.90951757        1      -0.00800685      -0.00781682      -0.01211564
Pt       1.41415395       2.42794426      26.91154161        1      -0.00300711      -0.00271998      -0.00721775
Pt       4.21397122       2.42895097      26.90548275        1      -0.00376646       0.00167888       0.00483612
Pt       7.01637338       2.42907768      26.91115526        1       0.00049716       0.01212273      -0.01050139
Pt       2.81505347       4.85360849      26.91109666        1       0.00105910       0.00577182      -0.00778132
Pt       5.60767587       4.85407461      27.06454720        1      -0.00633813       0.02222992      -0.00662116
Pt       8.47802966       4.83023109      26.89662819        1      -0.02567160       0.01413794      -0.01136620
O        6.34043472       6.06304378      29.70043720        0       0.01726877      -0.00876659      -0.00926049
C        6.34239784       6.06284550      28.51217414        0      -0.00665067       0.00206776       0.00580244
