38
Lattice="8.421641763931781 0.0 0.0 4.2108208819658905 7.293355709136913 0.0 0.0 0.0 46.87624170604845" Properties=species:S:1:pos:R:3:tags:I:1:forces:R:3 charge=0 spin=0 energy=-202.81937121988048 free_energy=-202.81937121988048 stress="0.009599262848496437 -8.706499698973857e-08 -5.3513877773525564e-09 -8.706499698973857e-08 0.009599273093044758 -4.819558796498313e-08 -5.3513877773525564e-09 -4.819558796498313e-08 -0.0003773470234591514" pbc="T T T"
Pt      -0.00000010      -0.00000005      19.95723451        4      -0.00000030       0.00000362      -0.06874043
Pt       2.80721394      -0.00000020      19.95723457        4      -0.00791015       0.00291351       0.01948035
Pt       5.61442787      -0.00000008      19.95723465        4       0.00897444       0.00290953       0.02002785
Pt       1.40360721       2.43111841      19.95723445        4      -0.00197441      -0.00923344       0.02004965
Pt       4.21082082       2.43111837      19.95723453        4       0.00000187       0.00000016       0.01773006
Pt       7.01803480       2.43111844      19.95723439        4       0.00144663      -0.00830635       0.01942117
Pt       2.80721416       4.86223734      19.95723425        4       0.00646025       0.00539157       0.01944452
Pt       5.61442796       4.86223739      19.95723443        4      -0.00700001       0.00632443       0.01999341
Pt       8.42164143       4.86223725      19.95723447        4       0.00000261      -0.00000368       0.02237133
Pt       1.40360729       0.81037262      22.29206795        3      -0.05351863      -0.03251118      -0.11472460
Pt       4.21082131       0.81037249      22.29206793        3      -0.00409643       0.00278949      -0.02735508
Pt       7.01803470       0.81037255      22.29206785        3       0.05496712      -0.03008690      -0.11474227
Pt       2.80721448       3.24149122      22.29206774        3       0.00445236       0.00222988      -0.02758166
Pt       5.61442764       3.24149121      22.29206791        3      -0.00036675      -0.00501322      -0.02760771
Pt       8.42164154       3.24149129      22.29206806        3       0.00582477      -0.00193727      -0.06376358
Pt       4.21082091       5.67260997      22.29206741        3      -0.00145279       0.06260415      -0.11472479
Pt       7.01803487       5.67261038      22.29206779        3      -0.00462227      -0.00410477      -0.06353009
Pt       9.82524821       5.67261068      22.29206808        3      -0.00118959       0.00602973      -0.06352188
Pt      -0.00000053       1.62074567      24.58417372        2      -0.00065538      -0.04907203      -0.12490299
Pt       2.80721436       1.62074552      24.58417391        2       0.24014613       0.14027914       0.34261715
Pt       5.61442781       1.62074537      24.58417374        2      -0.24148425       0.13795383       0.34257564
Pt       1.40360639       4.05186438      24.58417385        2      -0.00003111      -0.00403376      -0.03601822
Pt       4.21082087       4.05186396      24.58417384        2       0.00137959      -0.27820003       0.34260583
Pt       7.01803504       4.05186408      24.58417403        2      -0.00357007       0.00194796      -0.03596302
Pt       2.80721276       6.48298348      24.58417381        2       0.04292265       0.02406022      -0.12518440
Pt       5.61442804       6.48298329      24.58417396        2      -0.04225444       0.02498193      -0.12507324
Pt       8.42164223       6.48298338      24.58417376        2       0.00354145       0.00208374      -0.03621244
Pt      -0.00000106      -0.00000229      26.92751778        1       0.00000033       0.00002043      -0.00439889
Pt       2.79018584      -0.02437487      26.89993777        1       0.00271784      -0.00136928      -0.00178214
Pt       5.63160420      -0.02462987      26.89839376        1      -0.00284909      -0.00176970      -0.00167408
Pt       1.37368555       2.42855225      26.89841516        1      -0.00012390       0.00335730      -0.00167652
Pt       4.21082188       2.43111828      27.07455858        1      -0.00000422       0.00000541      -0.04859240
Pt       7.04764937       2.42857144      26.89993386        1      -0.00013467       0.00304576      -0.00179927
Pt       2.79462554       4.88916204      26.89992377        1      -0.00256251      -0.00166752      -0.00178664
Pt       5.62717689       4.88943816      26.89843453        1       0.00295809      -0.00160204      -0.00165070
Pt       8.42164313       4.86224039      26.91800324        1       0.00000410      -0.00002049      -0.00407071
O        4.21082100       2.43111822      30.08662099        0      -0.00000166      -0.00000001       0.02657465
C        4.21082091       2.43111839      28.92432724        0       0.00000238      -0.00000003       0.02418628
