38
Lattice="8.421641763931781 0.0 0.0 4.2108208819658905 7.293355709136913 0.0 0.0 0.0 46.87624170604845" Properties=species:S:1:pos:R:3:tags:I:1:forces:R:3 charge=0 spin=0 energy=-202.81937408090343 free_energy=-202.81937408090343 stress="0.009599253535270691 -8.601992362855526e-08 -4.588310620334823e-09 -8.601992362855526e-08 0.009599264711141586 -4.71063259510629e-08 -4.588310620334823e-09 -4.71063259510629e-08 -0.0003773797070607543" pbc="T T T"
Pt      -0.00000010      -0.00000005      19.95723451        4      -0.00000184       0.00000284       0.02236836
Pt       2.80721394      -0.00000020      19.95723457        4       0.00646295       0.00539828       0.01943657
Pt       5.61442787      -0.00000008      19.95723465        4      -0.00700049       0.00633199       0.01999570
Pt       1.40360721       2.43111841      19.95723445        4       0.00897449       0.00290862       0.02003061
Pt       4.21082082       2.43111837      19.95723453        4       0.00000275      -0.00000016      -0.06873717
Pt       7.01803480       2.43111844      19.95723439        4      -0.00791109       0.00290991       0.01948269
Pt       2.80721416       4.86223734      19.95723425        4       0.00144463      -0.00830927       0.01942635
Pt       5.61442796       4.86223739      19.95723443        4      -0.00197435      -0.00924002       0.02004462
Pt       8.42164143       4.86223725      19.95723447        4       0.00000305      -0.00000256       0.01772894
Pt       1.40360729       0.81037262      22.29206795        3      -0.00119916       0.00604148      -0.06351974
Pt       4.21082131       0.81037249      22.29206793        3      -0.00144957       0.06260934      -0.11474447
Pt       7.01803470       0.81037255      22.29206785        3      -0.00461907      -0.00410024      -0.06353328
Pt       2.80721448       3.24149122      22.29206774        3       0.05496111      -0.03008490      -0.11474417
Pt       5.61442764       3.24149121      22.29206791        3      -0.05351591      -0.03251251      -0.11472555
Pt       8.42164154       3.24149129      22.29206806        3      -0.00409098       0.00278546      -0.02735466
Pt       4.21082091       5.67260997      22.29206741        3       0.00581722      -0.00193682      -0.06374519
Pt       7.01803487       5.67261038      22.29206779        3       0.00445617       0.00222309      -0.02757782
Pt       9.82524821       5.67261068      22.29206808        3      -0.00035977      -0.00502354      -0.02761022
Pt      -0.00000053       1.62074567      24.58417372        2       0.00355115       0.00208402      -0.03621565
Pt       2.80721436       1.62074552      24.58417391        2       0.04290961       0.02407251      -0.12517644
Pt       5.61442781       1.62074537      24.58417374        2      -0.04225345       0.02499294      -0.12506621
Pt       1.40360639       4.05186438      24.58417385        2      -0.24147418       0.13794895       0.34256420
Pt       4.21082087       4.05186396      24.58417384        2      -0.00065651      -0.04906739      -0.12490305
Pt       7.01803504       4.05186408      24.58417403        2       0.24014270       0.14028029       0.34261063
Pt       2.80721276       6.48298348      24.58417381        2      -0.00355114       0.00193756      -0.03596770
Pt       5.61442804       6.48298329      24.58417396        2      -0.00004406      -0.00403857      -0.03601768
Pt       8.42164223       6.48298338      24.58417376        2       0.00137017      -0.27821061       0.34260839
Pt       0.00000150       0.00000336      26.91800478        1       0.00000426      -0.00002301      -0.00407821
Pt       2.79462572       0.02692454      26.89992343        1      -0.00256214      -0.00166292      -0.00178581
Pt       5.62717672       0.02720128      26.89843439        1       0.00295927      -0.00160003      -0.00164749
Pt       1.42078377       2.40648799      26.89839236        1      -0.00284339      -0.00176872      -0.00167160
Pt       4.21082053       2.43111582      26.92751996        1      -0.00000481       0.00002494      -0.00441127
Pt       7.00100649       2.40674339      26.89993789        1       0.00271570      -0.00137021      -0.00178157
Pt       2.83682861       4.85969050      26.89993279        1      -0.00012825       0.00304136      -0.00179652
Pt       5.58450728       4.85967105      26.89841409        1      -0.00013529       0.00335509      -0.00167822
Pt       8.42164186       4.86223682      27.07455361        1      -0.00000007       0.00000286      -0.04869770
O        8.42164111       4.86223659      30.08661256        0      -0.00000058       0.00000041       0.02640756
C        8.42164149       4.86223716      28.92431828        0       0.00000090      -0.00000029       0.02448305
