38
Lattice="8.421641763931781 0.0 0.0 4.2108208819658905 7.293355709136913 0.0 0.0 0.0 46.87624170604845" Properties=species:S:1:pos:R:3:tags:I:1:forces:R:3 charge=0 spin=0 energy=-202.8856334650587 free_energy=-202.8856334650587 stress="0.010025975294411182 -1.7104239802279153e-08 3.0592084421243726e-09 -1.7104239802279153e-08 0.0100259929895401 -9.180565641031535e-09 3.0592084421243726e-09 -9.180565641031535e-09 -0.00025337576516903937" pbc="T T T"
Pt      -0.00000010      -0.00000005      19.95723451        4       0.01348762       0.00855824       0.00978123
Pt       2.80721394      -0.00000020      19.95723457        4      -0.00174624       0.00237340       0.01088574
Pt       5.61442787      -0.00000008      19.95723465        4      -0.01414300       0.00739384       0.00972345
Pt       1.40360721       2.43111841      19.95723445        4       0.00296200       0.00031732       0.01093460
Pt       4.21082082       2.43111837      19.95723453        4      -0.00121362      -0.00268624       0.01087626
Pt       7.01803480       2.43111844      19.95723439        4      -0.00025739      -0.00273341       0.02368681
Pt       2.80721416       4.86223734      19.95723425        4       0.00065094      -0.01594909       0.00973415
Pt       5.61442796       4.86223739      19.95723443        4      -0.00226778       0.00161118       0.02363901
Pt       8.42164143       4.86223725      19.95723447        4       0.00252796       0.00111401       0.02363995
Pt       1.40360729       0.81037262      22.29206795        3      -0.01968519      -0.01315350      -0.06403983
Pt       4.21082131       0.81037249      22.29206793        3       0.02126263      -0.01055027      -0.06405367
Pt       7.01803470       0.81037255      22.29206785        3       0.00170242      -0.06045919      -0.15735380
Pt       2.80721448       3.24149122      22.29206774        3      -0.00158407       0.02371357      -0.06416263
Pt       5.61442764       3.24149121      22.29206791        3      -0.00898711      -0.00935379      -0.02487100
Pt       8.42164154       3.24149129      22.29206806        3       0.01261407      -0.00310028      -0.02490625
Pt       4.21082091       5.67260997      22.29206741        3      -0.05316807       0.02883370      -0.15730220
Pt       7.01803487       5.67261038      22.29206779        3      -0.00362370       0.01245294      -0.02475985
Pt       9.82524821       5.67261068      22.29206808        3       0.05147190       0.03161938      -0.15736526
Pt      -0.00000053       1.62074567      24.58417372        2       0.07198334       0.05317839       0.12816204
Pt       2.80721436       1.62074552      24.58417391        2      -0.00000460       0.00000508       0.13736309
Pt       5.61442781       1.62074537      24.58417374        2      -0.07809600       0.05617928       0.13056482
Pt       1.40360639       4.05186438      24.58417385        2      -0.00946121      -0.09568881       0.13038306
Pt       4.21082087       4.05186396      24.58417384        2       0.00993162      -0.08888231       0.12799023
Pt       7.01803504       4.05186408      24.58417403        2       0.00000075      -0.00000182      -0.01224970
Pt       2.80721276       6.48298348      24.58417381        2       0.00000882      -0.00000931      -0.20295773
Pt       5.61442804       6.48298329      24.58417396        2       0.08755326       0.03951055       0.13047406
Pt       8.42164223       6.48298338      24.58417376        2      -0.08192053       0.03570402       0.12799689
Pt      -0.01662720      -0.01119145      26.90097233        1      -0.02738407      -0.01396585      -0.01857696
Pt       2.80869910      -0.01863809      27.01581984        1      -0.00245794       0.02899023       0.02585783
Pt       5.63242904      -0.00880329      26.90097594        1       0.02580785      -0.01672424      -0.01858521
Pt       1.38672652       2.43914911      27.01582928        1       0.02629798      -0.01234883       0.02581228
Pt       4.22622069       2.44172301      27.01582509        1      -0.02387247      -0.01661845       0.02583388
Pt       7.01863824       2.43915643      26.91493480        1       0.00031870      -0.03458171      -0.01562735
Pt       2.80583322       4.88222997      26.90097399        1       0.00158018       0.03070386      -0.01858269
Pt       5.62108381       4.85769687      26.91492380        1      -0.03009075       0.01701066      -0.01559650
Pt       8.41437649       4.85874278      26.91493188        1       0.02980425       0.01753942      -0.01561991
O        2.80721816       1.62074283      29.56202294        0       0.00000291      -0.00000724      -0.03919443
C        2.80721790       1.62074335      28.36171271        0      -0.00000545       0.00000498      -0.02753443
