38
Lattice="8.421641763931781 0.0 0.0 4.2108208819658905 7.293355709136913 0.0 0.0 0.0 46.87624170604845" Properties=species:S:1:pos:R:3:tags:I:1:forces:R:3 charge=0 spin=0 energy=-202.81937121988048 free_energy=-202.81937121988048 stress="0.009599268436431885 -8.408878926502439e-08 -4.708348821935715e-09 -8.408878926502439e-08 0.009599280543625355 -4.74160231078713e-08 -4.708348821935715e-09 -4.74160231078713e-08 -0.0003773295902647078" pbc="T T T"
Pt      -0.00000010      -0.00000005      19.95723451        4      -0.00700140       0.00633224       0.01999382
Pt       2.80721394      -0.00000020      19.95723457        4      -0.00000076       0.00000276       0.02237023
Pt       5.61442787      -0.00000008      19.95723465        4       0.00646316       0.00539777       0.01943638
Pt       1.40360721       2.43111841      19.95723445        4      -0.00790994       0.00291204       0.01948275
Pt       4.21082082       2.43111837      19.95723453        4       0.00897626       0.00290655       0.02002967
Pt       7.01803480       2.43111844      19.95723439        4      -0.00000014      -0.00000006      -0.06873592
Pt       2.80721416       4.86223734      19.95723425        4      -0.00000297      -0.00000312       0.01773627
Pt       5.61442796       4.86223739      19.95723443        4       0.00144795      -0.00831039       0.01941621
Pt       8.42164143       4.86223725      19.95723447        4      -0.00197128      -0.00923877       0.02004793
Pt       1.40360729       0.81037262      22.29206795        3      -0.00461997      -0.00409997      -0.06353132
Pt       4.21082131       0.81037249      22.29206793        3      -0.00119980       0.00604518      -0.06352298
Pt       7.01803470       0.81037255      22.29206785        3      -0.00144901       0.06260501      -0.11474402
Pt       2.80721448       3.24149122      22.29206774        3      -0.00410199       0.00278810      -0.02735377
Pt       5.61442764       3.24149121      22.29206791        3       0.05496971      -0.03008852      -0.11474265
Pt       8.42164154       3.24149129      22.29206806        3      -0.05351396      -0.03251145      -0.11472668
Pt       4.21082091       5.67260997      22.29206741        3      -0.00037271      -0.00501188      -0.02759103
Pt       7.01803487       5.67261038      22.29206779        3       0.00581765      -0.00194120      -0.06375990
Pt       9.82524821       5.67261068      22.29206808        3       0.00446806       0.00221589      -0.02758159
Pt      -0.00000053       1.62074567      24.58417372        2      -0.04224754       0.02498473      -0.12506700
Pt       2.80721436       1.62074552      24.58417391        2       0.00354656       0.00208970      -0.03621551
Pt       5.61442781       1.62074537      24.58417374        2       0.04290761       0.02407616      -0.12517469
Pt       1.40360639       4.05186438      24.58417385        2       0.24015962       0.14028190       0.34261781
Pt       4.21082087       4.05186396      24.58417384        2      -0.24148630       0.13795616       0.34257349
Pt       7.01803504       4.05186408      24.58417403        2      -0.00066063      -0.04906816      -0.12490115
Pt       2.80721276       6.48298348      24.58417381        2       0.00139350      -0.27822083       0.34260979
Pt       5.61442804       6.48298329      24.58417396        2      -0.00357237       0.00194129      -0.03596940
Pt       8.42164223       6.48298338      24.58417376        2      -0.00004545      -0.00404063      -0.03601295
Pt       0.01274891       0.02720089      26.89843401        1       0.00295331      -0.00160444      -0.00165031
Pt       2.80721523       0.00000358      26.91800326        1       0.00000642      -0.00002311      -0.00407045
Pt       5.60183964       0.02692473      26.89992412        1      -0.00255905      -0.00166692      -0.00178235
Pt       1.38657909       2.40674370      26.89993767        1       0.00271461      -0.00136905      -0.00178108
Pt       4.22799740       2.40648838      26.89839271        1      -0.00284485      -0.00176786      -0.00167586
Pt       7.01803417       2.43111633      26.92751933        1      -0.00000222       0.00002109      -0.00440442
Pt       2.80721391       4.86223616      27.07456245        1       0.00000347       0.00001084      -0.04860309
Pt       5.64404238       4.85969017      26.89993309        1      -0.00013690       0.00304296      -0.00179508
Pt       8.39172093       4.85967097      26.89841474        1      -0.00012811       0.00335603      -0.00167521
O        2.80721399       4.86223665      30.08662401        0       0.00000003       0.00000081       0.02657567
C        2.80721368       4.86223720      28.92433132        0      -0.00000064      -0.00000087       0.02417813
