38
Lattice="8.421641763931781 0.0 0.0 4.2108208819658905 7.293355709136913 0.0 0.0 0.0 46.87624170604845" Properties=species:S:1:pos:R:3:tags:I:1:forces:R:3 charge=0 spin=0 energy=-202.88632106424083 free_energy=-202.88632106424083 stress="0.01000884734094143 -1.9407973894658426e-08 1.9179446919537213e-09 -1.9407973894658426e-08 0.010008863173425198 -1.245141856287546e-08 1.9179446919537213e-09 -1.245141856287546e-08 -0.0002950190391857177" pbc="T T T"
Pt      -0.00000010      -0.00000005      19.95723451        4       0.00328762       0.00013717       0.01103267
Pt       2.80721394      -0.00000020      19.95723457        4      -0.00153774      -0.00287487       0.01097739
Pt       5.61442787      -0.00000008      19.95723465        4      -0.00024756      -0.00297286       0.02375865
Pt       1.40360721       2.43111841      19.95723445        4       0.00064491      -0.01587662       0.00966223
Pt       4.21082082       2.43111837      19.95723453        4      -0.00248292       0.00172933       0.02371836
Pt       7.01803480       2.43111844      19.95723439        4       0.00273138       0.00124616       0.02371643
Pt       2.80721416       4.86223734      19.95723425        4       0.01343135       0.00851122       0.00972453
Pt       5.61442796       4.86223739      19.95723443        4      -0.00175071       0.00273979       0.01098807
Pt       8.42164143       4.86223725      19.95723447        4      -0.01407588       0.00736087       0.00965814
Pt       1.40360729       0.81037262      22.29206795        3      -0.00156626       0.02371342      -0.06257031
Pt       4.21082131       0.81037249      22.29206793        3      -0.00878905      -0.00930638      -0.02602214
Pt       7.01803470       0.81037255      22.29206785        3       0.01247252      -0.00294512      -0.02605688
Pt       2.80721448       3.24149122      22.29206774        3      -0.05335800       0.02884131      -0.15749362
Pt       5.61442764       3.24149121      22.29206791        3      -0.00368342       0.01225989      -0.02590437
Pt       8.42164154       3.24149129      22.29206806        3       0.05156421       0.03178553      -0.15754177
Pt       4.21082091       5.67260997      22.29206741        3      -0.01969847      -0.01314180      -0.06243509
Pt       7.01803487       5.67261038      22.29206779        3       0.02125764      -0.01057164      -0.06246073
Pt       9.82524821       5.67261068      22.29206808        3       0.00180026      -0.06063189      -0.15753892
Pt      -0.00000053       1.62074567      24.58417372        2      -0.00959485      -0.10170273       0.12923308
Pt       2.80721436       1.62074552      24.58417391        2       0.01010036      -0.09517831       0.12689973
Pt       5.61442781       1.62074537      24.58417374        2      -0.00000045       0.00000346       0.00365843
Pt       1.40360639       4.05186438      24.58417385        2       0.00000461       0.00000042      -0.23093374
Pt       4.21082087       4.05186396      24.58417384        2       0.09283413       0.04240974       0.12934239
Pt       7.01803504       4.05186408      24.58417403        2      -0.08745384       0.03871236       0.12689376
Pt       2.80721276       6.48298348      24.58417381        2       0.07735771       0.05646120       0.12704198
Pt       5.61442804       6.48298329      24.58417396        2      -0.00000408      -0.00000456       0.14669836
Pt       8.42164223       6.48298338      24.58417376        2      -0.08324202       0.05929081       0.12942742
Pt      -0.01698172       0.00809038      27.01984346        1       0.01089446      -0.00336588      -0.00533065
Pt       2.82271349       0.01066013      27.01984363        1      -0.00836707      -0.00775243      -0.00532916
Pt       5.61477453       0.00154808      26.91395186        1       0.00140611       0.00883876      -0.01662716
Pt       1.40254200       2.45590783      26.89887716        1       0.00087165      -0.01389859      -0.00274482
Pt       4.21198926       2.43004333      26.91394990        1       0.00695216      -0.00563725      -0.01662254
Pt       7.01651954       2.43064391      26.91395153        1      -0.00835558      -0.00320170      -0.01662797
Pt       2.78627699       4.84891849      26.89887565        1       0.01160114       0.00770785      -0.00273979
Pt       5.61591091       4.84348424      27.01984505        1      -0.00252808       0.01111973      -0.00533463
Pt       8.44364366       4.85076261      26.89887732        1      -0.01247564       0.00619790      -0.00274431
O        5.61442904       6.48298592      29.55952599        0      -0.00000139      -0.00000197      -0.01343869
C        5.61442862       6.48298441      28.35898942        0       0.00000084      -0.00000206       0.00406569
