38
Lattice="8.421641763931781 0.0 0.0 4.2108208819658905 7.293355709136913 0.0 0.0 0.0 46.87624170604845" Properties=species:S:1:pos:R:3:tags:I:1:forces:R:3 charge=0 spin=0 energy=-202.8192729914259 free_energy=-202.8192729914259 stress="0.009581434540450573 -6.034100863416825e-08 2.1035431529980997e-07 -6.034100863416825e-08 0.009581515565514565 -5.504677957901549e-08 2.1035431529980997e-07 -5.504677957901549e-08 -0.0003885853511746973" pbc="T T T"
Pt      -0.00000010      -0.00000005      19.95723451        4       0.00908490       0.00283761       0.02008599
Pt       2.80721394      -0.00000020      19.95723457        4      -0.00001257       0.00000853      -0.06919256
Pt       5.61442787      -0.00000008      19.95723465        4      -0.00794383       0.00285340       0.01958860
Pt       1.40360721       2.43111841      19.95723445        4       0.00152024      -0.00829977       0.01951928
Pt       4.21082082       2.43111837      19.95723453        4      -0.00209161      -0.00929591       0.02011570
Pt       7.01803480       2.43111844      19.95723439        4       0.00000243       0.00000272       0.01755580
Pt       2.80721416       4.86223734      19.95723425        4       0.00000358      -0.00000582       0.02221313
Pt       5.61442796       4.86223739      19.95723443        4       0.00643022       0.00544506       0.01953398
Pt       8.42164143       4.86223725      19.95723447        4      -0.00698634       0.00645820       0.02006364
Pt       1.40360729       0.81037262      22.29206795        3       0.05506198      -0.03020352      -0.11447276
Pt       4.21082131       0.81037249      22.29206793        3      -0.05365029      -0.03253340      -0.11441165
Pt       7.01803470       0.81037255      22.29206785        3      -0.00398951       0.00293800      -0.02820128
Pt       2.80721448       3.24149122      22.29206774        3       0.00574199      -0.00195371      -0.06338698
Pt       5.61442764       3.24149121      22.29206791        3       0.00456816       0.00205993      -0.02837650
Pt       8.42164154       3.24149129      22.29206806        3      -0.00053143      -0.00501053      -0.02841613
Pt       4.21082091       5.67260997      22.29206741        3      -0.00112676       0.00597907      -0.06315831
Pt       7.01803487       5.67261038      22.29206779        3      -0.00138039       0.06273797      -0.11443722
Pt       9.82524821       5.67261068      22.29206808        3      -0.00456184      -0.00402151      -0.06318013
Pt      -0.00000053       1.62074567      24.58417372        2      -0.23696962       0.13474460       0.34063426
Pt       2.80721436       1.62074552      24.58417391        2      -0.00031320      -0.04763728      -0.12913643
Pt       5.61442781       1.62074537      24.58417374        2       0.23525620       0.13826162       0.34107426
Pt       1.40360639       4.05186438      24.58417385        2      -0.00583749       0.00055822      -0.03973227
Pt       4.21082087       4.05186396      24.58417384        2       0.00208977      -0.00534134      -0.03979658
Pt       7.01803504       4.05186408      24.58417403        2       0.00189148      -0.27289140       0.34083980
Pt       2.80721276       6.48298348      24.58417381        2       0.00347544       0.00460703      -0.04006591
Pt       5.61442804       6.48298329      24.58417396        2       0.04152967       0.02368368      -0.12957141
Pt       8.42164223       6.48298338      24.58417376        2      -0.04133394       0.02401418      -0.12946805
Pt       0.01687149      -0.02669298      26.89939584        1      -0.00285936       0.01107619      -0.00468332
Pt       2.80712525       0.00001817      26.92445176        1       0.00011923      -0.00004805       0.00754292
Pt       5.59704879      -0.02555625      26.90050731        1       0.00455308       0.00872384      -0.00337995
Pt       1.43442463       2.42894574      26.90058362        1      -0.01016837      -0.00051315      -0.00371547
Pt       4.17922710       2.42978802      26.89952188        1       0.01077192      -0.00298907      -0.00497263
Pt       7.01792861       2.43112551      27.06841077        1       0.00053076      -0.00003031      -0.01480110
Pt       2.80713073       4.86222825      26.91542258        1       0.00010352       0.00003969       0.00905869
Pt       5.60085103       4.88998327      26.90049761        1       0.00544913      -0.00821351      -0.00340137
Pt       8.43621432       4.89027261      26.89945411        1      -0.00803597      -0.00806090      -0.00472115
O        7.01874016       2.43107049      30.08158613        0       0.00021963      -0.00000945       0.01040676
C        7.01854012       2.43108905      28.91915777        0      -0.00061066       0.00002908       0.02644615
