38
Lattice="8.421641763931781 0.0 0.0 4.2108208819658905 7.293355709136913 0.0 0.0 0.0 46.87624170604845" Properties=species:S:1:pos:R:3:tags:I:1:forces:R:3 charge=0 spin=0 energy=-202.8798150980543 free_energy=-202.8798150980543 stress="0.010148720815777779 1.7170143109979108e-05 6.278013643168379e-06 1.7170143109979108e-05 0.009566964581608772 -2.518637484172359e-05 6.278013643168379e-06 -2.518637484172359e-05 -0.0004380554601084441" pbc="T T T"
Pt      -0.00000010      -0.00000005      19.95723451        4      -0.00094066      -0.00809536       0.02544989
Pt       2.80721394      -0.00000020      19.95723457        4       0.00247961      -0.00091893       0.01514139
Pt       5.61442787      -0.00000008      19.95723465        4      -0.00056494      -0.00373037       0.01292734
Pt       1.40360721       2.43111841      19.95723445        4       0.00333458       0.00113450       0.01791679
Pt       4.21082082       2.43111837      19.95723453        4      -0.00030280       0.00108744       0.02187320
Pt       7.01803480       2.43111844      19.95723439        4      -0.00075292      -0.00099203       0.01984267
Pt       2.80721416       4.86223734      19.95723425        4      -0.02037665       0.00013863      -0.00679708
Pt       5.61442796       4.86223739      19.95723443        4       0.01982831      -0.00101094      -0.00436557
Pt       8.42164143       4.86223725      19.95723447        4      -0.00091294       0.00520451       0.00689754
Pt       1.40360729       0.81037262      22.29206795        3       0.00262279      -0.01052082      -0.01682959
Pt       4.21082131       0.81037249      22.29206793        3       0.00171328       0.01042204      -0.01011288
Pt       7.01803470       0.81037255      22.29206785        3       0.00211068      -0.02074897      -0.01830377
Pt       2.80721448       3.24149122      22.29206774        3       0.01075828       0.05830617      -0.11344710
Pt       5.61442764       3.24149121      22.29206791        3      -0.01142357       0.05486384      -0.11218576
Pt       8.42164154       3.24149129      22.29206806        3      -0.00145924       0.01078436      -0.06871603
Pt       4.21082091       5.67260997      22.29206741        3       0.00208588      -0.08004394      -0.21950972
Pt       7.01803487       5.67261038      22.29206779        3      -0.03296541      -0.01527438      -0.08303048
Pt       9.82524821       5.67261068      22.29206808        3       0.03182058      -0.01442306      -0.08086600
Pt      -0.00000053       1.62074567      24.58417372        2      -0.00463497      -0.01696648      -0.03456859
Pt       2.80721436       1.62074552      24.58417391        2       0.00272701      -0.16284586       0.13630332
Pt       5.61442781       1.62074537      24.58417374        2       0.00224127      -0.15618700       0.12955034
Pt       1.40360639       4.05186438      24.58417385        2       0.03053118       0.00442388      -0.08890246
Pt       4.21082087       4.05186396      24.58417384        2       0.00006011       0.04518051      -0.18824269
Pt       7.01803504       4.05186408      24.58417403        2      -0.03171533      -0.00045491      -0.08025396
Pt       2.80721276       6.48298348      24.58417381        2      -0.17098396       0.12561582       0.26350132
Pt       5.61442804       6.48298329      24.58417396        2       0.16243435       0.11686715       0.26494837
Pt       8.42164223       6.48298338      24.58417376        2       0.00113167       0.06693875       0.14909741
Pt       0.00034467      -0.00359488      26.90889220        1      -0.00004896      -0.00396977      -0.00853151
Pt       2.79998580      -0.01416183      27.06280268        1       0.00193455      -0.00360553       0.00019940
Pt       5.62309478      -0.01386853      27.06405523        1      -0.00295976      -0.00353904      -0.00059778
Pt       1.40172597       2.42321910      26.90360153        1       0.00368745      -0.01108456       0.01047849
Pt       4.21007382       2.48374714      26.88766607        1       0.00029216      -0.01519258       0.01921678
Pt       7.01810259       2.42215448      26.90578877        1      -0.00119644      -0.01043898       0.00938095
Pt       2.81078042       4.86462936      26.90605708        1      -0.00393122       0.00390605       0.01043099
Pt       5.61101389       4.86464446      26.90671553        1       0.00316814       0.00425327       0.01037308
Pt       8.42185149       4.80085168      26.88950832        1       0.00038995       0.01241106       0.02187903
O        4.21119298       0.01028687      29.70210119        0       0.00006501       0.01247469      -0.01726933
C        4.21111822       0.01110105      28.51385289        0      -0.00024728       0.00603061       0.00712199
