38
Lattice="8.421641763931781 0.0 0.0 4.2108208819658905 7.293355709136913 0.0 0.0 0.0 46.87624170604845" Properties=species:S:1:pos:R:3:tags:I:1:forces:R:3 charge=0 spin=0 energy=-202.88603114724864 free_energy=-202.88603114724864 stress="0.009942440316081047 -1.9776893012135588e-08 7.348039954280239e-10 -1.9776893012135588e-08 0.009942456148564816 -1.5206879311335797e-08 7.348039954280239e-10 -1.5206879311335797e-08 -0.0004228682373650372" pbc="T T T"
Pt      -0.00000010      -0.00000005      19.95723451        4      -0.00176453       0.00275316       0.01080050
Pt       2.80721394      -0.00000020      19.95723457        4      -0.01410531       0.00732758       0.00963316
Pt       5.61442787      -0.00000008      19.95723465        4       0.01341266       0.00855915       0.00969351
Pt       1.40360721       2.43111841      19.95723445        4      -0.00153641      -0.00288923       0.01079070
Pt       4.21082082       2.43111837      19.95723453        4      -0.00029975      -0.00258506       0.02366399
Pt       7.01803480       2.43111844      19.95723439        4       0.00329941       0.00014076       0.01084895
Pt       2.80721416       4.86223734      19.95723425        4      -0.00212160       0.00157752       0.02362854
Pt       5.61442796       4.86223739      19.95723443        4       0.00242085       0.00099930       0.02361656
Pt       8.42164143       4.86223725      19.95723447        4       0.00069542      -0.01588372       0.00963678
Pt       1.40360729       0.81037262      22.29206795        3       0.02150632      -0.01070447      -0.06293932
Pt       4.21082131       0.81037249      22.29206793        3       0.00192293      -0.06070871      -0.15863107
Pt       7.01803470       0.81037255      22.29206785        3      -0.01993662      -0.01328850      -0.06293008
Pt       2.80721448       3.24149122      22.29206774        3      -0.00880779      -0.00925028      -0.02494857
Pt       5.61442764       3.24149121      22.29206791        3       0.01243139      -0.00298725      -0.02498386
Pt       8.42164154       3.24149129      22.29206806        3      -0.00156546       0.02399722      -0.06305486
Pt       4.21082091       5.67260997      22.29206741        3      -0.00363221       0.01224290      -0.02481255
Pt       7.01803487       5.67261038      22.29206779        3       0.05156994       0.03194350      -0.15863433
Pt       9.82524821       5.67261068      22.29206808        3      -0.05348635       0.02875767      -0.15859051
Pt      -0.00000053       1.62074567      24.58417372        2       0.00000154      -0.00000197       0.13543236
Pt       2.80721436       1.62074552      24.58417391        2      -0.08163959       0.05722388       0.11801310
Pt       5.61442781       1.62074537      24.58417374        2       0.07641152       0.05484325       0.11641508
Pt       1.40360639       4.05186438      24.58417385        2       0.00916708      -0.09355488       0.11624048
Pt       4.21082087       4.05186396      24.58417384        2       0.00000158       0.00000619      -0.01609822
Pt       7.01803504       4.05186408      24.58417403        2      -0.00860635      -0.09927510       0.11781896
Pt       2.80721276       6.48298348      24.58417381        2       0.09024882       0.04204894       0.11793190
Pt       5.61442804       6.48298329      24.58417396        2      -0.08557926       0.03871201       0.11623925
Pt       8.42164223       6.48298338      24.58417376        2      -0.00001141      -0.00000403      -0.21476340
Pt       0.00054373      -0.01810057      27.01779399        1       0.00088520      -0.01629703      -0.01611244
Pt       2.82339070      -0.00818043      26.89738085        1       0.03462347      -0.02110001      -0.00539239
Pt       5.59924887      -0.00992314      26.89738176        1      -0.03556442      -0.01941387      -0.00539136
Pt       1.41901219       2.44064099      27.01779302        1       0.01366362       0.00891342      -0.01610834
Pt       4.21155364       2.43481490      26.90937606        1       0.00068890      -0.00940027      -0.00031427
Pt       7.00209100       2.43969700      27.01779342        1      -0.01458039       0.00737948      -0.01611388
Pt       2.81004629       4.85975586      26.90937488        1      -0.00847076       0.00410644      -0.00030829
Pt       5.61085935       4.86102405      26.90937833        1       0.00780271       0.00528497      -0.00031997
Pt       8.42063658       4.88033942      26.89737883        1       0.00095698       0.04052626      -0.00538561
O        8.42164440       1.62074359      29.55135456        0       0.00000128       0.00000246       0.03784808
C        8.42164427       1.62074529      28.35093685        0      -0.00000323      -0.00000166       0.02758156
