38
Lattice="8.421641763931781 0.0 0.0 4.2108208819658905 7.293355709136913 0.0 0.0 0.0 46.87624170604845" Properties=species:S:1:pos:R:3:tags:I:1:forces:R:3 charge=0 spin=0 energy=-202.8796167337965 free_energy=-202.8796167337965 stress="0.009741527959704399 0.0002570292563177645 -1.4361971807375085e-05 0.0002570292563177645 0.010073979385197163 9.437949870516604e-07 -1.4361971807375085e-05 9.437949870516604e-07 -0.0003531289112288505" pbc="T T T"
Pt      -0.00000010      -0.00000005      19.95723451        4      -0.01116242      -0.01618149      -0.00401078
Pt       2.80721394      -0.00000020      19.95723457        4      -0.00715516       0.00509476       0.02538199
Pt       5.61442787      -0.00000008      19.95723465        4      -0.00097019       0.00150088       0.01999299
Pt       1.40360721       2.43111841      19.95723445        4       0.00964586       0.01759319      -0.00640919
Pt       4.21082082       2.43111837      19.95723453        4      -0.00344849       0.00245331       0.01312325
Pt       7.01803480       2.43111844      19.95723439        4       0.00055792       0.00004910       0.02182259
Pt       2.80721416       4.86223734      19.95723425        4       0.00438752      -0.00154600       0.00697979
Pt       5.61442796       4.86223739      19.95723443        4      -0.00243640      -0.00137163       0.01529970
Pt       8.42164143       4.86223725      19.95723447        4      -0.00113282      -0.00323449       0.01803557
Pt       1.40360729       0.81037262      22.29206795        3      -0.07064138       0.03883385      -0.21872225
Pt       4.21082131       0.81037249      22.29206793        3      -0.02105628       0.00947379      -0.02002673
Pt       7.01803470       0.81037255      22.29206785        3       0.05101587      -0.01645110      -0.11205514
Pt       2.80721448       3.24149122      22.29206774        3      -0.02949797      -0.01933421      -0.08156596
Pt       5.61442764       3.24149121      22.29206791        3       0.00642009      -0.00537551      -0.00992049
Pt       8.42164154       3.24149129      22.29206806        3       0.04302055      -0.03698337      -0.11290891
Pt       4.21082091       5.67260997      22.29206741        3       0.00180123       0.03714235      -0.08351602
Pt       7.01803487       5.67261038      22.29206779        3      -0.01195042       0.00464502      -0.01849146
Pt       9.82524821       5.67261068      22.29206808        3       0.00796508      -0.00287012      -0.06890228
Pt      -0.00000053       1.62074567      24.58417372        2       0.04060825      -0.02323717      -0.16415222
Pt       2.80721436       1.62074552      24.58417391        2       0.19499989       0.08631700       0.26458138
Pt       5.61442781       1.62074537      24.58417374        2      -0.11987705       0.07146240       0.14859541
Pt       1.40360639       4.05186438      24.58417385        2      -0.00931563      -0.03247938      -0.07120168
Pt       4.21082087       4.05186396      24.58417384        2       0.06198906      -0.03730739       0.15613998
Pt       7.01803504       4.05186408      24.58417403        2      -0.13071416       0.06727959       0.15643819
Pt       2.80721276       6.48298348      24.58417381        2       0.02051556       0.02579779      -0.06296175
Pt       5.61442804       6.48298329      24.58417396        2       0.01942880      -0.20083554       0.26632053
Pt       8.42164223       6.48298338      24.58417376        2      -0.00033095       0.00455965      -0.02681354
Pt       0.01054689      -0.00317476      26.91154145        1      -0.00300689      -0.00271960      -0.00721834
Pt       2.81036416      -0.00216747      26.90548268        1      -0.00376464       0.00167861       0.00483650
Pt       5.61276613      -0.00204036      26.91115587        1       0.00049604       0.01211775      -0.01049944
Pt       1.41144717       2.42248966      26.91109658        1       0.00105956       0.00577214      -0.00778081
Pt       4.20406926       2.42295584      27.06454839        1      -0.00633811       0.02222689      -0.00662706
Pt       7.07442294       2.39911202      26.89662829        1      -0.02567334       0.01414045      -0.01136549
Pt       2.76136791       4.88685293      26.89128040        1       0.01065224      -0.00318938       0.00992013
Pt       5.61584330       4.87244429      27.06353051        1      -0.01870565      -0.01051076      -0.00673972
Pt       8.42275491       4.86482148      26.90951636        1      -0.00800409      -0.00781534      -0.01211954
O        4.93682686       3.63192639      29.70043851        0       0.01726907      -0.00876588      -0.00941999
C        4.93879029       3.63172754      28.51217403        0      -0.00665059       0.00206947       0.00596084
