38
Lattice="8.421641763931781 0.0 0.0 4.2108208819658905 7.293355709136913 0.0 0.0 0.0 46.87624170604845" Properties=species:S:1:pos:R:3:tags:I:1:forces:R:3 charge=0 spin=0 energy=-202.81936931253185 free_energy=-202.81936931253185 stress="0.009599264711141586 -8.672669338238848e-08 -5.1200479411761535e-09 -8.672669338238848e-08 0.009599274024367332 -4.6691056354575267e-08 -5.1200479411761535e-09 -4.6691056354575267e-08 -0.00037733037606813014" pbc="T T T"
Pt      -0.00000010      -0.00000005      19.95723451        4      -0.00197579      -0.00923228       0.02004503
Pt       2.80721394      -0.00000020      19.95723457        4      -0.00000041       0.00000353       0.01772813
Pt       5.61442787      -0.00000008      19.95723465        4       0.00144761      -0.00830303       0.01941867
Pt       1.40360721       2.43111841      19.95723445        4       0.00646361       0.00539717       0.01943922
Pt       4.21082082       2.43111837      19.95723453        4      -0.00699840       0.00632886       0.01999770
Pt       7.01803480       2.43111844      19.95723439        4      -0.00000171      -0.00000074       0.02237307
Pt       2.80721416       4.86223734      19.95723425        4      -0.00000218      -0.00000331      -0.06873003
Pt       5.61442796       4.86223739      19.95723443        4      -0.00790974       0.00290552       0.01947817
Pt       8.42164143       4.86223725      19.95723447        4       0.00897785       0.00290353       0.02002904
Pt       1.40360729       0.81037262      22.29206795        3       0.00445809       0.00222774      -0.02757841
Pt       4.21082131       0.81037249      22.29206793        3      -0.00036941      -0.00500793      -0.02761010
Pt       7.01803470       0.81037255      22.29206785        3       0.00582085      -0.00193642      -0.06376383
Pt       2.80721448       3.24149122      22.29206774        3      -0.00145556       0.06260730      -0.11474400
Pt       5.61442764       3.24149121      22.29206791        3      -0.00461657      -0.00410155      -0.06353212
Pt       8.42164154       3.24149129      22.29206806        3      -0.00119475       0.00604127      -0.06352147
Pt       4.21082091       5.67260997      22.29206741        3      -0.05352164      -0.03251151      -0.11470800
Pt       7.01803487       5.67261038      22.29206779        3      -0.00409860       0.00278084      -0.02735098
Pt       9.82524821       5.67261068      22.29206808        3       0.05497608      -0.03009886      -0.11474346
Pt      -0.00000053       1.62074567      24.58417372        2      -0.00003345      -0.00403775      -0.03601580
Pt       2.80721436       1.62074552      24.58417391        2       0.00137632      -0.27820906       0.34261832
Pt       5.61442781       1.62074537      24.58417374        2      -0.00356878       0.00194886      -0.03596269
Pt       1.40360639       4.05186438      24.58417385        2       0.04291838       0.02407157      -0.12518549
Pt       4.21082087       4.05186396      24.58417384        2      -0.04225293       0.02499348      -0.12507805
Pt       7.01803504       4.05186408      24.58417403        2       0.00354591       0.00209204      -0.03622011
Pt       2.80721276       6.48298348      24.58417381        2      -0.00064450      -0.04908153      -0.12490685
Pt       5.61442804       6.48298329      24.58417396        2       0.24014637       0.14027689       0.34261814
Pt       8.42164223       6.48298338      24.58417376        2      -0.24149336       0.13794488       0.34258285
Pt      -0.02992227      -0.00256609      26.89841443        1      -0.00011522       0.00335573      -0.00167637
Pt       2.80721448      -0.00000021      27.07456227        1      -0.00000134       0.00000574      -0.04860500
Pt       5.64404326      -0.00254643      26.89993403        1      -0.00014528       0.00304241      -0.00179745
Pt       1.39101814       2.45804437      26.89992274        1      -0.00255599      -0.00167891      -0.00178460
Pt       4.22357081       2.45832099      26.89843354        1       0.00294865      -0.00161699      -0.00164798
Pt       7.01803600       2.43112174      26.91800315        1       0.00000653      -0.00002325      -0.00406920
Pt       2.80721314       4.86223455      26.92751806        1      -0.00000151       0.00002505      -0.00440440
Pt       5.59739868       4.83786095      26.89993658        1       0.00272517      -0.00135522      -0.00177442
Pt       8.43881908       4.83760569      26.89839255        1      -0.00285398      -0.00175417      -0.00166887
O        2.80721386      -0.00000057      30.08662505        0       0.00000011       0.00000031       0.02657753
C        2.80721387      -0.00000026      28.92433182        0      -0.00000045      -0.00000037       0.02417356
