38
Lattice="8.421641763931781 0.0 0.0 4.2108208819658905 7.293355709136913 0.0 0.0 0.0 46.87624170604845" Properties=species:S:1:pos:R:3:tags:I:1:forces:R:3 charge=0 spin=0 energy=-202.87920856118907 free_energy=-202.87920856118907 stress="0.010221901349723339 1.3778375432593748e-05 9.233780474460218e-06 1.3778375432593748e-05 0.009590718895196915 6.723396836605389e-06 9.233780474460218e-06 6.723396836605389e-06 -0.0003527671506162733" pbc="T T T"
Pt      -0.00000010      -0.00000005      19.95723451        4      -0.00069859       0.00418487       0.00724112
Pt       2.80721394      -0.00000020      19.95723457        4      -0.01978741      -0.00100822      -0.00632305
Pt       5.61442787      -0.00000008      19.95723465        4       0.01950991      -0.00209849      -0.00384524
Pt       1.40360721       2.43111841      19.95723445        4      -0.00029376      -0.00435887       0.01301661
Pt       4.21082082       2.43111837      19.95723453        4      -0.00072175      -0.00919108       0.02555319
Pt       7.01803480       2.43111844      19.95723439        4       0.00252178      -0.00162192       0.01511009
Pt       2.80721416       4.86223734      19.95723425        4      -0.00062161      -0.00222425       0.01976239
Pt       5.61442796       4.86223739      19.95723443        4       0.00341685       0.00006784       0.01775275
Pt       8.42164143       4.86223725      19.95723447        4      -0.00019782       0.00011060       0.02179241
Pt       1.40360729       0.81037262      22.29206795        3       0.03125807      -0.01758965      -0.08298660
Pt       4.21082131       0.81037249      22.29206793        3       0.00176118      -0.08153255      -0.21879312
Pt       7.01803470       0.81037255      22.29206785        3      -0.03276876      -0.01836683      -0.08528171
Pt       2.80721448       3.24149122      22.29206774        3       0.00302385      -0.02508145      -0.02035611
Pt       5.61442764       3.24149121      22.29206791        3       0.00168444      -0.01476081      -0.01903991
Pt       8.42164154       3.24149129      22.29206806        3       0.00150637       0.00656552      -0.00831672
Pt       4.21082091       5.67260997      22.29206741        3      -0.00133839       0.00670318      -0.06884386
Pt       7.01803487       5.67261038      22.29206779        3       0.00995479       0.05452552      -0.11211835
Pt       9.82524821       5.67261068      22.29206808        3      -0.01052737       0.05163464      -0.11149433
Pt      -0.00000053       1.62074567      24.58417372        2       0.00134639       0.07740537       0.16148688
Pt       2.80721436       1.62074552      24.58417391        2      -0.16925564       0.13592021       0.27082321
Pt       5.61442781       1.62074537      24.58417374        2       0.15875652       0.12670168       0.27104741
Pt       1.40360639       4.05186438      24.58417385        2      -0.00941056      -0.13336487       0.14779258
Pt       4.21082087       4.05186396      24.58417384        2      -0.00486812      -0.00311725      -0.02960442
Pt       7.01803504       4.05186408      24.58417403        2       0.01397912      -0.13929677       0.15459037
Pt       2.80721276       6.48298348      24.58417381        2      -0.03377933       0.00859677      -0.06890541
Pt       5.61442804       6.48298329      24.58417396        2       0.03285656       0.01248301      -0.07672382
Pt       8.42164223       6.48298338      24.58417376        2      -0.00090178       0.04935392      -0.16025077
Pt       0.00081152      -0.04933623      26.89055955        1      -0.00164958       0.03283206       0.01071447
Pt       2.80813757       0.01912147      26.90868084        1       0.00304226      -0.00129052      -0.00051539
Pt       5.61319179       0.01883025      26.90931340        1      -0.00463555      -0.00109872      -0.00018380
Pt       1.41285338       2.43856762      27.06507340        1      -0.01409998      -0.03868665      -0.01253296
Pt       4.21046103       2.44466390      26.91243111        1      -0.00130651      -0.02670738      -0.01708363
Pt       7.00735315       2.43680950      27.06267829        1       0.02717122      -0.03385453      -0.00197119
Pt       2.80717748       4.86560196      26.90872634        1      -0.00149362       0.00712251      -0.00048456
Pt       5.61241552       4.86564541      26.90697166        1       0.00294081       0.01117170      -0.00210345
Pt       8.42070549       4.93715895      26.90186208        1      -0.00044618      -0.03728272      -0.02578419
O        8.42129904       2.51055937      29.69932138        0      -0.00213198       0.00644001      -0.00940928
C        8.42094001       2.49403820      28.51111055        0      -0.00379582       0.00071445       0.00626856
