38
Lattice="8.421641763931781 0.0 0.0 4.2108208819658905 7.293355709136913 0.0 0.0 0.0 46.87624170604845" Properties=species:S:1:pos:R:3:tags:I:1:forces:R:3 charge=0 spin=0 energy=-202.88632011056652 free_energy=-202.88632011056652 stress="0.010008861310780048 -1.8071071750114243e-08 1.5787030571701166e-09 -1.8071071750114243e-08 0.010008876211941242 -1.2019581774325161e-08 1.5787030571701166e-09 -1.2019581774325161e-08 -0.0002951749484054744" pbc="T T T"
Pt      -0.00000010      -0.00000005      19.95723451        4       0.01343307       0.00851786       0.00971486
Pt       2.80721394      -0.00000020      19.95723457        4      -0.00175131       0.00274742       0.01099002
Pt       5.61442787      -0.00000008      19.95723465        4      -0.01407935       0.00736681       0.00965695
Pt       1.40360721       2.43111841      19.95723445        4       0.00328900       0.00013583       0.01103729
Pt       4.21082082       2.43111837      19.95723453        4      -0.00153573      -0.00287842       0.01097944
Pt       7.01803480       2.43111844      19.95723439        4      -0.00024853      -0.00297623       0.02376128
Pt       2.80721416       4.86223734      19.95723425        4       0.00064193      -0.01588206       0.00966696
Pt       5.61442796       4.86223739      19.95723443        4      -0.00248435       0.00172519       0.02371423
Pt       8.42164143       4.86223725      19.95723447        4       0.00273528       0.00124358       0.02371484
Pt       1.40360729       0.81037262      22.29206795        3      -0.01969583      -0.01314155      -0.06244937
Pt       4.21082131       0.81037249      22.29206793        3       0.02126040      -0.01056339      -0.06246512
Pt       7.01803470       0.81037255      22.29206785        3       0.00179185      -0.06061976      -0.15753703
Pt       2.80721448       3.24149122      22.29206774        3      -0.00157196       0.02371573      -0.06257294
Pt       5.61442764       3.24149121      22.29206791        3      -0.00878562      -0.00931161      -0.02602053
Pt       8.42164154       3.24149129      22.29206806        3       0.01247668      -0.00294581      -0.02605808
Pt       4.21082091       5.67260997      22.29206741        3      -0.05335528       0.02883855      -0.15747550
Pt       7.01803487       5.67261038      22.29206779        3      -0.00368927       0.01225618      -0.02590258
Pt       9.82524821       5.67261068      22.29206808        3       0.05156895       0.03177422      -0.15754254
Pt      -0.00000053       1.62074567      24.58417372        2       0.07734793       0.05646856       0.12704432
Pt       2.80721436       1.62074552      24.58417391        2      -0.00000216      -0.00000067       0.14669807
Pt       5.61442781       1.62074537      24.58417374        2      -0.08323673       0.05930074       0.12942515
Pt       1.40360639       4.05186438      24.58417385        2      -0.00959305      -0.10170003       0.12922710
Pt       4.21082087       4.05186396      24.58417384        2       0.01010481      -0.09517346       0.12689143
Pt       7.01803504       4.05186408      24.58417403        2      -0.00000214       0.00000200       0.00366029
Pt       2.80721276       6.48298348      24.58417381        2       0.00001265      -0.00000952      -0.23094076
Pt       5.61442804       6.48298329      24.58417396        2       0.09282947       0.04240030       0.12934105
Pt       8.42164223       6.48298338      24.58417376        2      -0.08745879       0.03870485       0.12689427
Pt      -0.02093724      -0.01331894      26.89887548        1       0.01160643       0.00770992      -0.00273608
Pt       2.80869691      -0.01875208      27.01984382        1      -0.00252718       0.01112978      -0.00531400
Pt       5.63642998      -0.01147466      26.89887789        1      -0.01248053       0.00620242      -0.00273950
Pt       1.38662621       2.43920849      27.01984275        1       0.01090491      -0.00337043      -0.00531026
Pt       4.22631972       2.44177810      27.01984184        1      -0.00837773      -0.00775757      -0.00531030
Pt       7.01838139       2.43266489      26.91395199        1       0.00140667       0.00884941      -0.01663034
Pt       2.80614866       4.88702665      26.89887659        1       0.00087004      -0.01390446      -0.00273680
Pt       5.61559487       4.86116262      26.91395036        1       0.00696145      -0.00564199      -0.01662491
Pt       8.42012789       4.86176331      26.91395194        1      -0.00836498      -0.00320810      -0.01662875
O        2.80721540       1.62074872      29.55952833        0      -0.00000156      -0.00000298      -0.01305087
C        2.80721486       1.62074712      28.35899692        0       0.00000083      -0.00000131       0.00362861
