38
Lattice="8.421641763931781 0.0 0.0 4.2108208819658905 7.293355709136913 0.0 0.0 0.0 46.87624170604845" Properties=species:S:1:pos:R:3:tags:I:1:forces:R:3 charge=0 spin=0 energy=-202.87920760751476 free_energy=-202.87920760751476 stress="0.010221901349723339 1.3778121683571953e-05 9.213135854224674e-06 1.3778121683571953e-05 0.00959072820842266 6.721714271407109e-06 9.213135854224674e-06 6.721714271407109e-06 -0.00035275841946713626" pbc="T T T"
Pt      -0.00000010      -0.00000005      19.95723451        4       0.01950877      -0.00209812      -0.00384672
Pt       2.80721394      -0.00000020      19.95723457        4      -0.00069749       0.00418501       0.00724313
Pt       5.61442787      -0.00000008      19.95723465        4      -0.01978733      -0.00100850      -0.00632354
Pt       1.40360721       2.43111841      19.95723445        4       0.00252295      -0.00161956       0.01511050
Pt       4.21082082       2.43111837      19.95723453        4      -0.00029228      -0.00436131       0.01301593
Pt       7.01803480       2.43111844      19.95723439        4      -0.00072458      -0.00919115       0.02555404
Pt       2.80721416       4.86223734      19.95723425        4      -0.00020399       0.00011022       0.02179964
Pt       5.61442796       4.86223739      19.95723443        4      -0.00061855      -0.00222519       0.01975255
Pt       8.42164143       4.86223725      19.95723447        4       0.00341989       0.00006922       0.01775591
Pt       1.40360729       0.81037262      22.29206795        3      -0.03276938      -0.01836673      -0.08527845
Pt       4.21082131       0.81037249      22.29206793        3       0.03125801      -0.01758559      -0.08298982
Pt       7.01803470       0.81037255      22.29206785        3       0.00176160      -0.08153576      -0.21879268
Pt       2.80721448       3.24149122      22.29206774        3       0.00149541       0.00656856      -0.00831685
Pt       5.61442764       3.24149121      22.29206791        3       0.00303339      -0.02508489      -0.02035392
Pt       8.42164154       3.24149129      22.29206806        3       0.00168585      -0.01475989      -0.01904070
Pt       4.21082091       5.67260997      22.29206741        3      -0.01054042       0.05164609      -0.11147618
Pt       7.01803487       5.67261038      22.29206779        3      -0.00133794       0.00669897      -0.06885847
Pt       9.82524821       5.67261068      22.29206808        3       0.00996684       0.05451917      -0.11212263
Pt      -0.00000053       1.62074567      24.58417372        2       0.15876263       0.12669541       0.27105319
Pt       2.80721436       1.62074552      24.58417391        2       0.00134095       0.07740787       0.16148703
Pt       5.61442781       1.62074537      24.58417374        2      -0.16925371       0.13592061       0.27082363
Pt       1.40360639       4.05186438      24.58417385        2       0.01398695      -0.13930015       0.15458797
Pt       4.21082087       4.05186396      24.58417384        2      -0.00941598      -0.13335963       0.14778978
Pt       7.01803504       4.05186408      24.58417403        2      -0.00487030      -0.00312026      -0.02959861
Pt       2.80721276       6.48298348      24.58417381        2      -0.00088083       0.04934861      -0.16025129
Pt       5.61442804       6.48298329      24.58417396        2      -0.03379691       0.00860250      -0.06890296
Pt       8.42164223       6.48298338      24.58417376        2       0.03285460       0.01248173      -0.07671595
Pt      -0.00123538       0.01882876      26.90931237        1      -0.00463986      -0.00109629      -0.00019010
Pt       2.80802595      -0.04933533      26.89056045        1      -0.00165212       0.03282510       0.01071477
Pt       5.61535134       0.01912146      26.90868173        1       0.00304848      -0.00129494      -0.00052144
Pt       1.39292801       2.43680954      27.06267868        1       0.02713068      -0.03386039      -0.00200567
Pt       4.22006794       2.43856799      27.06507370        1      -0.01411049      -0.03868979      -0.01251703
Pt       7.01767341       2.44466361      26.91243089        1      -0.00129220      -0.02670815      -0.01708511
Pt       2.80627782       4.93715595      26.90186092        1      -0.00044625      -0.03726326      -0.02578731
Pt       5.61439154       4.86560175      26.90872635        1      -0.00149020       0.00712685      -0.00048452
Pt       8.41963029       4.86564587      26.90697191        1       0.00293739       0.01116495      -0.00210489
O        2.80686741       2.51056025      29.69932153        0      -0.00212312       0.00644259      -0.00939792
C        2.80650884       2.49403801      28.51111086        0      -0.00377006       0.00071631       0.00627449
