38
Lattice="8.421641763931781 0.0 0.0 4.2108208819658905 7.293355709136913 0.0 0.0 0.0 46.87624170604845" Properties=species:S:1:pos:R:3:tags:I:1:forces:R:3 charge=0 spin=0 energy=-202.91223430276622 free_energy=-202.91223430276622 stress="0.009914898313581944 8.8890494964744e-09 7.958287362441752e-09 8.8890494964744e-09 0.00991490576416254 3.728071007458311e-08 7.958287362441752e-09 3.728071007458311e-08 -0.00044924812391400337" pbc="T T T"
Pt      -0.00000010      -0.00000005      19.95723451        4      -0.00073070      -0.00061488       0.01699306
Pt       2.80721394      -0.00000020      19.95723457        4       0.00092580      -0.00032616       0.01693390
Pt       5.61442787      -0.00000008      19.95723465        4      -0.00011462       0.01753772       0.01061706
Pt       1.40360721       2.43111841      19.95723445        4      -0.00019537       0.00094936       0.01699162
Pt       4.21082082       2.43111837      19.95723453        4      -0.00088277      -0.00358914       0.01321631
Pt       7.01803480       2.43111844      19.95723439        4       0.00356485       0.00104812       0.01326898
Pt       2.80721416       4.86223734      19.95723425        4       0.01520721      -0.00864265       0.01065985
Pt       5.61442796       4.86223739      19.95723443        4      -0.00268183       0.00253465       0.01324420
Pt       8.42164143       4.86223725      19.95723447        4      -0.01509235      -0.00889842       0.01064363
Pt       1.40360729       0.81037262      22.29206795        3      -0.00000134      -0.00000013      -0.00723136
Pt       4.21082131       0.81037249      22.29206793        3       0.02467275      -0.03124668      -0.06582206
Pt       7.01803470       0.81037255      22.29206785        3      -0.02602139      -0.02403525      -0.06692526
Pt       2.80721448       3.24149122      22.29206774        3      -0.00777556       0.03462932      -0.06683372
Pt       5.61442764       3.24149121      22.29206791        3       0.00000205       0.00000129      -0.07233910
Pt       8.42164154       3.24149129      22.29206806        3       0.01463302       0.03702424      -0.06583746
Pt       4.21082091       5.67260997      22.29206741        3      -0.03930703      -0.00577176      -0.06576198
Pt       7.01803487       5.67261038      22.29206779        3       0.03378753      -0.01059354      -0.06688083
Pt       9.82524821       5.67261068      22.29206808        3       0.00000883      -0.00001085      -0.28188944
Pt      -0.00000053       1.62074567      24.58417372        2       0.06542140      -0.03840687       0.14739063
Pt       2.80721436       1.62074552      24.58417391        2      -0.06597359      -0.03740692       0.14743672
Pt       5.61442781       1.62074537      24.58417374        2       0.00295050      -0.02852117      -0.08111035
Pt       1.40360639       4.05186438      24.58417385        2      -0.00098785      -0.10878966       0.13135470
Pt       4.21082087       4.05186396      24.58417384        2      -0.02619925       0.01158002      -0.08120742
Pt       7.01803504       4.05186408      24.58417403        2       0.02322539       0.01691807      -0.08128503
Pt       2.80721276       6.48298348      24.58417381        2       0.09473390       0.05343584       0.13140050
Pt       5.61442804       6.48298329      24.58417396        2       0.00057743       0.07583419       0.14731050
Pt       8.42164223       6.48298338      24.58417376        2      -0.09374618       0.05536167       0.13138084
Pt      -0.02038027      -0.01435566      27.01638842        1      -0.02167566      -0.00956599       0.00068984
Pt       2.82982950      -0.01045876      27.01639379        1       0.01917488      -0.01402949       0.00065686
Pt       5.61397325       0.00215492      26.90728971        1       0.00163774      -0.03186115      -0.00436788
Pt       1.40135939       2.45593989      27.01638906        1       0.00253815       0.02361264       0.00066595
Pt       4.22608608       2.44061348      26.89435406        1       0.03229408       0.02096911       0.01688225
Pt       7.00216279       2.43958988      26.89433430        1      -0.03422670       0.01750173       0.01694457
Pt       2.80931819       4.86155145      26.90727393        1      -0.02845482       0.01451243      -0.00433110
Pt       5.61502874       4.84427029      26.89432620        1       0.00197112      -0.03844863       0.01697822
Pt       8.42001335       4.86077892      26.90726192        1       0.02675082       0.01730755      -0.00430190
O        1.40360348       0.81037352      29.54616012        0      -0.00000965      -0.00000216       0.00903984
C        1.40360260       0.81037338      28.34499935        0      -0.00000081       0.00000330      -0.00457527
