38
Lattice="8.421641763931781 0.0 0.0 4.2108208819658905 7.293355709136913 0.0 0.0 0.0 46.87624170604845" Properties=species:S:1:pos:R:3:tags:I:1:forces:R:3 charge=0 spin=0 energy=-202.88603114724864 free_energy=-202.88603114724864 stress="0.009942451491951942 -1.7872803681484584e-08 2.501364004814377e-09 -1.7872803681484584e-08 0.00994246918708086 -1.6985753248377478e-08 2.501364004814377e-09 -1.6985753248377478e-08 -0.00042284728260710835" pbc="T T T"
Pt      -0.00000010      -0.00000005      19.95723451        4      -0.00211996       0.00158441       0.02361919
Pt       2.80721394      -0.00000020      19.95723457        4       0.00242061       0.00100692       0.02361872
Pt       5.61442787      -0.00000008      19.95723465        4       0.00069198      -0.01587766       0.00963592
Pt       1.40360721       2.43111841      19.95723445        4      -0.00176330       0.00275200       0.01080483
Pt       4.21082082       2.43111837      19.95723453        4      -0.01410325       0.00732415       0.00963475
Pt       7.01803480       2.43111844      19.95723439        4       0.01341178       0.00855603       0.00969622
Pt       2.80721416       4.86223734      19.95723425        4      -0.00153952      -0.00289468       0.01079605
Pt       5.61442796       4.86223739      19.95723443        4      -0.00030142      -0.00258944       0.02366016
Pt       8.42164143       4.86223725      19.95723447        4       0.00330368       0.00013806       0.01084728
Pt       1.40360729       0.81037262      22.29206795        3      -0.00362949       0.01224274      -0.02482861
Pt       4.21082131       0.81037249      22.29206793        3       0.05157249       0.03195168      -0.15863839
Pt       7.01803470       0.81037255      22.29206785        3      -0.05349531       0.02876898      -0.15858987
Pt       2.80721448       3.24149122      22.29206774        3       0.02150084      -0.01070207      -0.06294245
Pt       5.61442764       3.24149121      22.29206791        3       0.00192622      -0.06071421      -0.15862943
Pt       8.42164154       3.24149129      22.29206806        3      -0.01993243      -0.01328918      -0.06293006
Pt       4.21082091       5.67260997      22.29206741        3      -0.00880506      -0.00925276      -0.02492924
Pt       7.01803487       5.67261038      22.29206779        3       0.01242569      -0.00299047      -0.02498171
Pt       9.82524821       5.67261068      22.29206808        3      -0.00156028       0.02398575      -0.06305534
Pt      -0.00000053       1.62074567      24.58417372        2       0.09023952       0.04205742       0.11793885
Pt       2.80721436       1.62074552      24.58417391        2      -0.08557882       0.03871793       0.11624528
Pt       5.61442781       1.62074537      24.58417374        2      -0.00000515       0.00000682      -0.21476510
Pt       1.40360639       4.05186438      24.58417385        2       0.00000426       0.00000021       0.13543199
Pt       4.21082087       4.05186396      24.58417384        2      -0.08163694       0.05722905       0.11800970
Pt       7.01803504       4.05186408      24.58417403        2       0.07641005       0.05484214       0.11641418
Pt       2.80721276       6.48298348      24.58417381        2       0.00917406      -0.09356624       0.11623935
Pt       5.61442804       6.48298329      24.58417396        2      -0.00000303      -0.00000351      -0.01609822
Pt       8.42164223       6.48298338      24.58417376        2      -0.00861073      -0.09928449       0.11782262
Pt       0.00283221      -0.00248134      26.90937493        1      -0.00847075       0.00410702      -0.00030751
Pt       2.80364543      -0.00121302      26.90937889        1       0.00780208       0.00528379      -0.00031913
Pt       5.61342257       0.01810206      26.89737957        1       0.00095642       0.04052671      -0.00538309
Pt       1.40415085       2.41301783      27.01779496        1       0.00088532      -0.01629202      -0.01611639
Pt       4.22699765       2.42293793      26.89738078        1       0.03462176      -0.02109795      -0.00539186
Pt       7.00285591       2.42119536      26.89738119        1      -0.03556119      -0.01941336      -0.00539275
Pt       2.82261899       4.87175967      27.01779291        1       0.01365921       0.00890880      -0.01610548
Pt       5.61516052       4.86593371      26.90937569        1       0.00068855      -0.00940090      -0.00031558
Pt       8.40569788       4.87081566      27.01779324        1      -0.01457627       0.00737653      -0.01610934
O        9.82525138       4.05186232      29.55135661        0      -0.00000050       0.00000543       0.03783718
C        9.82525108       4.05186397      28.35093791        0      -0.00000105      -0.00000377       0.02757728
