38
Lattice="8.421641763931781 0.0 0.0 4.2108208819658905 7.293355709136913 0.0 0.0 0.0 46.87624170604845" Properties=species:S:1:pos:R:3:tags:I:1:forces:R:3 charge=0 spin=0 energy=-202.81927489877452 free_energy=-202.81927489877452 stress="0.00958144199103117 -9.602079842352396e-08 -4.38780567435515e-08 -9.602079842352396e-08 0.009581480175256729 -4.941825082482865e-08 -4.38780567435515e-08 -4.941825082482865e-08 -0.0003887124184984714" pbc="T T T"
Pt      -0.00000010      -0.00000005      19.95723451        4      -0.00000210       0.00000076       0.02220331
Pt       2.80721394      -0.00000020      19.95723457        4       0.00642651       0.00545566       0.01953881
Pt       5.61442787      -0.00000008      19.95723465        4      -0.00699091       0.00646311       0.02005902
Pt       1.40360721       2.43111841      19.95723445        4       0.00908654       0.00283700       0.02009581
Pt       4.21082082       2.43111837      19.95723453        4       0.00000425       0.00000057      -0.06919010
Pt       7.01803480       2.43111844      19.95723439        4      -0.00794410       0.00285047       0.01958355
Pt       2.80721416       4.86223734      19.95723425        4       0.00151354      -0.00830711       0.01952921
Pt       5.61442796       4.86223739      19.95723443        4      -0.00209511      -0.00929893       0.02010930
Pt       8.42164143       4.86223725      19.95723447        4       0.00000197      -0.00000192       0.01755417
Pt       1.40360729       0.81037262      22.29206795        3      -0.00114339       0.00597942      -0.06317140
Pt       4.21082131       0.81037249      22.29206793        3      -0.00139829       0.06274866      -0.11444366
Pt       7.01803470       0.81037255      22.29206785        3      -0.00459198      -0.00400576      -0.06318091
Pt       2.80721448       3.24149122      22.29206774        3       0.05504411      -0.03020593      -0.11444654
Pt       5.61442764       3.24149121      22.29206791        3      -0.05365799      -0.03253356      -0.11443734
Pt       8.42164154       3.24149129      22.29206806        3      -0.00399896       0.00293741      -0.02819783
Pt       4.21082091       5.67260997      22.29206741        3       0.00572672      -0.00195411      -0.06336800
Pt       7.01803487       5.67261038      22.29206779        3       0.00454349       0.00206100      -0.02838402
Pt       9.82524821       5.67261068      22.29206808        3      -0.00054595      -0.00502426      -0.02841026
Pt      -0.00000053       1.62074567      24.58417372        2       0.00351950       0.00460529      -0.04006328
Pt       2.80721436       1.62074552      24.58417391        2       0.04158673       0.02370878      -0.12959749
Pt       5.61442781       1.62074537      24.58417374        2      -0.04126735       0.02399279      -0.12944840
Pt       1.40360639       4.05186438      24.58417385        2      -0.23710172       0.13485765       0.34087217
Pt       4.21082087       4.05186396      24.58417384        2      -0.00029889      -0.04764161      -0.12915257
Pt       7.01803504       4.05186408      24.58417403        2       0.23516241       0.13814615       0.34087947
Pt       2.80721276       6.48298348      24.58417381        2      -0.00573601       0.00056767      -0.03973882
Pt       5.61442804       6.48298329      24.58417396        2       0.00218657      -0.00537880      -0.03980032
Pt       8.42164223       6.48298338      24.58417376        2       0.00196537      -0.27287903       0.34080598
Pt       0.00001755      -0.00001838      26.91542236        1      -0.00003038       0.00005846       0.00905998
Pt       2.79371232       0.02777843      26.90049037        1       0.00542702      -0.00836875      -0.00339253
Pt       5.62908252       0.02800028      26.89946013        1      -0.00809211      -0.00795416      -0.00471413
Pt       1.42054702       2.40445967      26.89939568        1      -0.00286558       0.01091870      -0.00465968
Pt       4.21082946       2.43112810      26.92445042        1      -0.00000552      -0.00003594       0.00755049
Pt       7.00073168       2.40551901      26.90050954        1       0.00453337       0.00888259      -0.00340917
Pt       2.83804421       4.86005950      26.90058618        1      -0.00994950      -0.00051798      -0.00368485
Pt       5.58284648       4.86089497      26.89951335        1       0.01099968      -0.00297599      -0.00498470
Pt       8.42165470       4.86223276      27.06841390        1      -0.00007181       0.00003406      -0.01486345
O        8.42154219       4.86227791      30.08158635        0      -0.00003802       0.00001337       0.01060370
C        8.42156655       4.86226789      28.91915948        0       0.00009803      -0.00003580       0.02629458
