38
Lattice="8.421641763931781 0.0 0.0 4.2108208819658905 7.293355709136913 0.0 0.0 0.0 46.87624170604845" Properties=species:S:1:pos:R:3:tags:I:1:forces:R:3 charge=0 spin=0 energy=-202.91223621011486 free_energy=-202.91223621011486 stress="0.00991490576416254 7.502552357152581e-09 8.924564198764529e-09 7.502552357152581e-09 0.009914912283420563 3.666288606041235e-08 8.924564198764529e-09 3.666288606041235e-08 -0.00044924154644832015" pbc="T T T"
Pt      -0.00000010      -0.00000005      19.95723451        4       0.00356477       0.00105171       0.01326466
Pt       2.80721394      -0.00000020      19.95723457        4      -0.00019577       0.00095070       0.01698888
Pt       5.61442787      -0.00000008      19.95723465        4      -0.00088478      -0.00358621       0.01321445
Pt       1.40360721       2.43111841      19.95723445        4      -0.01509544      -0.00889330       0.01064539
Pt       4.21082082       2.43111837      19.95723453        4       0.01521175      -0.00863946       0.01065381
Pt       7.01803480       2.43111844      19.95723439        4      -0.00268308       0.00253884       0.01324869
Pt       2.80721416       4.86223734      19.95723425        4      -0.00011709       0.01753134       0.01062484
Pt       5.61442796       4.86223739      19.95723443        4      -0.00072906      -0.00062259       0.01699245
Pt       8.42164143       4.86223725      19.95723447        4       0.00092916      -0.00033245       0.01693456
Pt       1.40360729       0.81037262      22.29206795        3       0.01462841       0.03702427      -0.06583526
Pt       4.21082131       0.81037249      22.29206793        3      -0.00777062       0.03463110      -0.06683338
Pt       7.01803470       0.81037255      22.29206785        3      -0.00000042       0.00000271      -0.07233977
Pt       2.80721448       3.24149122      22.29206774        3      -0.00000640       0.00000333      -0.28188893
Pt       5.61442764       3.24149121      22.29206791        3      -0.03930066      -0.00577266      -0.06577879
Pt       8.42164154       3.24149129      22.29206806        3       0.03379476      -0.01058922      -0.06688414
Pt       4.21082091       5.67260997      22.29206741        3      -0.02602519      -0.02403514      -0.06690858
Pt       7.01803487       5.67261038      22.29206779        3      -0.00000364      -0.00000489      -0.00722987
Pt       9.82524821       5.67261068      22.29206808        3       0.02468246      -0.03126118      -0.06582223
Pt      -0.00000053       1.62074567      24.58417372        2       0.02322876       0.01691354      -0.08128083
Pt       2.80721436       1.62074552      24.58417391        2      -0.00099601      -0.10879066       0.13135685
Pt       5.61442781       1.62074537      24.58417374        2      -0.02619858       0.01157724      -0.08119700
Pt       1.40360639       4.05186438      24.58417385        2      -0.09373381       0.05536712       0.13137245
Pt       4.21082087       4.05186396      24.58417384        2       0.09472179       0.05345006       0.13140032
Pt       7.01803504       4.05186408      24.58417403        2       0.00057883       0.07583953       0.14731507
Pt       2.80721276       6.48298348      24.58417381        2       0.00296340      -0.02853286      -0.08111370
Pt       5.61442804       6.48298329      24.58417396        2       0.06541432      -0.03840864       0.14738721
Pt       8.42164223       6.48298338      24.58417376        2      -0.06597737      -0.03741184       0.14743933
Pt      -0.01587149       0.00847099      26.89433500        1      -0.03423166       0.01750383       0.01694220
Pt       2.80496657       0.02482173      27.01638996        1       0.00253705       0.02360500       0.00066895
Pt       5.62969227       0.00949464      26.89435499        1       0.03230093       0.02097259       0.01687668
Pt       1.40197886       2.42966022      26.90726190        1       0.02674711       0.01730461      -0.00430158
Pt       4.21292558       2.43043246      26.90727417        1      -0.02845372       0.01451158      -0.00432904
Pt       7.01863550       2.41315251      26.89432668        1       0.00197385      -0.03845649       0.01697192
Pt       2.80675878       4.86439203      26.90728849        1       0.00164076      -0.03185732      -0.00436528
Pt       5.59404825       4.84788097      27.01638810        1      -0.02167261      -0.00955917       0.00069092
Pt       8.44425790       4.85177797      27.01639429        1       0.01916878      -0.01402667       0.00065886
O        7.01803094       5.67261069      29.54615998        0      -0.00001037      -0.00000134       0.00903689
C        7.01802994       5.67261070      28.34500027        0      -0.00000068       0.00000288      -0.00457695
