38
Lattice="8.421641763931781 0.0 0.0 4.2108208819658905 7.293355709136913 0.0 0.0 0.0 46.87624170604845" Properties=species:S:1:pos:R:3:tags:I:1:forces:R:3 charge=0 spin=0 energy=-202.87961864114513 free_energy=-202.87961864114513 stress="0.009768662974238396 -0.00027259637136012316 7.869708497310057e-06 -0.00027259637136012316 0.010046819224953651 1.1863457984873094e-05 7.869708497310057e-06 1.1863457984873094e-05 -0.0003532090049702674" pbc="T T T"
Pt      -0.00000010      -0.00000005      19.95723451        4      -0.00354094      -0.00299776       0.00691345
Pt       2.80721394      -0.00000020      19.95723457        4       0.00181325       0.00009269       0.02004742
Pt       5.61442787      -0.00000008      19.95723465        4       0.00383958       0.00175132       0.01313196
Pt       1.40360721       2.43111841      19.95723445        4      -0.00223863       0.00262212       0.01805298
Pt       4.21082082       2.43111837      19.95723453        4       0.00798586       0.00360736       0.02538063
Pt       7.01803480       2.43111844      19.95723439        4       0.01039759      -0.01712425      -0.00641947
Pt       2.80721416       4.86223734      19.95723425        4       0.00001364       0.00276619       0.01526531
Pt       5.61442796       4.86223739      19.95723443        4      -0.00841636       0.01774582      -0.00403792
Pt       8.42164143       4.86223725      19.95723447        4      -0.00022165      -0.00049851       0.02188092
Pt       1.40360729       0.81037262      22.29206795        3      -0.00644058      -0.00542226      -0.06886686
Pt       4.21082131       0.81037249      22.29206793        3       0.01876278       0.01358537      -0.02008542
Pt       7.01803470       0.81037255      22.29206785        3      -0.00197073       0.03525059      -0.08155736
Pt       2.80721448       3.24149122      22.29206774        3       0.00994921       0.00804180      -0.01850680
Pt       5.61442764       3.24149121      22.29206791        3       0.06887984       0.04174742      -0.21873483
Pt       8.42164154       3.24149129      22.29206806        3      -0.05347828      -0.01874182      -0.11284638
Pt       4.21082091       5.67260997      22.29206741        3       0.03116812      -0.02023150      -0.08352154
Pt       7.01803487       5.67261038      22.29206779        3      -0.03974723      -0.03601276      -0.11204742
Pt       9.82524821       5.67261068      22.29206808        3      -0.00779789      -0.00290254      -0.00994256
Pt      -0.00000053       1.62074567      24.58417372        2      -0.02356510       0.02428534      -0.07123483
Pt       2.80721436       1.62074552      24.58417391        2       0.00415197      -0.00185644      -0.02680290
Pt       5.61442781       1.62074537      24.58417374        2      -0.02260933      -0.21221860       0.26455814
Pt       1.40360639       4.05186438      24.58417385        2       0.12353902       0.07965671       0.15635565
Pt       4.21082087       4.05186396      24.58417384        2      -0.18357129       0.08350300       0.26628909
Pt       7.01803504       4.05186408      24.58417403        2      -0.04052323      -0.02365131      -0.16408207
Pt       2.80721276       6.48298348      24.58417381        2      -0.06324147      -0.03507277       0.15605357
Pt       5.61442804       6.48298329      24.58417396        2       0.01203773      -0.03056938      -0.06285883
Pt       8.42164223       6.48298338      24.58417376        2       0.12183926       0.06819689       0.14866571
Pt       0.04424220       0.02739598      26.89127950        1      -0.00809786      -0.00763112       0.00992884
Pt       2.80627736       0.00245936      26.91115610        1       0.01025412      -0.00649344      -0.01050146
Pt       5.61073522       0.00992883      27.06454788        1       0.02241440      -0.00561950      -0.00662960
Pt       1.40529081       2.42886179      26.90951696        1      -0.00277428       0.01084465      -0.01211899
Pt       4.20736948       2.42947362      26.90548528        1       0.00333665       0.00242429       0.00483052
Pt       7.00664280       2.42864470      26.91109563        1       0.00446926      -0.00380700      -0.00778070
Pt       2.81534510       4.85590826      27.06352933        1       0.00025821       0.02144699      -0.00675108
Pt       5.60640358       4.85469004      26.91154153        1      -0.00084354       0.00396490      -0.00721749
Pt       8.36572824       4.82940723      26.89662710        1       0.02508303       0.01516496      -0.01136776
O       10.50217536       6.06421047      29.70043845        0      -0.01623150      -0.01057289      -0.00925477
C       10.50102120       6.06261044      28.51217494        0       0.00511655       0.00472541       0.00581279
