38
Lattice="8.421641763931781 0.0 0.0 4.2108208819658905 7.293355709136913 0.0 0.0 0.0 46.87624170604845" Properties=species:S:1:pos:R:3:tags:I:1:forces:R:3 charge=0 spin=0 energy=-202.81940269113292 free_energy=-202.81940269113292 stress="0.009595590643584728 -8.22422379087584e-08 -5.175943229573932e-09 -8.22422379087584e-08 0.00959560927003622 -4.871873926504122e-08 -5.175943229573932e-09 -4.871873926504122e-08 -0.0003315531648695469" pbc="T T T"
Pt      -0.00000010      -0.00000005      19.95723451        4      -0.00795267       0.00290363       0.01943905
Pt       2.80721394      -0.00000020      19.95723457        4       0.00901492       0.00290050       0.01999702
Pt       5.61442787      -0.00000008      19.95723465        4       0.00000064       0.00000316      -0.06854767
Pt       1.40360721       2.43111841      19.95723445        4       0.00000001       0.00000260       0.01782781
Pt       4.21082082       2.43111837      19.95723453        4       0.00147858      -0.00833702       0.01938095
Pt       7.01803480       2.43111844      19.95723439        4      -0.00200396      -0.00926587       0.02001869
Pt       2.80721416       4.86223734      19.95723425        4      -0.00701527       0.00636524       0.01997270
Pt       5.61442796       4.86223739      19.95723443        4      -0.00000035      -0.00000500       0.02236828
Pt       8.42164143       4.86223725      19.95723447        4       0.00647890       0.00543265       0.01939774
Pt       1.40360729       0.81037262      22.29206795        3      -0.00414262       0.00279076      -0.02746763
Pt       4.21082131       0.81037249      22.29206793        3       0.05479557      -0.02997129      -0.11424906
Pt       7.01803470       0.81037255      22.29206785        3      -0.05333555      -0.03241856      -0.11423071
Pt       2.80721448       3.24149122      22.29206774        3      -0.00035600      -0.00505253      -0.02772341
Pt       5.61442764       3.24149121      22.29206791        3       0.00584670      -0.00194753      -0.06354587
Pt       8.42164154       3.24149129      22.29206806        3       0.00449015       0.00226519      -0.02769313
Pt       4.21082091       5.67260997      22.29206741        3      -0.00464239      -0.00411593      -0.06330019
Pt       7.01803487       5.67261038      22.29206779        3      -0.00120530       0.00606179      -0.06330334
Pt       9.82524821       5.67261068      22.29206808        3      -0.00145169       0.06238839      -0.11424685
Pt      -0.00000053       1.62074567      24.58417372        2       0.24209467       0.14131004       0.34524557
Pt       2.80721436       1.62074552      24.58417391        2      -0.24335192       0.13911626       0.34520048
Pt       5.61442781       1.62074537      24.58417374        2      -0.00075172      -0.04999096      -0.12837951
Pt       1.40360639       4.05186438      24.58417385        2       0.00130908      -0.28040165       0.34524083
Pt       4.21082087       4.05186396      24.58417384        2      -0.00343252       0.00200218      -0.03854771
Pt       7.01803504       4.05186408      24.58417403        2      -0.00014834      -0.00393438      -0.03859768
Pt       2.80721276       6.48298348      24.58417381        2      -0.04298827       0.02551408      -0.12853438
Pt       5.61442804       6.48298329      24.58417396        2       0.00351388       0.00193903      -0.03880152
Pt       8.42164223       6.48298338      24.58417376        2       0.04374942       0.02444251      -0.12864415
Pt      -0.01711957      -0.02515064      26.89926918        1       0.00532422       0.00654138       0.00156611
Pt       2.82456396      -0.02532062      26.89769134        1      -0.00572167       0.00589593       0.00183174
Pt       5.61442640       0.00000012      26.92724461        1       0.00000084       0.00000037      -0.00282325
Pt       1.40360733       2.43111846      27.07653764        1       0.00000112       0.00000263      -0.00616801
Pt       4.24115652       2.42888120      26.89926298        1      -0.00832485       0.00134172       0.00156461
Pt       6.98742673       2.42874776      26.89771380        1       0.00796823       0.00200927       0.00183176
Pt       2.82047307       4.88993135      26.89773560        1      -0.00224432      -0.00790560       0.00183844
Pt       5.61442971       4.86223767      26.91822099        1       0.00000009      -0.00000119      -0.00344732
Pt       8.40842494       4.88962819      26.89925491        1       0.00300255      -0.00788183       0.00156147
O        1.40360753       2.43111814      30.09112671        0      -0.00000010      -0.00000064      -0.00720269
C        1.40360721       2.43111824      28.92857503        0       0.00000001       0.00000083       0.00117099
