38
Lattice="8.421641763931781 0.0 0.0 4.2108208819658905 7.293355709136913 0.0 0.0 0.0 46.87624170604845" Properties=species:S:1:pos:R:3:tags:I:1:forces:R:3 charge=0 spin=0 energy=-202.91267966867198 free_energy=-202.91267966867198 stress="0.009917953051626682 7.366422583032772e-09 4.0607490703337135e-09 7.366422583032772e-09 0.009917964227497578 3.9487918712666215e-08 4.0607490703337135e-09 3.9487918712666215e-08 -0.0004364244523458183" pbc="T T T"
Pt      -0.00000010      -0.00000005      19.95723451        4       0.01521965      -0.00864387       0.01075319
Pt       2.80721394      -0.00000020      19.95723457        4      -0.00268153       0.00268556       0.01331949
Pt       5.61442787      -0.00000008      19.95723465        4      -0.01510742      -0.00889782       0.01074596
Pt       1.40360721       2.43111841      19.95723445        4      -0.00086793      -0.00082359       0.01724215
Pt       4.21082082       2.43111837      19.95723453        4       0.00117598      -0.00034615       0.01718123
Pt       7.01803480       2.43111844      19.95723439        4      -0.00011474       0.01754755       0.01072431
Pt       2.80721416       4.86223734      19.95723425        4      -0.00030947       0.00116820       0.01724196
Pt       5.61442796       4.86223739      19.95723443        4      -0.00100876      -0.00366532       0.01328735
Pt       8.42164143       4.86223725      19.95723447        4       0.00369353       0.00097524       0.01334127
Pt       1.40360729       0.81037262      22.29206795        3      -0.03870735      -0.00531462      -0.06537579
Pt       4.21082131       0.81037249      22.29206793        3       0.03318314      -0.01032671      -0.06678782
Pt       7.01803470       0.81037255      22.29206785        3      -0.00000001       0.00000158      -0.28143758
Pt       2.80721448       3.24149122      22.29206774        3      -0.00000662       0.00000264      -0.00960771
Pt       5.61442764       3.24149121      22.29206791        3       0.02398351      -0.03096066      -0.06542865
Pt       8.42164154       3.24149129      22.29206806        3      -0.02549156      -0.02363817      -0.06682567
Pt       4.21082091       5.67260997      22.29206741        3      -0.00769309       0.03397213      -0.06671932
Pt       7.01803487       5.67261038      22.29206779        3      -0.00000407      -0.00000251      -0.07411522
Pt       9.82524821       5.67261068      22.29206808        3       0.01473394       0.03626629      -0.06543343
Pt      -0.00000053       1.62074567      24.58417372        2       0.09436698       0.05275941       0.12029951
Pt       2.80721436       1.62074552      24.58417391        2       0.00032197       0.07095432       0.15456614
Pt       5.61442781       1.62074537      24.58417374        2      -0.09296475       0.05537849       0.12028603
Pt       1.40360639       4.05186438      24.58417385        2       0.06133012      -0.03574809       0.15463012
Pt       4.21082087       4.05186396      24.58417384        2      -0.06163229      -0.03518917       0.15467614
Pt       7.01803504       4.05186408      24.58417403        2       0.00228773      -0.02609434      -0.06615859
Pt       2.80721276       6.48298348      24.58417381        2      -0.00140990      -0.10813419       0.12025831
Pt       5.61442804       6.48298329      24.58417396        2      -0.02375412       0.01097161      -0.06625396
Pt       8.42164223       6.48298338      24.58417376        2       0.02146038       0.01510099      -0.06630428
Pt      -0.00265993       0.00216188      26.90696991        1       0.00470238      -0.00364617       0.00034612
Pt       2.80862981      -0.01931964      26.89883909        1      -0.00118163      -0.03353047      -0.00262328
Pt       5.61763595       0.00122532      26.90697867        1      -0.00552301      -0.00225081       0.00032513
Pt       1.37959806       2.41519793      27.01570446        1       0.00649714       0.00372903      -0.00289356
Pt       4.23660406       2.41829382      27.01570593        1      -0.00643893       0.00374289      -0.00290148
Pt       7.01748472       2.42773284      26.90698536        1       0.00083800       0.00590123       0.00030064
Pt       2.80542980       4.89098428      27.01570539        1      -0.00001908      -0.00746766      -0.00290115
Pt       5.63046256       4.87311806      26.89884854        1       0.02959784       0.01575775      -0.00265534
Pt       8.40421019       4.87067768      26.89885071        1      -0.02847229       0.01776764      -0.00265905
O        2.80721142       3.24149313      29.53989646        0      -0.00000505      -0.00000404       0.01447412
C        2.80721002       3.24149165      28.33849653        0       0.00000100       0.00000228       0.01308270
