38
Lattice="8.421641763931781 0.0 0.0 4.2108208819658905 7.293355709136913 0.0 0.0 0.0 46.87624170604845" Properties=species:S:1:pos:R:3:tags:I:1:forces:R:3 charge=0 spin=0 energy=-202.88563441873302 free_energy=-202.88563441873302 stress="0.010025960393249989 -1.576342611997461e-08 1.885607892049279e-09 -1.576342611997461e-08 0.010025973431766033 -1.112152592241955e-08 1.885607892049279e-09 -1.112152592241955e-08 -0.0002534013765398413" pbc="T T T"
Pt      -0.00000010      -0.00000005      19.95723451        4       0.00065246      -0.01594270       0.00972466
Pt       2.80721394      -0.00000020      19.95723457        4      -0.00226836       0.00161876       0.02364109
Pt       5.61442787      -0.00000008      19.95723465        4       0.00252471       0.00111998       0.02363910
Pt       1.40360721       2.43111841      19.95723445        4       0.01348885       0.00855698       0.00978534
Pt       4.21082082       2.43111837      19.95723453        4      -0.00174410       0.00237001       0.01088733
Pt       7.01803480       2.43111844      19.95723439        4      -0.01414386       0.00739070       0.00972614
Pt       2.80721416       4.86223734      19.95723425        4       0.00295903       0.00031210       0.01093954
Pt       5.61442796       4.86223739      19.95723443        4      -0.00121514      -0.00269042       0.01087223
Pt       8.42164143       4.86223725      19.95723447        4      -0.00025331      -0.00273595       0.02368541
Pt       1.40360729       0.81037262      22.29206795        3      -0.05316466       0.02883404      -0.15731761
Pt       4.21082131       0.81037249      22.29206793        3      -0.00362145       0.01246112      -0.02476382
Pt       7.01803470       0.81037255      22.29206785        3       0.05146339       0.03163075      -0.15736437
Pt       2.80721448       3.24149122      22.29206774        3      -0.01969057      -0.01315132      -0.06404336
Pt       5.61442764       3.24149121      22.29206791        3       0.02126642      -0.01055504      -0.06405204
Pt       8.42164154       3.24149129      22.29206806        3       0.00170658      -0.06045998      -0.15735404
Pt       4.21082091       5.67260997      22.29206741        3      -0.00158140       0.02371153      -0.06414503
Pt       7.01803487       5.67261038      22.29206779        3      -0.00899283      -0.00935726      -0.02486874
Pt       9.82524821       5.67261068      22.29206808        3       0.01261860      -0.00311130      -0.02490679
Pt      -0.00000053       1.62074567      24.58417372        2      -0.00000080      -0.00000179      -0.20295745
Pt       2.80721436       1.62074552      24.58417391        2       0.08755539       0.03951523       0.13047726
Pt       5.61442781       1.62074537      24.58417374        2      -0.08191575       0.03571263       0.12799245
Pt       1.40360639       4.05186438      24.58417385        2       0.07198497       0.05318097       0.12815534
Pt       4.21082087       4.05186396      24.58417384        2      -0.00000232       0.00000878       0.13735725
Pt       7.01803504       4.05186408      24.58417403        2      -0.07809693       0.05617849       0.13055986
Pt       2.80721276       6.48298348      24.58417381        2      -0.00945432      -0.09569855       0.13037917
Pt       5.61442804       6.48298329      24.58417396        2       0.00992737      -0.08889094       0.12798782
Pt       8.42164223       6.48298338      24.58417376        2      -0.00000332      -0.00001001      -0.01224726
Pt      -0.00138068       0.01999291      26.90097392        1       0.00158119       0.03070014      -0.01858103
Pt       2.81386968      -0.00454010      26.91492422        1      -0.03009045       0.01701078      -0.01559495
Pt       5.60716262      -0.00349412      26.91493309        1       0.02980144       0.01753621      -0.01561792
Pt       1.38698005       2.41992655      26.90097236        1      -0.02738256      -0.01396523      -0.01857486
Pt       4.21230623       2.41247975      27.01581916        1      -0.00245767       0.02899470       0.02585754
Pt       7.03603639       2.42231486      26.90097506        1       0.02580805      -0.01672168      -0.01857991
Pt       2.79033313       4.87026794      27.01582783        1       0.02630239      -0.01234895       0.02581719
Pt       5.62982784       4.87284215      27.01582370        1      -0.02387765      -0.01662254       0.02583938
Pt       8.42224492       4.87027497      26.91493474        1       0.00031923      -0.03457972      -0.01562686
O        4.21082492       4.05186172      29.56202203        0       0.00000350      -0.00000608      -0.03919401
C        4.21082487       4.05186181      28.36171232        0      -0.00000596       0.00000515      -0.02753373
