38
Lattice="8.421641763931781 0.0 0.0 4.2108208819658905 7.293355709136913 0.0 0.0 0.0 46.87624170604845" Properties=species:S:1:pos:R:3:tags:I:1:forces:R:3 charge=0 spin=0 energy=-202.88649654031505 free_energy=-202.88649654031505 stress="0.009958180598914623 -2.080315830710333e-08 4.571597767011326e-09 -2.080315830710333e-08 0.009958198294043541 -1.5529717956042077e-08 4.571597767011326e-09 -1.5529717956042077e-08 -0.000385109189664945" pbc="T T T"
Pt      -0.00000010      -0.00000005      19.95723451        4      -0.00177613       0.00278900       0.01089738
Pt       2.80721394      -0.00000020      19.95723457        4      -0.01416595       0.00740839       0.00951340
Pt       5.61442787      -0.00000008      19.95723465        4       0.01351311       0.00857226       0.00957300
Pt       1.40360721       2.43111841      19.95723445        4      -0.00156158      -0.00291716       0.01088782
Pt       4.21082082       2.43111837      19.95723453        4      -0.00029788      -0.00294382       0.02369109
Pt       7.01803480       2.43111844      19.95723439        4       0.00333576       0.00013324       0.01094480
Pt       2.80721416       4.86223734      19.95723425        4      -0.00243352       0.00175538       0.02365549
Pt       5.61442796       4.86223739      19.95723443        4       0.00273102       0.00118016       0.02364302
Pt       8.42164143       4.86223725      19.95723447        4       0.00065553      -0.01597751       0.00951624
Pt       1.40360729       0.81037262      22.29206795        3       0.02151350      -0.01072835      -0.06214692
Pt       4.21082131       0.81037249      22.29206793        3       0.00194602      -0.06103797      -0.15794024
Pt       7.01803470       0.81037255      22.29206785        3      -0.01995984      -0.01328145      -0.06213521
Pt       2.80721448       3.24149122      22.29206774        3      -0.00877808      -0.00936032      -0.02550154
Pt       5.61442764       3.24149121      22.29206791        3       0.01251194      -0.00290631      -0.02553798
Pt       8.42164154       3.24149129      22.29206806        3      -0.00154962       0.02401308      -0.06225990
Pt       4.21082091       5.67260997      22.29206741        3      -0.00374222       0.01227260      -0.02536820
Pt       7.01803487       5.67261038      22.29206779        3       0.05184348       0.03212565      -0.15794249
Pt       9.82524821       5.67261068      22.29206808        3      -0.05378360       0.02890367      -0.15789798
Pt      -0.00000053       1.62074567      24.58417372        2       0.00000083      -0.00000136       0.13881119
Pt       2.80721436       1.62074552      24.58417391        2      -0.08505469       0.06013445       0.11807711
Pt       5.61442781       1.62074537      24.58417374        2       0.07997952       0.05759461       0.11584697
Pt       1.40360639       4.05186438      24.58417385        2       0.00976542      -0.09802584       0.11567583
Pt       4.21082087       4.05186396      24.58417384        2      -0.00000209      -0.00000110      -0.01336185
Pt       7.01803504       4.05186408      24.58417403        2      -0.00941351      -0.10369676       0.11787215
Pt       2.80721276       6.48298348      24.58417381        2       0.09447289       0.04355943       0.11798986
Pt       5.61442804       6.48298329      24.58417396        2      -0.08974485       0.04043082       0.11566839
Pt       8.42164223       6.48298338      24.58417376        2      -0.00000710       0.00000166      -0.24438560
Pt       0.00046366      -0.01772675      27.01825736        1       0.00055974       0.00282614      -0.00013070
Pt       2.82822319      -0.01103038      26.89509826        1      -0.00712641       0.00341993       0.01005375
Pt       5.59436642      -0.01267985      26.89510226        1       0.00653837       0.00446379       0.01004520
Pt       1.41872786       2.44038360      27.01825708        1      -0.00272906      -0.00092853      -0.00013181
Pt       4.21189571       2.43318229      26.90917401        1      -0.00071854       0.00485889      -0.00076512
Pt       7.00245204       2.43957826      27.01825926        1       0.00216626      -0.00189287      -0.00013406
Pt       2.80846642       4.86027654      26.90916540        1       0.00455795      -0.00181889      -0.00074474
Pt       5.61210035       4.86213100      26.90916659        1      -0.00384162      -0.00303545      -0.00074351
Pt       8.42068815       4.88594850      26.89509232        1       0.00059974      -0.00788929       0.01007232
O        8.42164640       1.62074490      29.55867663        0      -0.00000117       0.00000009      -0.00923216
C        8.42164473       1.62074553      28.35819687        0      -0.00000386      -0.00000036       0.00392487
