38
Lattice="8.421641763931781 0.0 0.0 4.2108208819658905 7.293355709136913 0.0 0.0 0.0 46.87624170604845" Properties=species:S:1:pos:R:3:tags:I:1:forces:R:3 charge=0 spin=0 energy=-202.87924003244152 free_energy=-202.87924003244152 stress="0.009702923707664013 0.00024491336080245674 -2.5271427148254588e-05 0.00024491336080245674 0.010025081224739552 8.079034159891307e-06 -2.5271427148254588e-05 8.079034159891307e-06 -0.00042406757711432874" pbc="T T T"
Pt      -0.00000010      -0.00000005      19.95723451        4      -0.01124434      -0.01653030      -0.00429286
Pt       2.80721394      -0.00000020      19.95723457        4      -0.00678881       0.00491228       0.02531441
Pt       5.61442787      -0.00000008      19.95723465        4      -0.00079313       0.00120631       0.02000175
Pt       1.40360721       2.43111841      19.95723445        4       0.01005084       0.01798792      -0.00688953
Pt       4.21082082       2.43111837      19.95723453        4      -0.00279420       0.00233306       0.01297340
Pt       7.01803480       2.43111844      19.95723439        4       0.00124794      -0.00017840       0.02174943
Pt       2.80721416       4.86223734      19.95723425        4       0.00479319      -0.00174241       0.00684254
Pt       5.61442796       4.86223739      19.95723443        4      -0.00199380      -0.00182077       0.01520134
Pt       8.42164143       4.86223725      19.95723447        4      -0.00071172      -0.00325512       0.01798227
Pt       1.40360729       0.81037262      22.29206795        3      -0.07017682       0.03828188      -0.21910302
Pt       4.21082131       0.81037249      22.29206793        3      -0.01957134       0.00862868      -0.01997110
Pt       7.01803470       0.81037255      22.29206785        3       0.05203488      -0.01764325      -0.11193464
Pt       2.80721448       3.24149122      22.29206774        3      -0.02829062      -0.02054319      -0.08115771
Pt       5.61442764       3.24149121      22.29206791        3       0.00839558      -0.00660864      -0.01091950
Pt       8.42164154       3.24149129      22.29206806        3       0.04449609      -0.03739204      -0.11284079
Pt       4.21082091       5.67260997      22.29206741        3       0.00341720       0.03647706      -0.08307309
Pt       7.01803487       5.67261038      22.29206779        3      -0.01053411       0.00393513      -0.01853253
Pt       9.82524821       5.67261068      22.29206808        3       0.00927975      -0.00375858      -0.06921885
Pt      -0.00000053       1.62074567      24.58417372        2       0.04368560      -0.02496898      -0.16158760
Pt       2.80721436       1.62074552      24.58417391        2       0.18874304       0.09165444       0.25716481
Pt       5.61442781       1.62074537      24.58417374        2      -0.12690042       0.07024315       0.13333812
Pt       1.40360639       4.05186438      24.58417385        2      -0.01861886      -0.03205886      -0.06998140
Pt       4.21082087       4.05186396      24.58417384        2       0.05316789      -0.03248785       0.14008267
Pt       7.01803504       4.05186408      24.58417403        2      -0.13271181       0.07346527       0.13921915
Pt       2.80721276       6.48298348      24.58417381        2       0.01495504       0.03361565      -0.06173635
Pt       5.61442804       6.48298329      24.58417396        2       0.01179178      -0.19752523       0.25934094
Pt       8.42164223       6.48298338      24.58417376        2       0.00049127       0.00468603      -0.02942374
Pt       0.00773824      -0.00287312      26.91368273        1      -0.02011560       0.02019179      -0.01657067
Pt       2.80606170       0.00064906      26.90168664        1      -0.00716069       0.00196220       0.01928504
Pt       5.60581375       0.00642137      26.91155352        1       0.00870201      -0.01255186      -0.01367301
Pt       1.40967429       2.42450998      26.91340360        1      -0.02775948       0.00992773      -0.01724658
Pt       4.19615778       2.43240800      27.05904551        1      -0.00055211      -0.01922515       0.00725377
Pt       7.06777612       2.40337037      26.88976509        1      -0.00691665       0.00099034       0.01180677
Pt       2.75197684       4.89212401      26.88914222        1       0.00105640       0.00373856       0.01742372
Pt       5.60437485       4.87362990      27.05749862        1       0.01670848       0.00987118       0.00823238
Pt       8.41182673       4.86733678      26.90959046        1       0.01907564      -0.00370946      -0.01393444
O        4.92111462       3.64125801      29.69754115        0       0.03415223      -0.01867230       0.01411232
C        4.93222482       3.63562711      28.50967927        0      -0.03261032       0.01656396      -0.00523739
