38
Lattice="8.421641763931781 0.0 0.0 4.2108208819658905 7.293355709136913 0.0 0.0 0.0 46.87624170604845" Properties=species:S:1:pos:R:3:tags:I:1:forces:R:3 charge=0 spin=0 energy=-202.81940364480724 free_energy=-202.81940364480724 stress="0.009595598094165325 -8.796256167897809e-08 -1.8460790673913152e-09 -8.796256167897809e-08 0.009595604613423347 -4.741153603049497e-08 -1.8460790673913152e-09 -4.741153603049497e-08 -0.00033144160988740623" pbc="T T T"
Pt      -0.00000010      -0.00000005      19.95723451        4       0.00647453       0.00543909       0.01939484
Pt       2.80721394      -0.00000020      19.95723457        4      -0.00701258       0.00637200       0.01996453
Pt       5.61442787      -0.00000008      19.95723465        4      -0.00000052       0.00000245       0.02237040
Pt       1.40360721       2.43111841      19.95723445        4       0.00000088       0.00000239      -0.06854481
Pt       4.21082082       2.43111837      19.95723453        4      -0.00794993       0.00290002       0.01944269
Pt       7.01803480       2.43111844      19.95723439        4       0.00901413       0.00289721       0.01999933
Pt       2.80721416       4.86223734      19.95723425        4      -0.00200605      -0.00926939       0.02002369
Pt       5.61442796       4.86223739      19.95723443        4       0.00000033      -0.00000394       0.01782279
Pt       8.42164143       4.86223725      19.95723447        4       0.00147984      -0.00834004       0.01937997
Pt       1.40360729       0.81037262      22.29206795        3      -0.00146133       0.06240061      -0.11424397
Pt       4.21082131       0.81037249      22.29206793        3      -0.00463959      -0.00411164      -0.06331919
Pt       7.01803470       0.81037255      22.29206785        3      -0.00120203       0.00606667      -0.06330666
Pt       2.80721448       3.24149122      22.29206774        3      -0.05334229      -0.03241698      -0.11423171
Pt       5.61442764       3.24149121      22.29206791        3      -0.00413890       0.00278945      -0.02746880
Pt       8.42164154       3.24149129      22.29206806        3       0.05480123      -0.02997592      -0.11424787
Pt       4.21082091       5.67260997      22.29206741        3       0.00448271       0.00226529      -0.02767602
Pt       7.01803487       5.67261038      22.29206779        3      -0.00035258      -0.00505985      -0.02771891
Pt       9.82524821       5.67261068      22.29206808        3       0.00585315      -0.00195770      -0.06354836
Pt      -0.00000053       1.62074567      24.58417372        2       0.04376300       0.02444960      -0.12864587
Pt       2.80721436       1.62074552      24.58417391        2      -0.04300790       0.02552714      -0.12852567
Pt       5.61442781       1.62074537      24.58417374        2       0.00351720       0.00194463      -0.03879010
Pt       1.40360639       4.05186438      24.58417385        2      -0.00074483      -0.04999859      -0.12838215
Pt       4.21082087       4.05186396      24.58417384        2       0.24209340       0.14131778       0.34524053
Pt       7.01803504       4.05186408      24.58417403        2      -0.24335222       0.13911897       0.34519973
Pt       2.80721276       6.48298348      24.58417381        2      -0.00013617      -0.00394533      -0.03860047
Pt       5.61442804       6.48298329      24.58417396        2       0.00129854      -0.28040826       0.34523931
Pt       8.42164223       6.48298338      24.58417376        2      -0.00343728       0.00199257      -0.03853485
Pt      -0.01321692       0.02739137      26.89925440        1       0.00300588      -0.00788262       0.00156813
Pt       2.82047376       0.02769462      26.89773527        1      -0.00224211      -0.00790811       0.00183918
Pt       5.61442947       0.00000062      26.91822645        1      -0.00000263      -0.00000130      -0.00346354
Pt       1.40360517       2.43111881      26.92724813        1       0.00000349       0.00000021      -0.00283939
Pt       4.19370171       2.40596743      26.89926890        1       0.00532385       0.00654265       0.00156734
Pt       7.03538532       2.40579760      26.89769134        1      -0.00572492       0.00589598       0.00183189
Pt       2.77660511       4.85986616      26.89771263        1       0.00796909       0.00200990       0.00183625
Pt       5.61442797       4.86223697      27.07653813        1       0.00000040       0.00000306      -0.00623569
Pt       8.45197759       4.85999997      26.89926279        1      -0.00832770       0.00134215       0.00156429
O        5.61442815       4.86223708      30.09112788        0       0.00000007      -0.00000077      -0.00756419
C        5.61442782       4.86223699      28.92857182        0      -0.00000036       0.00000064       0.00160330
