38
Lattice="8.421641763931781 0.0 0.0 4.2108208819658905 7.293355709136913 0.0 0.0 0.0 46.87624170604845" Properties=species:S:1:pos:R:3:tags:I:1:forces:R:3 charge=0 spin=0 energy=-202.81939983010997 free_energy=-202.81939983010997 stress="0.009595598094165325 -8.139024743059053e-08 -4.263184472108605e-09 -8.139024743059053e-08 0.009595612995326519 -4.683860765908321e-08 -4.263184472108605e-09 -4.683860765908321e-08 -0.0003315233043394983" pbc="T T T"
Pt      -0.00000010      -0.00000005      19.95723451        4       0.00901400       0.00290065       0.01999522
Pt       2.80721394      -0.00000020      19.95723457        4       0.00000050       0.00000351      -0.06854716
Pt       5.61442787      -0.00000008      19.95723465        4      -0.00795186       0.00290330       0.01944093
Pt       1.40360721       2.43111841      19.95723445        4       0.00147690      -0.00833492       0.01938220
Pt       4.21082082       2.43111837      19.95723453        4      -0.00200118      -0.00926608       0.02001795
Pt       7.01803480       2.43111844      19.95723439        4      -0.00000110       0.00000022       0.01782754
Pt       2.80721416       4.86223734      19.95723425        4      -0.00000349      -0.00000394       0.02237825
Pt       5.61442796       4.86223739      19.95723443        4       0.00647584       0.00543126       0.01939479
Pt       8.42164143       4.86223725      19.95723447        4      -0.00700910       0.00636530       0.01996572
Pt       1.40360729       0.81037262      22.29206795        3       0.05479531      -0.02997477      -0.11424466
Pt       4.21082131       0.81037249      22.29206793        3      -0.05333597      -0.03241462      -0.11423045
Pt       7.01803470       0.81037255      22.29206785        3      -0.00414181       0.00279093      -0.02746969
Pt       2.80721448       3.24149122      22.29206774        3       0.00583771      -0.00194432      -0.06354788
Pt       5.61442764       3.24149121      22.29206791        3       0.00448877       0.00226452      -0.02769292
Pt       8.42164154       3.24149129      22.29206806        3      -0.00034570      -0.00505535      -0.02772257
Pt       4.21082091       5.67260997      22.29206741        3      -0.00120561       0.00606643      -0.06328925
Pt       7.01803487       5.67261038      22.29206779        3      -0.00146411       0.06239572      -0.11424211
Pt       9.82524821       5.67261068      22.29206808        3      -0.00462943      -0.00412723      -0.06331969
Pt      -0.00000053       1.62074567      24.58417372        2      -0.24334395       0.13911234       0.34519777
Pt       2.80721436       1.62074552      24.58417391        2      -0.00075322      -0.04999494      -0.12837942
Pt       5.61442781       1.62074537      24.58417374        2       0.24208805       0.14131507       0.34524637
Pt       1.40360639       4.05186438      24.58417385        2      -0.00342462       0.00199800      -0.03854458
Pt       4.21082087       4.05186396      24.58417384        2      -0.00014782      -0.00393205      -0.03860170
Pt       7.01803504       4.05186408      24.58417403        2       0.00130026      -0.28039873       0.34523955
Pt       2.80721276       6.48298348      24.58417381        2       0.00353120       0.00193317      -0.03879864
Pt       5.61442804       6.48298329      24.58417396        2       0.04375267       0.02444586      -0.12865254
Pt       8.42164223       6.48298338      24.58417376        2      -0.04300899       0.02551988      -0.12852594
Pt       0.01735003      -0.02532051      26.89769109        1      -0.00572221       0.00589196       0.00183049
Pt       2.80721270       0.00000006      26.92724454        1       0.00000247       0.00000117      -0.00282580
Pt       5.59730821      -0.02515031      26.89927029        1       0.00532374       0.00654165       0.00156365
Pt       1.43394250       2.42888116      26.89926295        1      -0.00832218       0.00134316       0.00156382
Pt       4.18021292       2.42874759      26.89771369        1       0.00796601       0.00200874       0.00183159
Pt       7.01803502       2.43111853      27.07653667        1       0.00000115       0.00000231      -0.00612344
Pt       2.80721567       4.86223778      26.91822150        1      -0.00000043      -0.00000248      -0.00345402
Pt       5.60121163       4.88962802      26.89925454        1       0.00300143      -0.00787876       0.00156738
Pt       8.43490083       4.88993145      26.89773599        1      -0.00224305      -0.00790692       0.00184071
O        7.01803516       2.43111822      30.09112832        0       0.00000030      -0.00000011      -0.00720931
C        7.01803470       2.43111847      28.92857564        0      -0.00000065       0.00000012       0.00113808
