38
Lattice="8.421641763931781 0.0 0.0 4.2108208819658905 7.293355709136913 0.0 0.0 0.0 46.87624170604845" Properties=species:S:1:pos:R:3:tags:I:1:forces:R:3 charge=0 spin=0 energy=-202.81937121988048 free_energy=-202.81937121988048 stress="0.009599285200238228 -8.41032843368339e-08 -5.532335922708853e-09 -8.41032843368339e-08 0.009599290788173676 -4.8072454461589587e-08 -5.532335922708853e-09 -4.8072454461589587e-08 -0.0003772632626350969" pbc="T T T"
Pt      -0.00000010      -0.00000005      19.95723451        4       0.00646202       0.00539823       0.01943479
Pt       2.80721394      -0.00000020      19.95723457        4      -0.00700057       0.00633188       0.01999592
Pt       5.61442787      -0.00000008      19.95723465        4      -0.00000068       0.00000243       0.02237047
Pt       1.40360721       2.43111841      19.95723445        4       0.00000093       0.00000231      -0.06873571
Pt       4.21082082       2.43111837      19.95723453        4      -0.00790797       0.00291011       0.01948201
Pt       7.01803480       2.43111844      19.95723439        4       0.00897327       0.00290619       0.02003063
Pt       2.80721416       4.86223734      19.95723425        4      -0.00197765      -0.00923890       0.02005486
Pt       5.61442796       4.86223739      19.95723443        4       0.00000040      -0.00000402       0.01772612
Pt       8.42164143       4.86223725      19.95723447        4       0.00145060      -0.00830902       0.01941965
Pt       1.40360729       0.81037262      22.29206795        3      -0.00144949       0.06260527      -0.11474140
Pt       4.21082131       0.81037249      22.29206793        3      -0.00462009      -0.00409668      -0.06353346
Pt       7.01803470       0.81037255      22.29206785        3      -0.00119837       0.00604175      -0.06352119
Pt       2.80721448       3.24149122      22.29206774        3      -0.05352448      -0.03250883      -0.11472774
Pt       5.61442764       3.24149121      22.29206791        3      -0.00409273       0.00278477      -0.02735295
Pt       8.42164154       3.24149129      22.29206806        3       0.05497121      -0.03008731      -0.11474414
Pt       4.21082091       5.67260997      22.29206741        3       0.00445541       0.00222788      -0.02756259
Pt       7.01803487       5.67261038      22.29206779        3      -0.00037215      -0.00501673      -0.02760565
Pt       9.82524821       5.67261068      22.29206808        3       0.00582982      -0.00194854      -0.06376434
Pt      -0.00000053       1.62074567      24.58417372        2       0.04291083       0.02406540      -0.12517442
Pt       2.80721436       1.62074552      24.58417391        2      -0.04225190       0.02498483      -0.12506612
Pt       5.61442781       1.62074537      24.58417374        2       0.00354786       0.00209123      -0.03621122
Pt       1.40360639       4.05186438      24.58417385        2      -0.00065069      -0.04906607      -0.12489972
Pt       4.21082087       4.05186396      24.58417384        2       0.24014996       0.14028685       0.34261560
Pt       7.01803504       4.05186408      24.58417403        2      -0.24148761       0.13795231       0.34257635
Pt       2.80721276       6.48298348      24.58417381        2      -0.00002406      -0.00404492      -0.03601235
Pt       5.61442804       6.48298329      24.58417396        2       0.00137359      -0.27821121       0.34261301
Pt       8.42164223       6.48298338      24.58417376        2      -0.00357409       0.00194046      -0.03595564
Pt      -0.01258832       0.02692434      26.89992495        1      -0.00256340      -0.00166468      -0.00179406
Pt       2.81996321       0.02720104      26.89843588        1       0.00295669      -0.00160398      -0.00165663
Pt       5.61442895       0.00000339      26.91800426        1       0.00000724      -0.00002396      -0.00407639
Pt       1.40360647       2.43111604      26.92751783        1      -0.00000287       0.00002207      -0.00439999
Pt       4.19379266       2.40674378      26.89993840        1       0.00271691      -0.00137144      -0.00178119
Pt       7.03521115       2.40648845      26.89839363        1      -0.00284505      -0.00177043      -0.00167716
Pt       2.77729346       4.85967086      26.89841578        1      -0.00013587       0.00335948      -0.00168587
Pt       5.61442823       4.86223658      27.07455927        1       0.00000277       0.00000750      -0.04863155
Pt       8.45125606       4.85969036      26.89993452        1      -0.00012945       0.00304530      -0.00180148
O        5.61442790       4.86223704      30.08662187        0       0.00000032       0.00000020       0.02639314
C        5.61442790       4.86223708      28.92432764        0      -0.00000073       0.00000028       0.02440070
