38
Lattice="8.421641763931781 0.0 0.0 4.2108208819658905 7.293355709136913 0.0 0.0 0.0 46.87624170604845" Properties=species:S:1:pos:R:3:tags:I:1:forces:R:3 charge=0 spin=0 energy=-202.8796224558424 free_energy=-202.8796224558424 stress="0.010213042609393597 1.5713092579972e-05 6.505710643978091e-06 1.5713092579972e-05 0.00960247777402401 -1.2826331840187777e-05 6.505710643978091e-06 -1.2826331840187777e-05 -0.0003531910479068756" pbc="T T T"
Pt      -0.00000010      -0.00000005      19.95723451        4      -0.00085337       0.00454683       0.00693626
Pt       2.80721394      -0.00000020      19.95723457        4      -0.02004445      -0.00046431      -0.00638601
Pt       5.61442787      -0.00000008      19.95723465        4       0.01957816      -0.00156266      -0.00392963
Pt       1.40360721       2.43111841      19.95723445        4      -0.00038794      -0.00420008       0.01307829
Pt       4.21082082       2.43111837      19.95723453        4      -0.00082642      -0.00869864       0.02541047
Pt       7.01803480       2.43111844      19.95723439        4       0.00242004      -0.00140318       0.01529716
Pt       2.80721416       4.86223734      19.95723425        4      -0.00084603      -0.00159080       0.01998232
Pt       5.61442796       4.86223739      19.95723443        4       0.00337422       0.00060582       0.01799838
Pt       8.42164143       4.86223725      19.95723447        4      -0.00033041       0.00044295       0.02182801
Pt       1.40360729       0.81037262      22.29206795        3       0.03146321      -0.01591140      -0.08148167
Pt       4.21082131       0.81037249      22.29206793        3       0.00176283      -0.08057428      -0.21869679
Pt       7.01803470       0.81037255      22.29206785        3      -0.03297736      -0.01690623      -0.08341494
Pt       2.80721448       3.24149122      22.29206774        3       0.00228637      -0.02304352      -0.02016404
Pt       5.61442764       3.24149121      22.29206791        3       0.00199591      -0.01268263      -0.01866634
Pt       8.42164154       3.24149129      22.29206806        3       0.00139569       0.00826922      -0.01013697
Pt       4.21082091       5.67260997      22.29206741        3      -0.00152007       0.00828625      -0.06869927
Pt       7.01803487       5.67261038      22.29206779        3       0.01046232       0.05572237      -0.11288584
Pt       9.82524821       5.67261068      22.29206808        3      -0.01126652       0.05245364      -0.11196375
Pt      -0.00000053       1.62074567      24.58417372        2       0.00128704       0.07238097       0.15617813
Pt       2.80721436       1.62074552      24.58417391        2      -0.17241189       0.12592739       0.26462576
Pt       5.61442781       1.62074537      24.58417374        2       0.16417579       0.11732491       0.26636708
Pt       1.40360639       4.05186438      24.58417385        2      -0.00199655      -0.13965990       0.14863661
Pt       4.21082087       4.05186396      24.58417384        2      -0.00386520      -0.00272098      -0.02677718
Pt       7.01803504       4.05186408      24.58417403        2       0.00720007      -0.14693758       0.15632662
Pt       2.80721276       6.48298348      24.58417381        2      -0.03253444       0.00473348      -0.06289640
Pt       5.61442804       6.48298329      24.58417396        2       0.03286943       0.00819955      -0.07128508
Pt       8.42164223       6.48298338      24.58417376        2      -0.00008280       0.04690229      -0.16422485
Pt       0.00160593      -0.05201169      26.89127926        1      -0.00255317       0.01082783       0.00991202
Pt       2.81077656       0.01110359      26.91108564        1      -0.00551717      -0.00195540      -0.00779194
Pt       5.61193212       0.01071986      26.91155511        1       0.00387529      -0.00127266      -0.00723891
Pt       1.41405293       2.42934796      27.06454880        1      -0.01607238      -0.01659091      -0.00663338
Pt       4.21113815       2.43492542      26.90549556        1       0.00035149      -0.00410860       0.00479337
Pt       7.00848778       2.42724407      27.06353360        1       0.01846378      -0.01094006      -0.00674339
Pt       2.80979883       4.86181409      26.91116514        1      -0.01075922      -0.00563129      -0.01049467
Pt       5.61160164       4.86190649      26.90950470        1       0.01073047      -0.00302045      -0.01208731
Pt       8.42114544       4.92707304      26.89661797        1       0.00065387      -0.02929288      -0.01131626
O        8.42231711       2.45945763      29.70043998        0      -0.00104257       0.01934489      -0.00926384
C        8.42150756       2.46125679      28.51217706        0       0.00154189      -0.00679985       0.00580779
