38
Lattice="8.421641763931781 0.0 0.0 4.2108208819658905 7.293355709136913 0.0 0.0 0.0 46.87624170604845" Properties=species:S:1:pos:R:3:tags:I:1:forces:R:3 charge=0 spin=0 energy=-202.91206073404064 free_energy=-202.91206073404064 stress="0.009984029456973076 5.298125937969189e-09 -1.0049704818326788e-10 5.298125937969189e-09 0.00998404435813427 3.957066141424548e-08 -1.0049704818326788e-10 3.957066141424548e-08 -0.00030070357024669647" pbc="T T T"
Pt      -0.00000010      -0.00000005      19.95723451        4      -0.00034994       0.00128984       0.01726490
Pt       2.80721394      -0.00000020      19.95723457        4      -0.00110321      -0.00370899       0.01340764
Pt       5.61442787      -0.00000008      19.95723465        4       0.00378186       0.00092410       0.01345842
Pt       1.40360721       2.43111841      19.95723445        4       0.01529843      -0.00877056       0.01067762
Pt       4.21082082       2.43111837      19.95723453        4      -0.00267705       0.00279032       0.01343696
Pt       7.01803480       2.43111844      19.95723439        4      -0.01525588      -0.00890497       0.01066910
Pt       2.80721416       4.86223734      19.95723425        4      -0.00094957      -0.00092362       0.01727788
Pt       5.61442796       4.86223739      19.95723443        4       0.00129547      -0.00037114       0.01720869
Pt       8.42164143       4.86223725      19.95723447        4      -0.00004061       0.01767449       0.01064316
Pt       1.40360729       0.81037262      22.29206795        3      -0.00754327       0.03387838      -0.06636690
Pt       4.21082131       0.81037249      22.29206793        3      -0.00000098       0.00000598      -0.07606393
Pt       7.01803470       0.81037255      22.29206785        3       0.01448611       0.03599883      -0.06512818
Pt       2.80721448       3.24149122      22.29206774        3      -0.03835382      -0.00538181      -0.06507619
Pt       5.61442764       3.24149121      22.29206791        3       0.03303127      -0.01041152      -0.06642397
Pt       8.42164154       3.24149129      22.29206806        3       0.00000347       0.00000055      -0.27931881
Pt       4.21082091       5.67260997      22.29206741        3      -0.00000372       0.00000042      -0.01059519
Pt       7.01803487       5.67261038      22.29206779        3       0.02385796      -0.03061473      -0.06512073
Pt       9.82524821       5.67261068      22.29206808        3      -0.02547731      -0.02347561      -0.06646073
Pt      -0.00000053       1.62074567      24.58417372        2      -0.00140621      -0.10708376       0.12827641
Pt       2.80721436       1.62074552      24.58417391        2      -0.02529630       0.01192432      -0.05028279
Pt       5.61442781       1.62074537      24.58417374        2       0.02304364       0.01598114      -0.05033886
Pt       1.40360639       4.05186438      24.58417385        2       0.09347077       0.05225126       0.12831081
Pt       4.21082087       4.05186396      24.58417384        2       0.00036178       0.06672648       0.15598676
Pt       7.01803504       4.05186408      24.58417403        2      -0.09207053       0.05485037       0.12830640
Pt       2.80721276       6.48298348      24.58417381        2       0.05765584      -0.03367786       0.15602925
Pt       5.61442804       6.48298329      24.58417396        2      -0.05799201      -0.03305819       0.15607579
Pt       8.42164223       6.48298338      24.58417376        2       0.00223707      -0.02791267      -0.05020855
Pt      -0.00150093       0.02765851      27.01292564        1      -0.00041404      -0.02873444       0.03321109
Pt       2.82344379       0.01126778      26.90198492        1       0.03228593       0.01666786      -0.01518852
Pt       5.59655716       0.00841995      26.90198794        1      -0.03058771       0.01962999      -0.01519207
Pt       1.39813700       2.43551354      26.91239518        1       0.02119220      -0.01529868      -0.01476601
Pt       4.21246677       2.41143214      26.90198450        1      -0.00171055      -0.03629595      -0.01518862
Pt       7.02457555       2.43365884      26.91239745        1      -0.02384430      -0.01069304      -0.01477059
Pt       2.78400813       4.84710825      27.01293324        1       0.02510305       0.01400172       0.03318896
Pt       5.63913316       4.84970906      27.01293292        1      -0.02467650       0.01472185       0.03318780
Pt       8.42057307       4.85530385      26.91240825        1       0.00264286       0.02599845      -0.01480259
O        4.21081872       5.67261348      29.54890836        0      -0.00000022       0.00000001      -0.04417106
C        4.21081761       5.67261008      28.34770962        0       0.00000583       0.00000142      -0.03115358
