38
Lattice="8.421641763931781 0.0 0.0 4.2108208819658905 7.293355709136913 0.0 0.0 0.0 46.87624170604845" Properties=species:S:1:pos:R:3:tags:I:1:forces:R:3 charge=0 spin=0 energy=-202.88649654031505 free_energy=-202.88649654031505 stress="0.009958188980817795 -2.0240516818148535e-08 4.6612749216023985e-09 -2.0240516818148535e-08 0.009958209469914436 -1.5621836269019695e-08 4.6612749216023985e-09 -1.5621836269019695e-08 -0.00038510520244017243" pbc="T T T"
Pt      -0.00000010      -0.00000005      19.95723451        4      -0.00156283      -0.00291607       0.01088354
Pt       2.80721394      -0.00000020      19.95723457        4      -0.00029983      -0.00294042       0.02368925
Pt       5.61442787      -0.00000008      19.95723465        4       0.00333654       0.00013629       0.01094231
Pt       1.40360721       2.43111841      19.95723445        4      -0.00243054       0.00176089       0.02365042
Pt       4.21082082       2.43111837      19.95723453        4       0.00273250       0.00118444       0.02364701
Pt       7.01803480       2.43111844      19.95723439        4       0.00065156      -0.01597449       0.00951781
Pt       2.80721416       4.86223734      19.95723425        4      -0.00177776       0.00278234       0.01090684
Pt       5.61442796       4.86223739      19.95723443        4      -0.01416551       0.00740076       0.00951109
Pt       8.42164143       4.86223725      19.95723447        4       0.01351624       0.00856603       0.00957406
Pt       1.40360729       0.81037262      22.29206795        3      -0.00877238      -0.00936231      -0.02549874
Pt       4.21082131       0.81037249      22.29206793        3       0.01250851      -0.00290132      -0.02553943
Pt       7.01803470       0.81037255      22.29206785        3      -0.00155328       0.02401409      -0.06225950
Pt       2.80721448       3.24149122      22.29206774        3      -0.00374527       0.01227510      -0.02538709
Pt       5.61442764       3.24149121      22.29206791        3       0.05184911       0.03212927      -0.15794492
Pt       8.42164154       3.24149129      22.29206806        3      -0.05378872       0.02891472      -0.15789692
Pt       4.21082091       5.67260997      22.29206741        3       0.02151068      -0.01072842      -0.06213205
Pt       7.01803487       5.67261038      22.29206779        3       0.00194396      -0.06104600      -0.15793580
Pt       9.82524821       5.67261068      22.29206808        3      -0.01995042      -0.01329294      -0.06213675
Pt      -0.00000053       1.62074567      24.58417372        2       0.00976203      -0.09802885       0.11567860
Pt       2.80721436       1.62074552      24.58417391        2      -0.00000365      -0.00000529      -0.01335542
Pt       5.61442781       1.62074537      24.58417374        2      -0.00941259      -0.10369463       0.11787413
Pt       1.40360639       4.05186438      24.58417385        2       0.09446522       0.04356932       0.11799098
Pt       4.21082087       4.05186396      24.58417384        2      -0.08973981       0.04043863       0.11567087
Pt       7.01803504       4.05186408      24.58417403        2      -0.00000234       0.00001051      -0.24438708
Pt       2.80721276       6.48298348      24.58417381        2       0.00001004      -0.00000771       0.13880785
Pt       5.61442804       6.48298329      24.58417396        2      -0.08505567       0.06012923       0.11807226
Pt       8.42164223       6.48298338      24.58417376        2       0.07997227       0.05758493       0.11584767
Pt       0.01512127       0.00926517      27.01825656        1      -0.00273341      -0.00092943      -0.00013357
Pt       2.80828863       0.00206408      26.90917375        1      -0.00071720       0.00485673      -0.00076505
Pt       5.59884469       0.00845999      27.01825902        1       0.00217048      -0.00189587      -0.00013071
Pt       1.40485953       2.42915778      26.90916591        1       0.00455805      -0.00181807      -0.00074298
Pt       4.20849338       2.43101217      26.90916757        1      -0.00384139      -0.00303371      -0.00074790
Pt       7.01708122       2.45482995      26.89509254        1       0.00060187      -0.00788799       0.01007270
Pt       2.80767750       4.84451011      27.01825745        1       0.00056121       0.00282875      -0.00013111
Pt       5.63543691       4.85120659      26.89509819        1      -0.00712682       0.00341885       0.01005235
Pt       8.40158046       4.84955729      26.89510191        1       0.00653443       0.00446263       0.01004266
O       11.22886045       6.48298189      29.55867575        0      -0.00000475       0.00000080      -0.00923254
C       11.22885816       6.48298279      28.35819682        0      -0.00000032      -0.00000052       0.00392504
