38
Lattice="8.421641763931781 0.0 0.0 4.2108208819658905 7.293355709136913 0.0 0.0 0.0 46.87624170604845" Properties=species:S:1:pos:R:3:tags:I:1:forces:R:3 charge=0 spin=0 energy=-202.8796224558424 free_energy=-202.8796224558424 stress="0.010213029570877552 1.5707642887718976e-05 6.5057324718509335e-06 1.5707642887718976e-05 0.00960247591137886 -1.2817767128581181e-05 6.5057324718509335e-06 -1.2817767128581181e-05 -0.00035319686867296696" pbc="T T T"
Pt      -0.00000010      -0.00000005      19.95723451        4       0.00337263       0.00061344       0.01799870
Pt       2.80721394      -0.00000020      19.95723457        4      -0.00033377       0.00044941       0.02182695
Pt       5.61442787      -0.00000008      19.95723465        4      -0.00084323      -0.00158443       0.01997429
Pt       1.40360721       2.43111841      19.95723445        4      -0.02004407      -0.00046574      -0.00638359
Pt       4.21082082       2.43111837      19.95723453        4       0.01958028      -0.00156580      -0.00392758
Pt       7.01803480       2.43111844      19.95723439        4      -0.00085357       0.00454323       0.00694052
Pt       2.80721416       4.86223734      19.95723425        4      -0.00083109      -0.00870171       0.02541666
Pt       5.61442796       4.86223739      19.95723443        4       0.00242125      -0.00140754       0.01529215
Pt       8.42164143       4.86223725      19.95723447        4      -0.00038474      -0.00420521       0.01307630
Pt       1.40360729       0.81037262      22.29206795        3       0.01046492       0.05572722      -0.11288644
Pt       4.21082131       0.81037249      22.29206793        3      -0.01127658       0.05246916      -0.11196375
Pt       7.01803470       0.81037255      22.29206785        3      -0.00151665       0.00828686      -0.06871718
Pt       2.80721448       3.24149122      22.29206774        3       0.00175725      -0.08057582      -0.21869552
Pt       5.61442764       3.24149121      22.29206791        3      -0.03297527      -0.01690762      -0.08341438
Pt       8.42164154       3.24149129      22.29206806        3       0.03146846      -0.01591159      -0.08148398
Pt       4.21082091       5.67260997      22.29206741        3       0.00198940      -0.01268231      -0.01864989
Pt       7.01803487       5.67261038      22.29206779        3       0.00138835       0.00826514      -0.01013457
Pt       9.82524821       5.67261068      22.29206808        3       0.00230160      -0.02305810      -0.02016381
Pt      -0.00000053       1.62074567      24.58417372        2       0.03287730       0.00820090      -0.07127906
Pt       2.80721436       1.62074552      24.58417391        2      -0.00007782       0.04690930      -0.16422728
Pt       5.61442781       1.62074537      24.58417374        2      -0.03254893       0.00474643      -0.06288946
Pt       1.40360639       4.05186438      24.58417385        2      -0.17240238       0.12592733       0.26462197
Pt       4.21082087       4.05186396      24.58417384        2       0.16417509       0.11732493       0.26635924
Pt       7.01803504       4.05186408      24.58417403        2       0.00128319       0.07238529       0.15617499
Pt       2.80721276       6.48298348      24.58417381        2      -0.00385225      -0.00273474      -0.02677597
Pt       5.61442804       6.48298329      24.58417396        2       0.00719691      -0.14694117       0.15632185
Pt       8.42164223       6.48298338      24.58417376        2      -0.00200746      -0.13966595       0.14864349
Pt      -0.00282711      -0.00033043      26.90950495        1       0.01073077      -0.00301707      -0.01209134
Pt       2.80671833       0.06483511      26.89661813        1       0.00065418      -0.02929074      -0.01131522
Pt       5.61701307      -0.00042284      26.91116722        1      -0.01076206      -0.00563321      -0.01049707
Pt       1.40716989       2.44222211      26.91108557        1      -0.00552011      -0.00195610      -0.00779279
Pt       4.20832530       2.44183784      26.91155516        1       0.00387751      -0.00126880      -0.00724256
Pt       7.01964101       2.37910736      26.89127997        1      -0.00255428       0.01082459       0.00991199
Pt       2.80753077       4.86604409      26.90549486        1       0.00035040      -0.00410827       0.00479405
Pt       5.60487983       4.85836255      27.06353053        1       0.01847373      -0.01094017      -0.00672914
Pt       8.43208820       4.86046675      27.06454763        1      -0.01607429      -0.01658968      -0.00663443
O        7.01870870       4.89057656      29.70043781        0      -0.00104368       0.01934096      -0.00925903
C        7.01790005       4.89237627      28.51217467        0       0.00153929      -0.00680260       0.00580087
