38
Lattice="8.421641763931781 0.0 0.0 4.2108208819658905 7.293355709136913 0.0 0.0 0.0 46.87624170604845" Properties=species:S:1:pos:R:3:tags:I:1:forces:R:3 charge=0 spin=0 energy=-202.91223716378917 free_energy=-202.91223716378917 stress="0.00991490762680769 5.887982990060436e-09 9.57657508848797e-09 5.887982990060436e-09 0.009914913214743137 3.705989115587727e-08 9.57657508848797e-09 3.705989115587727e-08 -0.0004492411098908633" pbc="T T T"
Pt      -0.00000010      -0.00000005      19.95723451        4       0.00092472      -0.00032592       0.01693203
Pt       2.80721394      -0.00000020      19.95723457        4      -0.00011457       0.01753800       0.01061683
Pt       5.61442787      -0.00000008      19.95723465        4      -0.00072965      -0.00061523       0.01699446
Pt       1.40360721       2.43111841      19.95723445        4      -0.00088443      -0.00358721       0.01321697
Pt       4.21082082       2.43111837      19.95723453        4       0.00356781       0.00104819       0.01326786
Pt       7.01803480       2.43111844      19.95723439        4      -0.00019650       0.00094704       0.01699130
Pt       2.80721416       4.86223734      19.95723425        4      -0.00268528       0.00253582       0.01325395
Pt       5.61442796       4.86223739      19.95723443        4      -0.01509520      -0.00889971       0.01064058
Pt       8.42164143       4.86223725      19.95723447        4       0.01521316      -0.00864234       0.01065305
Pt       1.40360729       0.81037262      22.29206795        3       0.02467254      -0.03124998      -0.06581995
Pt       4.21082131       0.81037249      22.29206793        3      -0.02602177      -0.02403166      -0.06692658
Pt       7.01803470       0.81037255      22.29206785        3      -0.00000043       0.00000007      -0.00723187
Pt       2.80721448       3.24149122      22.29206774        3      -0.00000712       0.00000500      -0.07234176
Pt       5.61442764       3.24149121      22.29206791        3       0.01463150       0.03702359      -0.06583662
Pt       8.42164154       3.24149129      22.29206806        3      -0.00776578       0.03462667      -0.06683261
Pt       4.21082091       5.67260997      22.29206741        3       0.03378672      -0.01058892      -0.06686591
Pt       7.01803487       5.67261038      22.29206779        3      -0.00000325      -0.00000386      -0.28188449
Pt       9.82524821       5.67261068      22.29206808        3      -0.03929441      -0.00578320      -0.06578097
Pt      -0.00000053       1.62074567      24.58417372        2      -0.06597028      -0.03741075       0.14743832
Pt       2.80721436       1.62074552      24.58417391        2       0.00294950      -0.02852377      -0.08110722
Pt       5.61442781       1.62074537      24.58417374        2       0.06541917      -0.03840186       0.14739461
Pt       1.40360639       4.05186438      24.58417385        2      -0.02619073       0.01157564      -0.08120185
Pt       4.21082087       4.05186396      24.58417384        2       0.02322550       0.01692036      -0.08128458
Pt       7.01803504       4.05186408      24.58417403        2      -0.00099562      -0.10878891       0.13135526
Pt       2.80721276       6.48298348      24.58417381        2       0.00059342       0.07582971       0.14731435
Pt       5.61442804       6.48298329      24.58417396        2      -0.09374287       0.05536425       0.13137358
Pt       8.42164223       6.48298338      24.58417376        2       0.09471383       0.05343963       0.13140810
Pt       0.02261668      -0.01045939      27.01639480        1       0.01916852      -0.01402844       0.00064883
Pt       2.80675908       0.00215462      26.90728943        1       0.00163991      -0.03185965      -0.00436979
Pt       5.59404693      -0.01435642      27.01638990        1      -0.02166735      -0.00955858       0.00068711
Pt       1.41887090       2.44061253      26.89435408        1       0.03230584       0.02097668       0.01688055
Pt       4.19495074       2.43958895      26.89433459        1      -0.03423745       0.01750747       0.01694270
Pt       7.01578710       2.45594090      27.01639116        1       0.00253627       0.02360396       0.00066010
Pt       2.80781476       4.84427201      26.89432653        1       0.00197323      -0.03846263       0.01696902
Pt       5.61280004       4.86077889      26.90726140        1       0.02674705       0.01730673      -0.00429655
Pt       8.42374569       4.86155148      26.90727344        1      -0.02845405       0.01451285      -0.00432912
O        7.01803195       0.81037388      29.54615931        0      -0.00001316      -0.00000260       0.00904563
C        7.01802958       0.81037311      28.34499918        0       0.00000109       0.00000355      -0.00457537
