38
Lattice="8.421641763931781 0.0 0.0 4.2108208819658905 7.293355709136913 0.0 0.0 0.0 46.87624170604845" Properties=species:S:1:pos:R:3:tags:I:1:forces:R:3 charge=0 spin=0 energy=-202.8864936792921 free_energy=-202.8864936792921 stress="0.009958181530237198 -2.1226332691526295e-08 6.305288291486022e-09 -2.1226332691526295e-08 0.00995820015668869 -1.5317207058274107e-08 6.305288291486022e-09 -1.5317207058274107e-08 -0.0003850430657621473" pbc="T T T"
Pt      -0.00000010      -0.00000005      19.95723451        4       0.00065131      -0.01597093       0.00951361
Pt       2.80721394      -0.00000020      19.95723457        4      -0.00243093       0.00176194       0.02364792
Pt       5.61442787      -0.00000008      19.95723465        4       0.00273075       0.00118740       0.02364493
Pt       1.40360721       2.43111841      19.95723445        4       0.01351315       0.00857114       0.00957584
Pt       4.21082082       2.43111837      19.95723453        4      -0.00177307       0.00278559       0.01090105
Pt       7.01803480       2.43111844      19.95723439        4      -0.01416670       0.00740493       0.00951598
Pt       2.80721416       4.86223734      19.95723425        4       0.00333362       0.00013020       0.01095025
Pt       5.61442796       4.86223739      19.95723443        4      -0.00156143      -0.00292385       0.01088307
Pt       8.42164143       4.86223725      19.95723447        4      -0.00029651      -0.00294665       0.02369043
Pt       1.40360729       0.81037262      22.29206795        3      -0.05379330       0.02891527      -0.15789519
Pt       4.21082131       0.81037249      22.29206793        3      -0.00373953       0.01227676      -0.02538679
Pt       7.01803470       0.81037255      22.29206785        3       0.05184672       0.03213079      -0.15794550
Pt       2.80721448       3.24149122      22.29206774        3      -0.01996581      -0.01327912      -0.06213725
Pt       5.61442764       3.24149121      22.29206791        3       0.02151669      -0.01072917      -0.06214786
Pt       8.42164154       3.24149129      22.29206806        3       0.00195111      -0.06104206      -0.15793914
Pt       4.21082091       5.67260997      22.29206741        3      -0.00155730       0.02401354      -0.06224266
Pt       7.01803487       5.67261038      22.29206779        3      -0.00877474      -0.00936679      -0.02549769
Pt       9.82524821       5.67261068      22.29206808        3       0.01251821      -0.00291656      -0.02553988
Pt      -0.00000053       1.62074567      24.58417372        2       0.00000275       0.00000569      -0.24438520
Pt       2.80721436       1.62074552      24.58417391        2       0.09445694       0.04356813       0.11799458
Pt       5.61442781       1.62074537      24.58417374        2      -0.08974006       0.04043833       0.11567701
Pt       1.40360639       4.05186438      24.58417385        2       0.07998482       0.05759087       0.11584161
Pt       4.21082087       4.05186396      24.58417384        2      -0.00000016       0.00000501       0.13880777
Pt       7.01803504       4.05186408      24.58417403        2      -0.08505552       0.06013487       0.11807787
Pt       2.80721276       6.48298348      24.58417381        2      -0.00939889      -0.10370695       0.11786719
Pt       5.61442804       6.48298329      24.58417396        2       0.00975525      -0.09803028       0.11567661
Pt       8.42164223       6.48298338      24.58417376        2      -0.00000817      -0.00001199      -0.01335487
Pt      -0.00095362       0.02371147      26.89509236        1       0.00060481      -0.00789061       0.01007022
Pt       2.80846697      -0.00196077      26.90916597        1       0.00455243      -0.00181658      -0.00074296
Pt       5.61209991      -0.00010639      26.90916773        1      -0.00384096      -0.00303181      -0.00074652
Pt       1.38354565       2.41843831      26.89510197        1       0.00653778       0.00446246       0.01004249
Pt       4.21128443       2.41339132      27.01825731        1       0.00056033       0.00282815      -0.00012880
Pt       7.03904418       2.42008778      26.89509869        1      -0.00712916       0.00341981       0.01004762
Pt       2.79163080       4.87069685      27.01825702        1       0.00217135      -0.00189622      -0.00012817
Pt       5.62954897       4.87150262      27.01825625        1      -0.00273269      -0.00092838      -0.00013333
Pt       8.42271623       4.86430127      26.90917366        1      -0.00071709       0.00485637      -0.00076507
O        4.21082520       4.05186398      29.55867573        0      -0.00000328       0.00000033      -0.00937383
C        4.21082395       4.05186410      28.35819521        0      -0.00000279       0.00000037       0.00406449
