38
Lattice="8.421641763931781 0.0 0.0 4.2108208819658905 7.293355709136913 0.0 0.0 0.0 46.87624170604845" Properties=species:S:1:pos:R:3:tags:I:1:forces:R:3 charge=0 spin=0 energy=-202.8792104685377 free_energy=-202.8792104685377 stress="0.010221905075013638 1.3775961633655243e-05 9.212105396727566e-06 1.3775961633655243e-05 0.009590726345777512 6.722875241393922e-06 9.212105396727566e-06 6.722875241393922e-06 -0.0003527458757162094" pbc="T T T"
Pt      -0.00000010      -0.00000005      19.95723451        4       0.01950888      -0.00209822      -0.00384675
Pt       2.80721394      -0.00000020      19.95723457        4      -0.00069734       0.00418489       0.00724315
Pt       5.61442787      -0.00000008      19.95723465        4      -0.01978748      -0.00100843      -0.00632360
Pt       1.40360721       2.43111841      19.95723445        4       0.00252287      -0.00161947       0.01511045
Pt       4.21082082       2.43111837      19.95723453        4      -0.00029226      -0.00436125       0.01301580
Pt       7.01803480       2.43111844      19.95723439        4      -0.00072452      -0.00919124       0.02555396
Pt       2.80721416       4.86223734      19.95723425        4      -0.00020386       0.00011011       0.02179935
Pt       5.61442796       4.86223739      19.95723443        4      -0.00061858      -0.00222510       0.01975258
Pt       8.42164143       4.86223725      19.95723447        4       0.00341988       0.00006937       0.01775595
Pt       1.40360729       0.81037262      22.29206795        3      -0.03276993      -0.01836695      -0.08527941
Pt       4.21082131       0.81037249      22.29206793        3       0.03125843      -0.01758579      -0.08299018
Pt       7.01803470       0.81037255      22.29206785        3       0.00176131      -0.08153576      -0.21879253
Pt       2.80721448       3.24149122      22.29206774        3       0.00149542       0.00656850      -0.00831671
Pt       5.61442764       3.24149121      22.29206791        3       0.00303297      -0.02508463      -0.02035403
Pt       8.42164154       3.24149129      22.29206806        3       0.00168549      -0.01475968      -0.01904031
Pt       4.21082091       5.67260997      22.29206741        3      -0.01054038       0.05164590      -0.11147569
Pt       7.01803487       5.67261038      22.29206779        3      -0.00133801       0.00669893      -0.06885842
Pt       9.82524821       5.67261068      22.29206808        3       0.00996690       0.05451900      -0.11212310
Pt      -0.00000053       1.62074567      24.58417372        2       0.15876392       0.12669599       0.27105418
Pt       2.80721436       1.62074552      24.58417391        2       0.00134123       0.07740791       0.16148680
Pt       5.61442781       1.62074537      24.58417374        2      -0.16925439       0.13592109       0.27082351
Pt       1.40360639       4.05186438      24.58417385        2       0.01398718      -0.13930055       0.15458846
Pt       4.21082087       4.05186396      24.58417384        2      -0.00941598      -0.13335963       0.14779130
Pt       7.01803504       4.05186408      24.58417403        2      -0.00486991      -0.00312000      -0.02959969
Pt       2.80721276       6.48298348      24.58417381        2      -0.00088065       0.04934881      -0.16025275
Pt       5.61442804       6.48298329      24.58417396        2      -0.03379705       0.00860255      -0.06890386
Pt       8.42164223       6.48298338      24.58417376        2       0.03285453       0.01248196      -0.07671489
Pt      -0.00123559       0.01882869      26.90931268        1      -0.00463962      -0.00109536      -0.00018878
Pt       2.80802580      -0.04933532      26.89056018        1      -0.00164813       0.03282512       0.01071557
Pt       5.61535168       0.01912115      26.90868191        1       0.00304468      -0.00129244      -0.00052067
Pt       1.39292821       2.43680924      27.06267913        1       0.02712999      -0.03385838      -0.00199810
Pt       4.22006769       2.43856780      27.06507376        1      -0.01411172      -0.03868838      -0.01250883
Pt       7.01767342       2.44466330      26.91243238        1      -0.00129154      -0.02670678      -0.01708513
Pt       2.80627786       4.93715657      26.90186173        1      -0.00044471      -0.03726922      -0.02578663
Pt       5.61439190       4.86560181      26.90872668        1      -0.00149317       0.00712168      -0.00048482
Pt       8.41963002       4.86564537      26.90697190        1       0.00293738       0.01116727      -0.00210462
O        2.80686732       2.51056054      29.69932345        0      -0.00212227       0.00644522      -0.00941136
C        2.80650877       2.49403873      28.51111280        0      -0.00376923       0.00071290       0.00626962
