38
Lattice="8.421641763931781 0.0 0.0 4.2108208819658905 7.293355709136913 0.0 0.0 0.0 46.87624170604845" Properties=species:S:1:pos:R:3:tags:I:1:forces:R:3 charge=0 spin=0 energy=-202.88649654031505 free_energy=-202.88649654031505 stress="0.009958190843462944 -1.9707389498080374e-08 4.7241726086610925e-09 -1.9707389498080374e-08 0.009958198294043541 -1.5208962977908413e-08 4.7241726086610925e-09 -1.5208962977908413e-08 -0.0003851126239169389" pbc="T T T"
Pt      -0.00000010      -0.00000005      19.95723451        4      -0.00243187       0.00176219       0.02364603
Pt       2.80721394      -0.00000020      19.95723457        4       0.00273060       0.00118780       0.02364512
Pt       5.61442787      -0.00000008      19.95723465        4       0.00065238      -0.01597122       0.00951524
Pt       1.40360721       2.43111841      19.95723445        4      -0.00177478       0.00278769       0.01090162
Pt       4.21082082       2.43111837      19.95723453        4      -0.01416383       0.00740500       0.00951526
Pt       7.01803480       2.43111844      19.95723439        4       0.01351215       0.00856871       0.00957582
Pt       2.80721416       4.86223734      19.95723425        4      -0.00156465      -0.00292284       0.01089325
Pt       5.61442796       4.86223739      19.95723443        4      -0.00029927      -0.00294810       0.02368734
Pt       8.42164143       4.86223725      19.95723447        4       0.00333989       0.00013047       0.01094323
Pt       1.40360729       0.81037262      22.29206795        3      -0.00373974       0.01227281      -0.02538414
Pt       4.21082131       0.81037249      22.29206793        3       0.05184570       0.03213437      -0.15794657
Pt       7.01803470       0.81037255      22.29206785        3      -0.05379265       0.02891544      -0.15789595
Pt       2.80721448       3.24149122      22.29206774        3       0.02150743      -0.01072575      -0.06214980
Pt       5.61442764       3.24149121      22.29206791        3       0.00194914      -0.06104286      -0.15793858
Pt       8.42164154       3.24149129      22.29206806        3      -0.01995552      -0.01328183      -0.06213668
Pt       4.21082091       5.67260997      22.29206741        3      -0.00877522      -0.00936248      -0.02548385
Pt       7.01803487       5.67261038      22.29206779        3       0.01250594      -0.00290968      -0.02553574
Pt       9.82524821       5.67261068      22.29206808        3      -0.00154456       0.02400195      -0.06226102
Pt      -0.00000053       1.62074567      24.58417372        2       0.09446168       0.04356566       0.11799385
Pt       2.80721436       1.62074552      24.58417391        2      -0.08974197       0.04043416       0.11567470
Pt       5.61442781       1.62074537      24.58417374        2      -0.00000030       0.00001037      -0.24438442
Pt       1.40360639       4.05186438      24.58417385        2       0.00000432       0.00000132       0.13880871
Pt       4.21082087       4.05186396      24.58417384        2      -0.08505128       0.06013850       0.11807321
Pt       7.01803504       4.05186408      24.58417403        2       0.07997622       0.05759231       0.11584423
Pt       2.80721276       6.48298348      24.58417381        2       0.00977067      -0.09803467       0.11567642
Pt       5.61442804       6.48298329      24.58417396        2      -0.00000560      -0.00001041      -0.01336131
Pt       8.42164223       6.48298338      24.58417376        2      -0.00941702      -0.10370290       0.11787540
Pt       0.00125296      -0.00196113      26.90916599        1       0.00455335      -0.00181651      -0.00074347
Pt       2.80488601      -0.00010660      26.90916741        1      -0.00384053      -0.00303176      -0.00074743
Pt       5.61347402       0.02371154      26.89509347        1       0.00060408      -0.00788991       0.01006870
Pt       1.40407071       2.41339092      27.01825761        1       0.00056037       0.00283203      -0.00013281
Pt       4.23183048       2.42008768      26.89509868        1      -0.00712922       0.00342133       0.01005356
Pt       6.99797328       2.41843837      26.89510191        1       0.00653796       0.00446230       0.01004261
Pt       2.82233554       4.87150282      27.01825637        1      -0.00273290      -0.00093079      -0.00013659
Pt       5.61550222       4.86430164      26.90917359        1      -0.00071667       0.00485550      -0.00076654
Pt       8.40605827       4.87069745      27.01825808        1       0.00217171      -0.00189838      -0.00012880
O        9.82525323       4.05186367      29.55867398        0      -0.00000503       0.00000127      -0.00922693
C        9.82525132       4.05186398      28.35819438        0      -0.00000098      -0.00000126       0.00392646
