38
Lattice="8.421641763931781 0.0 0.0 4.2108208819658905 7.293355709136913 0.0 0.0 0.0 46.87624170604845" Properties=species:S:1:pos:R:3:tags:I:1:forces:R:3 charge=0 spin=0 energy=-202.88632011056652 free_energy=-202.88632011056652 stress="0.010008842684328556 -1.9642028448174642e-08 9.936251127440343e-11 -1.9642028448174642e-08 0.010008861310780048 -1.1662881327367813e-08 9.936251127440343e-11 -1.1662881327367813e-08 -0.00029502055258490145" pbc="T T T"
Pt      -0.00000010      -0.00000005      19.95723451        4      -0.00175213       0.00274773       0.01098852
Pt       2.80721394      -0.00000020      19.95723457        4      -0.01407922       0.00736719       0.00965714
Pt       5.61442787      -0.00000008      19.95723465        4       0.01343398       0.00851758       0.00971662
Pt       1.40360721       2.43111841      19.95723445        4      -0.00153737      -0.00287629       0.01098000
Pt       4.21082082       2.43111837      19.95723453        4      -0.00024556      -0.00297612       0.02376045
Pt       7.01803480       2.43111844      19.95723439        4       0.00328763       0.00013358       0.01103718
Pt       2.80721416       4.86223734      19.95723425        4      -0.00248758       0.00172610       0.02372409
Pt       5.61442796       4.86223739      19.95723443        4       0.00273252       0.00124202       0.02371196
Pt       8.42164143       4.86223725      19.95723447        4       0.00064781      -0.01588172       0.00966030
Pt       1.40360729       0.81037262      22.29206795        3       0.02126002      -0.01056720      -0.06246160
Pt       4.21082131       0.81037249      22.29206793        3       0.00179059      -0.06061625      -0.15753861
Pt       7.01803470       0.81037255      22.29206785        3      -0.01969422      -0.01314137      -0.06245142
Pt       2.80721448       3.24149122      22.29206774        3      -0.00879455      -0.00930846      -0.02602211
Pt       5.61442764       3.24149121      22.29206791        3       0.01247486      -0.00294622      -0.02605620
Pt       8.42164154       3.24149129      22.29206806        3      -0.00156168       0.02371297      -0.06257216
Pt       4.21082091       5.67260997      22.29206741        3      -0.00368949       0.01226099      -0.02588798
Pt       7.01803487       5.67261038      22.29206779        3       0.05155666       0.03178111      -0.15753844
Pt       9.82524821       5.67261068      22.29206808        3      -0.05334273       0.02882760      -0.15749356
Pt      -0.00000053       1.62074567      24.58417372        2       0.00000125      -0.00000279       0.14669842
Pt       2.80721436       1.62074552      24.58417391        2      -0.08323699       0.05929777       0.12942134
Pt       5.61442781       1.62074537      24.58417374        2       0.07734419       0.05647533       0.12704822
Pt       1.40360639       4.05186438      24.58417385        2       0.01010981      -0.09517756       0.12689196
Pt       4.21082087       4.05186396      24.58417384        2       0.00000085       0.00000397       0.00365231
Pt       7.01803504       4.05186408      24.58417403        2      -0.00960095      -0.10169957       0.12922896
Pt       2.80721276       6.48298348      24.58417381        2       0.09284660       0.04239563       0.12933877
Pt       5.61442804       6.48298329      24.58417396        2      -0.08745544       0.03870578       0.12688480
Pt       8.42164223       6.48298338      24.58417376        2      -0.00000794      -0.00000624      -0.23093447
Pt       0.00148295      -0.01875264      27.01984452        1      -0.00252581       0.01112983      -0.00531781
Pt       2.82921604      -0.01147451      26.89887711        1      -0.01247901       0.00619829      -0.00273697
Pt       5.59349094      -0.01331860      26.89887677        1       0.01160448       0.00770982      -0.00273394
Pt       1.41910636       2.44177848      27.01984275        1      -0.00837460      -0.00775754      -0.00531478
Pt       4.21116752       2.43266586      26.91395124        1       0.00141185       0.00884356      -0.01662970
Pt       7.00105360       2.43920884      27.01984354        1       0.01089571      -0.00336726      -0.00532362
Pt       2.80838168       4.86116222      26.91394919        1       0.00695523      -0.00563918      -0.01662445
Pt       5.61291320       4.86176284      26.91395061        1      -0.00835840      -0.00320715      -0.01662489
Pt       8.42057658       4.88702653      26.89887698        1       0.00086868      -0.01390022      -0.00273646
O        8.42164340       1.62074840      29.55952753        0       0.00000011      -0.00000368      -0.01345815
C        8.42164267       1.62074704      28.35899252        0       0.00000083      -0.00000177       0.00405634
