38
Lattice="8.421641763931781 0.0 0.0 4.2108208819658905 7.293355709136913 0.0 0.0 0.0 46.87624170604845" Properties=species:S:1:pos:R:3:tags:I:1:forces:R:3 charge=0 spin=0 energy=-202.91268348336925 free_energy=-202.91268348336925 stress="0.009917953051626682 8.295280018444373e-09 3.85926535173553e-09 8.295280018444373e-09 0.009917959570884705 4.1082333979147734e-08 3.85926535173553e-09 4.1082333979147734e-08 -0.0004363594634924084" pbc="T T T"
Pt      -0.00000010      -0.00000005      19.95723451        4      -0.00011473       0.01755127       0.01071967
Pt       2.80721394      -0.00000020      19.95723457        4      -0.00086814      -0.00082241       0.01723963
Pt       5.61442787      -0.00000008      19.95723465        4       0.00117392      -0.00034307       0.01717934
Pt       1.40360721       2.43111841      19.95723445        4       0.00369056       0.00098034       0.01334309
Pt       4.21082082       2.43111837      19.95723453        4      -0.00030463       0.00117160       0.01723577
Pt       7.01803480       2.43111844      19.95723439        4      -0.00100981      -0.00366138       0.01329203
Pt       2.80721416       4.86223734      19.95723425        4      -0.01511042      -0.00890433       0.01075351
Pt       5.61442796       4.86223739      19.95723443        4       0.01522137      -0.00865173       0.01075283
Pt       8.42164143       4.86223725      19.95723447        4      -0.00267841       0.00267926       0.01332007
Pt       1.40360729       0.81037262      22.29206795        3      -0.02549620      -0.02363772      -0.06682390
Pt       4.21082131       0.81037249      22.29206793        3      -0.00000106       0.00000458      -0.00960733
Pt       7.01803470       0.81037255      22.29206785        3       0.02398081      -0.03095913      -0.06542939
Pt       2.80721448       3.24149122      22.29206774        3       0.01471841       0.03627991      -0.06543311
Pt       5.61442764       3.24149121      22.29206791        3      -0.00768702       0.03397120      -0.06673548
Pt       8.42164154       3.24149129      22.29206806        3       0.00000297       0.00000127      -0.07411937
Pt       4.21082091       5.67260997      22.29206741        3      -0.00000397       0.00000095      -0.28141758
Pt       7.01803487       5.67261038      22.29206779        3      -0.03871001      -0.00531929      -0.06537447
Pt       9.82524821       5.67261068      22.29206808        3       0.03319337      -0.01034205      -0.06678725
Pt      -0.00000053       1.62074567      24.58417372        2       0.00229272      -0.02609744      -0.06615854
Pt       2.80721436       1.62074552      24.58417391        2       0.06132289      -0.03574776       0.15463118
Pt       5.61442781       1.62074537      24.58417374        2      -0.06163439      -0.03519160       0.15468206
Pt       1.40360639       4.05186438      24.58417385        2       0.02147204       0.01510746      -0.06631138
Pt       4.21082087       4.05186396      24.58417384        2      -0.00142044      -0.10811748       0.12025773
Pt       7.01803504       4.05186408      24.58417403        2      -0.02375370       0.01097899      -0.06624804
Pt       2.80721276       6.48298348      24.58417381        2      -0.09295178       0.05536536       0.12027936
Pt       5.61442804       6.48298329      24.58417396        2       0.09435822       0.05275423       0.12029222
Pt       8.42164223       6.48298338      24.58417376        2       0.00031905       0.07094869       0.15456720
Pt      -0.00054986      -0.00338568      26.90698488        1       0.00083542       0.00590282       0.00030416
Pt       2.78320520      -0.01592038      27.01570409        1       0.00650229       0.00373151      -0.00288070
Pt       5.64021085      -0.01282455      27.01570624        1      -0.00643698       0.00374443      -0.00290440
Pt       1.38617577       2.43955859      26.89885050        1      -0.02847726       0.01776941      -0.00265958
Pt       4.20903682       2.45986585      27.01570510        1      -0.00001679      -0.00747280      -0.00289469
Pt       7.03406876       2.44199934      26.89884887        1       0.02960254       0.01575802      -0.00265500
Pt       2.81042213       4.86346249      26.90697716        1      -0.00552351      -0.00224890       0.00032799
Pt       5.61176846       4.86439936      26.90697018        1       0.00470194      -0.00364776       0.00034101
Pt       8.42305716       4.84291778      26.89883922        1      -0.00118265      -0.03353506      -0.00262366
O        4.21081798       0.81037434      29.53989842        0      -0.00000716      -0.00000284       0.01432515
C        4.21081712       0.81037311      28.33849739        0       0.00000033       0.00000150       0.01321987
