38
Lattice="8.421641763931781 0.0 0.0 4.2108208819658905 7.293355709136913 0.0 0.0 0.0 46.87624170604845" Properties=species:S:1:pos:R:3:tags:I:1:forces:R:3 charge=0 spin=0 energy=-202.8864936792921 free_energy=-202.8864936792921 stress="0.009958190843462944 -1.99764258468349e-08 4.447620938208274e-09 -1.99764258468349e-08 0.009958202950656414 -1.4333164877200488e-08 4.447620938208274e-09 -1.4333164877200488e-08 -0.00038510284502990544" pbc="T T T"
Pt      -0.00000010      -0.00000005      19.95723451        4      -0.00243187       0.00176223       0.02364591
Pt       2.80721394      -0.00000020      19.95723457        4       0.00273060       0.00118789       0.02364525
Pt       5.61442787      -0.00000008      19.95723465        4       0.00065239      -0.01597116       0.00951522
Pt       1.40360721       2.43111841      19.95723445        4      -0.00177478       0.00278771       0.01090177
Pt       4.21082082       2.43111837      19.95723453        4      -0.01416393       0.00740499       0.00951530
Pt       7.01803480       2.43111844      19.95723439        4       0.01351218       0.00856891       0.00957572
Pt       2.80721416       4.86223734      19.95723425        4      -0.00156473      -0.00292288       0.01089306
Pt       5.61442796       4.86223739      19.95723443        4      -0.00029934      -0.00294806       0.02368744
Pt       8.42164143       4.86223725      19.95723447        4       0.00333998       0.00013042       0.01094306
Pt       1.40360729       0.81037262      22.29206795        3      -0.00373965       0.01227297      -0.02538409
Pt       4.21082131       0.81037249      22.29206793        3       0.05184597       0.03213421      -0.15794690
Pt       7.01803470       0.81037255      22.29206785        3      -0.05379283       0.02891531      -0.15789638
Pt       2.80721448       3.24149122      22.29206774        3       0.02150770      -0.01072611      -0.06215027
Pt       5.61442764       3.24149121      22.29206791        3       0.00194940      -0.06104280      -0.15793881
Pt       8.42164154       3.24149129      22.29206806        3      -0.01995542      -0.01328186      -0.06213619
Pt       4.21082091       5.67260997      22.29206741        3      -0.00877500      -0.00936247      -0.02548352
Pt       7.01803487       5.67261038      22.29206779        3       0.01250609      -0.00290965      -0.02553535
Pt       9.82524821       5.67261068      22.29206808        3      -0.00154452       0.02400199      -0.06226030
Pt      -0.00000053       1.62074567      24.58417372        2       0.09446256       0.04356576       0.11799525
Pt       2.80721436       1.62074552      24.58417391        2      -0.08974322       0.04043426       0.11567519
Pt       5.61442781       1.62074537      24.58417374        2      -0.00000039       0.00001005      -0.24438399
Pt       1.40360639       4.05186438      24.58417385        2       0.00000345       0.00000138       0.13880800
Pt       4.21082087       4.05186396      24.58417384        2      -0.08505169       0.06013906       0.11807273
Pt       7.01803504       4.05186408      24.58417403        2       0.07997783       0.05759386       0.11584593
Pt       2.80721276       6.48298348      24.58417381        2       0.00977117      -0.09803509       0.11567651
Pt       5.61442804       6.48298329      24.58417396        2      -0.00000569      -0.00001065      -0.01335937
Pt       8.42164223       6.48298338      24.58417376        2      -0.00941789      -0.10370447       0.11787695
Pt       0.00125224      -0.00196082      26.90916587        1       0.00455671      -0.00181706      -0.00074470
Pt       2.80488666      -0.00010623      26.90916771        1      -0.00384384      -0.00303593      -0.00074873
Pt       5.61347409       0.02371128      26.89509306        1       0.00060370      -0.00788693       0.01006899
Pt       1.40407062       2.41339182      27.01825697        1       0.00056021       0.00282497      -0.00013092
Pt       4.23183024       2.42008777      26.89509813        1      -0.00712711       0.00341985       0.01005396
Pt       6.99797363       2.41843860      26.89510208        1       0.00653763       0.00446133       0.01004327
Pt       2.82233458       4.87150225      27.01825623        1      -0.00272593      -0.00092778      -0.00013462
Pt       5.61550227       4.86430093      26.90917367        1      -0.00071574       0.00486023      -0.00076599
Pt       8.40605921       4.87069684      27.01825814        1       0.00216066      -0.00189277      -0.00013509
O        9.82525318       4.05186372      29.55867635        0      -0.00000285      -0.00000069      -0.00923145
C        9.82525136       4.05186401      28.35819571        0      -0.00000176      -0.00000104       0.00392719
