38
Lattice="8.421641763931781 0.0 0.0 4.2108208819658905 7.293355709136913 0.0 0.0 0.0 46.87624170604845" Properties=species:S:1:pos:R:3:tags:I:1:forces:R:3 charge=0 spin=0 energy=-202.8194065058302 free_energy=-202.8194065058302 stress="0.009595602750778198 -8.345784863195149e-08 -4.754363125414329e-09 -8.345784863195149e-08 0.009595617651939392 -4.6446118062704045e-08 -4.754363125414329e-09 -4.6446118062704045e-08 -0.0003314708301331848" pbc="T T T"
Pt      -0.00000010      -0.00000005      19.95723451        4       0.00901402       0.00290076       0.01999520
Pt       2.80721394      -0.00000020      19.95723457        4       0.00000059       0.00000355      -0.06854720
Pt       5.61442787      -0.00000008      19.95723465        4      -0.00795197       0.00290312       0.01944070
Pt       1.40360721       2.43111841      19.95723445        4       0.00147688      -0.00833492       0.01938171
Pt       4.21082082       2.43111837      19.95723453        4      -0.00200115      -0.00926621       0.02001778
Pt       7.01803480       2.43111844      19.95723439        4      -0.00000093       0.00000025       0.01782775
Pt       2.80721416       4.86223734      19.95723425        4      -0.00000365      -0.00000396       0.02237829
Pt       5.61442796       4.86223739      19.95723443        4       0.00647592       0.00543137       0.01939469
Pt       8.42164143       4.86223725      19.95723447        4      -0.00700916       0.00636559       0.01996549
Pt       1.40360729       0.81037262      22.29206795        3       0.05479579      -0.02997510      -0.11424502
Pt       4.21082131       0.81037249      22.29206793        3      -0.05333646      -0.03241452      -0.11423104
Pt       7.01803470       0.81037255      22.29206785        3      -0.00414159       0.00279099      -0.02746923
Pt       2.80721448       3.24149122      22.29206774        3       0.00583787      -0.00194395      -0.06354889
Pt       5.61442764       3.24149121      22.29206791        3       0.00448856       0.00226466      -0.02769292
Pt       8.42164154       3.24149129      22.29206806        3      -0.00034562      -0.00505571      -0.02772353
Pt       4.21082091       5.67260997      22.29206741        3      -0.00120599       0.00606638      -0.06328846
Pt       7.01803487       5.67261038      22.29206779        3      -0.00146389       0.06239618      -0.11424262
Pt       9.82524821       5.67261068      22.29206808        3      -0.00462934      -0.00412743      -0.06331959
Pt      -0.00000053       1.62074567      24.58417372        2      -0.24334744       0.13911439       0.34520099
Pt       2.80721436       1.62074552      24.58417391        2      -0.00075258      -0.05000320      -0.12837785
Pt       5.61442781       1.62074537      24.58417374        2       0.24209204       0.14131685       0.34525022
Pt       1.40360639       4.05186438      24.58417385        2      -0.00342393       0.00200110      -0.03854220
Pt       4.21082087       4.05186396      24.58417384        2      -0.00014927      -0.00392990      -0.03859906
Pt       7.01803504       4.05186408      24.58417403        2       0.00129929      -0.28040141       0.34524664
Pt       2.80721276       6.48298348      24.58417381        2       0.00353187       0.00192994      -0.03879936
Pt       5.61442804       6.48298329      24.58417396        2       0.04375947       0.02444780      -0.12864825
Pt       8.42164223       6.48298338      24.58417376        2      -0.04301612       0.02552151      -0.12851924
Pt       0.01735046      -0.02532116      26.89769041        1      -0.00572472       0.00589999       0.00183691
Pt       2.80721273       0.00000014      26.92725107        1       0.00000256      -0.00000087      -0.00285107
Pt       5.59730814      -0.02515148      26.89926974        1       0.00532370       0.00654765       0.00156936
Pt       1.43394370       2.42888140      26.89926201        1      -0.00833141       0.00134095       0.00157022
Pt       4.18021201       2.42874752      26.89771289        1       0.00797546       0.00200958       0.00183818
Pt       7.01803489       2.43111850      27.07653979        1      -0.00000003       0.00000207      -0.00620808
Pt       2.80721566       4.86223784      26.91822695        1      -0.00000157      -0.00000205      -0.00346761
Pt       5.60121068       4.88962875      26.89925389        1       0.00300839      -0.00788555       0.00156827
Pt       8.43490136       4.88993220      26.89773482        1      -0.00224489      -0.00790968       0.00184011
O        7.01803504       2.43111827      30.09112844        0       0.00000020      -0.00000014      -0.00738319
C        7.01803471       2.43111844      28.92857469        0      -0.00000082      -0.00000006       0.00138151
