38
Lattice="8.421641763931781 0.0 0.0 4.2108208819658905 7.293355709136913 0.0 0.0 0.0 46.87624170604845" Properties=species:S:1:pos:R:3:tags:I:1:forces:R:3 charge=0 spin=0 energy=-202.87981223703136 free_energy=-202.87981223703136 stress="0.009697550907731056 0.0002441137912683189 -2.4669570848345757e-05 0.0002441137912683189 0.010018076747655869 7.3068322308245115e-06 -2.4669570848345757e-05 7.3068322308245115e-06 -0.00043803988955914974" pbc="T T T"
Pt      -0.00000010      -0.00000005      19.95723451        4      -0.00205232      -0.00165571       0.01515095
Pt       2.80721394      -0.00000020      19.95723457        4      -0.00066277      -0.00345596       0.01794965
Pt       5.61442787      -0.00000008      19.95723465        4       0.00499869      -0.00181573       0.00692861
Pt       1.40360721       2.43111841      19.95723445        4      -0.00658004       0.00489036       0.02542817
Pt       4.21082082       2.43111837      19.95723453        4      -0.00049759       0.00111926       0.01986008
Pt       7.01803480       2.43111844      19.95723439        4      -0.01080276      -0.01667931      -0.00444430
Pt       2.80721416       4.86223734      19.95723425        4      -0.00296026       0.00237116       0.01298281
Pt       5.61442796       4.86223739      19.95723443        4       0.00110075      -0.00030152       0.02186228
Pt       8.42164143       4.86223725      19.95723447        4       0.01034155       0.01756909      -0.00683338
Pt       1.40360729       0.81037262      22.29206795        3      -0.01038733       0.00302385      -0.01665030
Pt       4.21082131       0.81037249      22.29206793        3       0.01009215      -0.00415035      -0.06890889
Pt       7.01803470       0.81037255      22.29206785        3       0.00321533       0.03631452      -0.08314668
Pt       2.80721448       3.24149122      22.29206774        3      -0.01897916       0.00847996      -0.01816734
Pt       5.61442764       3.24149121      22.29206791        3       0.05317255      -0.01752142      -0.11229193
Pt       8.42164154       3.24149129      22.29206806        3      -0.07033538       0.03828349      -0.21955958
Pt       4.21082091       5.67260997      22.29206741        3       0.00811440      -0.00673028      -0.00986742
Pt       7.01803487       5.67261038      22.29206779        3       0.04509708      -0.03853613      -0.11347286
Pt       9.82524821       5.67261068      22.29206808        3      -0.02835844      -0.02040045      -0.08093917
Pt      -0.00000053       1.62074567      24.58417372        2       0.01988236      -0.19910523       0.26487869
Pt       2.80721436       1.62074552      24.58417391        2      -0.01226340       0.01234251      -0.03463678
Pt       5.61442781       1.62074537      24.58417374        2       0.01560551       0.02767770      -0.08025131
Pt       1.40360639       4.05186438      24.58417385        2       0.19402264       0.08525673       0.26344958
Pt       4.21082087       4.05186396      24.58417384        2      -0.13633342       0.07606259       0.12946905
Pt       7.01803504       4.05186408      24.58417403        2       0.03906268      -0.02249715      -0.18810576
Pt       2.80721276       6.48298348      24.58417381        2       0.05734957      -0.03447088       0.14904822
Pt       5.61442804       6.48298329      24.58417396        2      -0.14228474       0.07910365       0.13633728
Pt       8.42164223       6.48298338      24.58417376        2      -0.01138271      -0.02855394      -0.08879478
Pt      -0.00865928       0.01334160      27.06280191        1      -0.00409542       0.00015110       0.00021067
Pt       2.80129131       0.00552055      26.90359422        1      -0.01140029       0.00246103       0.01048634
Pt       5.56116451       0.03052431      26.88953044        1       0.01051231      -0.00652853       0.02184137
Pt       1.40032462       2.43261384      26.90885759        1      -0.00341691       0.00203484      -0.00843015
Pt       4.20301825       2.43553628      26.90576273        1      -0.00843924       0.00620941       0.00937701
Pt       7.02185015       2.43289834      26.90672065        1       0.00207342      -0.00483840       0.01035784
Pt       2.79086216       4.86167161      27.06405468        1      -0.00157309       0.00429667      -0.00060367
Pt       5.66036137       4.83655895      26.88766243        1      -0.01324697       0.00732825       0.01919518
Pt       8.42194210       4.85798243      26.90608232        1       0.00529281       0.00135281       0.01042667
O        3.51773892       6.07233111      29.70210316        0       0.01076526      -0.00628979      -0.01742851
C        3.51847572       6.07199214      28.51385299        0       0.00535314      -0.00279819       0.00729269
