38
Lattice="8.421641763931781 0.0 0.0 4.2108208819658905 7.293355709136913 0.0 0.0 0.0 46.87624170604845" Properties=species:S:1:pos:R:3:tags:I:1:forces:R:3 charge=0 spin=0 energy=-202.81933402658214 free_energy=-202.81933402658214 stress="0.00962597131729126 -9.281691859541752e-08 4.6929518049410035e-09 -9.281691859541752e-08 0.009625976905226707 -8.152007779926862e-08 4.6929518049410035e-09 -8.152007779926862e-08 -0.0002853852929547429" pbc="T T T"
Pt      -0.00000010      -0.00000005      19.95723451        4       0.00897942       0.00287433       0.02010363
Pt       2.80721394      -0.00000020      19.95723457        4       0.00000064       0.00000355      -0.06861849
Pt       5.61442787      -0.00000008      19.95723465        4      -0.00790629       0.00284909       0.01954435
Pt       1.40360721       2.43111841      19.95723445        4       0.00150068      -0.00826823       0.01948580
Pt       4.21082082       2.43111837      19.95723453        4      -0.00200594      -0.00922210       0.02012558
Pt       7.01803480       2.43111844      19.95723439        4      -0.00000108      -0.00000027       0.01772215
Pt       2.80721416       4.86223734      19.95723425        4      -0.00000274      -0.00000377       0.02241005
Pt       5.61442796       4.86223739      19.95723443        4       0.00640621       0.00541896       0.01949827
Pt       8.42164143       4.86223725      19.95723447        4      -0.00696931       0.00634856       0.02007429
Pt       1.40360729       0.81037262      22.29206795        3       0.05471535      -0.02994779      -0.11477919
Pt       4.21082131       0.81037249      22.29206793        3      -0.05327274      -0.03235851      -0.11476628
Pt       7.01803470       0.81037255      22.29206785        3      -0.00413723       0.00290255      -0.02812416
Pt       2.80721448       3.24149122      22.29206774        3       0.00583011      -0.00201415      -0.06332333
Pt       5.61442764       3.24149121      22.29206791        3       0.00458481       0.00220250      -0.02834670
Pt       8.42164154       3.24149129      22.29206806        3      -0.00044484      -0.00510878      -0.02838171
Pt       4.21082091       5.67260997      22.29206741        3      -0.00114200       0.00609282      -0.06306205
Pt       7.01803487       5.67261038      22.29206779        3      -0.00144415       0.06231282      -0.11477724
Pt       9.82524821       5.67261068      22.29206808        3      -0.00468509      -0.00408680      -0.06309580
Pt      -0.00000053       1.62074567      24.58417372        2      -0.23976240       0.13653991       0.35022017
Pt       2.80721436       1.62074552      24.58417391        2      -0.00036534      -0.04597889      -0.12027342
Pt       5.61442781       1.62074537      24.58417374        2       0.23807776       0.13950163       0.35025346
Pt       1.40360639       4.05186438      24.58417385        2      -0.00360854       0.00281476      -0.02862465
Pt       4.21082087       4.05186396      24.58417384        2      -0.00075133      -0.00449987      -0.02866630
Pt       7.01803504       4.05186408      24.58417403        2       0.00171523      -0.27601510       0.35026380
Pt       2.80721276       6.48298348      24.58417381        2       0.00434645       0.00168945      -0.02887158
Pt       5.61442804       6.48298329      24.58417396        2       0.04006309       0.02276319      -0.12052681
Pt       8.42164223       6.48298338      24.58417376        2      -0.03972370       0.02316987      -0.12042674
Pt       0.01737729      -0.02517956      26.90089924        1      -0.00444065       0.00238296      -0.01108181
Pt       2.80720722      -0.00000340      26.92583508        1       0.00001597       0.00001604       0.00055553
Pt       5.59793294      -0.02528170      26.90176444        1       0.00198267       0.00399465      -0.00876172
Pt       1.43374334       2.42949253      26.90176255        1      -0.00444199      -0.00028731      -0.00878204
Pt       4.18032156       2.42865322      26.90091298        1       0.00428583       0.00266126      -0.01104946
Pt       7.01803495       2.43111853      27.07492430        1      -0.00000255       0.00000159      -0.00020564
Pt       2.80721965       4.86224126      26.92038366        1      -0.00001454      -0.00001227      -0.01126579
Pt       5.60078316       4.88915006      26.90176343        1       0.00246996      -0.00370565      -0.00881692
Pt       8.43476817       4.88988120      26.90093226        1       0.00014761      -0.00503096      -0.01103164
O        7.01803499       2.43111825      30.08953824        0      -0.00000106      -0.00000029       0.00441017
C        7.01803464       2.43111821      28.92711385        0       0.00000164       0.00000043      -0.00900837
