38
Lattice="8.421641763931781 0.0 0.0 4.2108208819658905 7.293355709136913 0.0 0.0 0.0 46.87624170604845" Properties=species:S:1:pos:R:3:tags:I:1:forces:R:3 charge=0 spin=0 energy=-202.8860292399 free_energy=-202.8860292399 stress="0.009942444041371346 -2.080919969671413e-08 6.424950016459263e-10 -2.080919969671413e-08 0.009942459873855114 -1.550950834428022e-08 6.424950016459263e-10 -1.550950834428022e-08 -0.00042285743984393775" pbc="T T T"
Pt      -0.00000010      -0.00000005      19.95723451        4       0.00241962       0.00100695       0.02361703
Pt       2.80721394      -0.00000020      19.95723457        4       0.00069185      -0.01587736       0.00963606
Pt       5.61442787      -0.00000008      19.95723465        4      -0.00211894       0.00158399       0.02362091
Pt       1.40360721       2.43111841      19.95723445        4      -0.01410482       0.00732650       0.00963577
Pt       4.21082082       2.43111837      19.95723453        4       0.01341471       0.00855583       0.00969546
Pt       7.01803480       2.43111844      19.95723439        4      -0.00176432       0.00274976       0.01080497
Pt       2.80721416       4.86223734      19.95723425        4      -0.00030461      -0.00258822       0.02367008
Pt       5.61442796       4.86223739      19.95723443        4       0.00330077       0.00013687       0.01084439
Pt       8.42164143       4.86223725      19.95723447        4      -0.00153349      -0.00289443       0.01078924
Pt       1.40360729       0.81037262      22.29206795        3       0.05157238       0.03194814      -0.15863574
Pt       4.21082131       0.81037249      22.29206793        3      -0.05349629       0.02877261      -0.15859084
Pt       7.01803470       0.81037255      22.29206785        3      -0.00362868       0.01224298      -0.02483042
Pt       2.80721448       3.24149122      22.29206774        3       0.00191712      -0.06071031      -0.15863119
Pt       5.61442764       3.24149121      22.29206791        3      -0.01993404      -0.01328995      -0.06292927
Pt       8.42164154       3.24149129      22.29206806        3       0.02151085      -0.01070445      -0.06294073
Pt       4.21082091       5.67260997      22.29206741        3       0.01242505      -0.00298629      -0.02496745
Pt       7.01803487       5.67261038      22.29206779        3      -0.00157251       0.02399312      -0.06305146
Pt       9.82524821       5.67261068      22.29206808        3      -0.00879249      -0.00926450      -0.02494809
Pt      -0.00000053       1.62074567      24.58417372        2      -0.08557340       0.03871440       0.11624452
Pt       2.80721436       1.62074552      24.58417391        2      -0.00000664       0.00000288      -0.21476445
Pt       5.61442781       1.62074537      24.58417374        2       0.09023518       0.04206136       0.11794181
Pt       1.40360639       4.05186438      24.58417385        2      -0.08163163       0.05722424       0.11800939
Pt       4.21082087       4.05186396      24.58417384        2       0.07641272       0.05484492       0.11641107
Pt       7.01803504       4.05186408      24.58417403        2      -0.00000404       0.00000155       0.13543302
Pt       2.80721276       6.48298348      24.58417381        2       0.00001307      -0.00000772      -0.01609557
Pt       5.61442804       6.48298329      24.58417396        2      -0.00860793      -0.09928219       0.11781753
Pt       8.42164223       6.48298338      24.58417376        2       0.00915557      -0.09356072       0.11624620
Pt      -0.00356871      -0.00121317      26.90937840        1       0.00779899       0.00528505      -0.00032080
Pt       2.80620916       0.01810201      26.89737917        1       0.00095554       0.04052812      -0.00538533
Pt       5.61725969      -0.00248110      26.90937651        1      -0.00846735       0.00410840      -0.00031132
Pt       1.41978388       2.42293789      26.89738086        1       0.03462400      -0.02109980      -0.00539311
Pt       4.19564205       2.42119534      26.89738119        1      -0.03556117      -0.01941416      -0.00539381
Pt       7.01857860       2.41301835      27.01779523        1       0.00088462      -0.01630513      -0.01612177
Pt       2.80794621       4.86593364      26.90937584        1       0.00069146      -0.00939862      -0.00031660
Pt       5.59848441       4.87081568      27.01779275        1      -0.01458726       0.00738079      -0.01611881
Pt       8.43704637       4.87175970      27.01779289        1       0.01366869       0.00891276      -0.01610991
O        7.01803724       4.05186225      29.55135571        0       0.00000106       0.00000499       0.03785406
C        7.01803743       4.05186372      28.35093710        0      -0.00000355      -0.00000252       0.02758489
