38
Lattice="8.421641763931781 0.0 0.0 4.2108208819658905 7.293355709136913 0.0 0.0 0.0 46.87624170604845" Properties=species:S:1:pos:R:3:tags:I:1:forces:R:3 charge=0 spin=0 energy=-202.87920856118907 free_energy=-202.87920856118907 stress="0.01022191159427166 1.3775853403785732e-05 9.20608999877004e-06 1.3775853403785732e-05 0.00959073007106781 6.729646429448621e-06 9.20608999877004e-06 6.729646429448621e-06 -0.00035281930468045175" pbc="T T T"
Pt      -0.00000010      -0.00000005      19.95723451        4       0.00341572       0.00007561       0.01775326
Pt       2.80721394      -0.00000020      19.95723457        4      -0.00020145       0.00011675       0.02179148
Pt       5.61442787      -0.00000008      19.95723465        4      -0.00061904      -0.00221778       0.01975472
Pt       1.40360721       2.43111841      19.95723445        4      -0.01978721      -0.00100939      -0.00632074
Pt       4.21082082       2.43111837      19.95723453        4       0.01951170      -0.00210150      -0.00384308
Pt       7.01803480       2.43111844      19.95723439        4      -0.00069826       0.00418135       0.00724572
Pt       2.80721416       4.86223734      19.95723425        4      -0.00072642      -0.00919419       0.02555941
Pt       5.61442796       4.86223739      19.95723443        4       0.00252305      -0.00162602       0.01510592
Pt       8.42164143       4.86223725      19.95723447        4      -0.00029100      -0.00436412       0.01301476
Pt       1.40360729       0.81037262      22.29206795        3       0.00995696       0.05453082      -0.11212049
Pt       4.21082131       0.81037249      22.29206793        3      -0.01053746       0.05165030      -0.11149482
Pt       7.01803470       0.81037255      22.29206785        3      -0.00133471       0.00670393      -0.06886084
Pt       2.80721448       3.24149122      22.29206774        3       0.00175480      -0.08153361      -0.21879302
Pt       5.61442764       3.24149121      22.29206791        3      -0.03276640      -0.01836783      -0.08527944
Pt       8.42164154       3.24149129      22.29206806        3       0.03126345      -0.01759009      -0.08298930
Pt       4.21082091       5.67260997      22.29206741        3       0.00167742      -0.01476006      -0.01902243
Pt       7.01803487       5.67261038      22.29206779        3       0.00149843       0.00656161      -0.00831265
Pt       9.82524821       5.67261068      22.29206808        3       0.00303971      -0.02509561      -0.02035571
Pt      -0.00000053       1.62074567      24.58417372        2       0.03286480       0.01248564      -0.07671994
Pt       2.80721436       1.62074552      24.58417391        2      -0.00089609       0.04935984      -0.16024956
Pt       5.61442781       1.62074537      24.58417374        2      -0.03379257       0.00860994      -0.06889719
Pt       1.40360639       4.05186438      24.58417385        2      -0.16924763       0.13591805       0.27081379
Pt       4.21082087       4.05186396      24.58417384        2       0.15876204       0.12670457       0.27104920
Pt       7.01803504       4.05186408      24.58417403        2       0.00134069       0.07741104       0.16148667
Pt       2.80721276       6.48298348      24.58417381        2      -0.00485443      -0.00313067      -0.02960566
Pt       5.61442804       6.48298329      24.58417396        2       0.01397689      -0.13930663       0.15458837
Pt       8.42164223       6.48298338      24.58417376        2      -0.00942318      -0.13337186       0.14779858
Pt      -0.00201155       0.00340856      26.90697159        1       0.00293874       0.01116724      -0.00210385
Pt       2.80627871       0.07491962      26.90186194        1      -0.00044662      -0.03727167      -0.02578507
Pt       5.61439160       0.00336447      26.90872711        1      -0.00149197       0.00712505      -0.00048734
Pt       1.40453081       2.45024046      26.90868032        1       0.00304393      -0.00129643      -0.00051654
Pt       4.20958596       2.44994739      26.90931249        1      -0.00463919      -0.00109273      -0.00018757
Pt       7.01884682       2.38178290      26.89056057        1      -0.00165098       0.03282735       0.01071582
Pt       2.80685192       4.87578230      26.91243024        1      -0.00128634      -0.02670770      -0.01708070
Pt       5.60374959       4.86792800      27.06267911        1       0.02712759      -0.03385716      -0.00200845
Pt       8.43088919       4.86968648      27.06507366        1      -0.01412257      -0.03868789      -0.01250826
O        7.01768685       4.94167885      29.69932217        0      -0.00211845       0.00643931      -0.00925646
C        7.01732855       4.92515671      28.51111186        0      -0.00376363       0.00071438       0.00612153
