38
Lattice="8.421641763931781 0.0 0.0 4.2108208819658905 7.293355709136913 0.0 0.0 0.0 46.87624170604845" Properties=species:S:1:pos:R:3:tags:I:1:forces:R:3 charge=0 spin=0 energy=-202.87981223703136 free_energy=-202.87981223703136 stress="0.010148711502552032 1.7167354599223472e-05 6.285918516368838e-06 1.7167354599223472e-05 0.009566963650286198 -2.5185485355905257e-05 6.285918516368838e-06 -2.5185485355905257e-05 -0.000438002054579556" pbc="T T T"
Pt      -0.00000010      -0.00000005      19.95723451        4      -0.00075301      -0.00098867       0.01983820
Pt       2.80721394      -0.00000020      19.95723457        4       0.00333420       0.00113554       0.01791433
Pt       5.61442787      -0.00000008      19.95723465        4      -0.00030487       0.00109041       0.02187123
Pt       1.40360721       2.43111841      19.95723445        4      -0.00091598       0.00520975       0.00689922
Pt       4.21082082       2.43111837      19.95723453        4      -0.02037193       0.00014170      -0.00680325
Pt       7.01803480       2.43111844      19.95723439        4       0.01982697      -0.00100668      -0.00436076
Pt       2.80721416       4.86223734      19.95723425        4      -0.00056770      -0.00373668       0.01293525
Pt       5.61442796       4.86223739      19.95723443        4      -0.00093930      -0.00810306       0.02544955
Pt       8.42164143       4.86223725      19.95723447        4       0.00248358      -0.00092524       0.01514215
Pt       1.40360729       0.81037262      22.29206795        3      -0.00146407       0.01078505      -0.06871414
Pt       4.21082131       0.81037249      22.29206793        3       0.01076446       0.05830838      -0.11344748
Pt       7.01803470       0.81037255      22.29206785        3      -0.01142614       0.05486576      -0.11218803
Pt       2.80721448       3.24149122      22.29206774        3       0.03180490      -0.01440889      -0.08086652
Pt       5.61442764       3.24149121      22.29206791        3       0.00209332      -0.08004538      -0.21952868
Pt       8.42164154       3.24149129      22.29206806        3      -0.03295783      -0.01526996      -0.08303395
Pt       4.21082091       5.67260997      22.29206741        3       0.00210685      -0.02074917      -0.01828547
Pt       7.01803487       5.67261038      22.29206779        3       0.00262042      -0.01052515      -0.01682649
Pt       9.82524821       5.67261068      22.29206808        3       0.00172332       0.01040654      -0.01011197
Pt      -0.00000053       1.62074567      24.58417372        2      -0.03170883      -0.00046098      -0.08025330
Pt       2.80721436       1.62074552      24.58417391        2       0.03052223       0.00442161      -0.08889980
Pt       5.61442781       1.62074537      24.58417374        2       0.00005812       0.04518115      -0.18823530
Pt       1.40360639       4.05186438      24.58417385        2       0.00114486       0.06694712       0.14908752
Pt       4.21082087       4.05186396      24.58417384        2      -0.17099819       0.12563534       0.26350749
Pt       7.01803504       4.05186408      24.58417403        2       0.16243541       0.11687696       0.26495546
Pt       2.80721276       6.48298348      24.58417381        2       0.00225797      -0.15620567       0.12954187
Pt       5.61442804       6.48298329      24.58417396        2      -0.00464274      -0.01696954      -0.03456758
Pt       8.42164223       6.48298338      24.58417376        2       0.00272003      -0.16285525       0.13630067
Pt       0.00006616      -0.00896441      26.90578815        1      -0.00118375      -0.01043524       0.00937801
Pt       2.80533409      -0.00789935      26.90360103        1       0.00367582      -0.01108140       0.01047783
Pt       5.61368035       0.05262701      26.88766541        1       0.00029379      -0.01517631       0.01922628
Pt       1.40381741       2.36973526      26.88950709        1       0.00038583       0.01239411       0.02188459
Pt       4.21438622       2.43351119      26.90605735        1      -0.00392018       0.00390485       0.01043059
Pt       7.01462175       2.43352644      26.90671580        1       0.00316003       0.00425033       0.01037149
Pt       2.81587901       4.84836845      27.06405553        1      -0.00292298      -0.00353788      -0.00062061
Pt       5.61477244       4.85864242      26.90889268        1      -0.00005061      -0.00397118      -0.00853940
Pt       8.41441568       4.84807540      27.06280316        1       0.00190848      -0.00360639       0.00019764
O        9.82562116       4.87252372      29.70210323        0       0.00006077       0.01247390      -0.01742529
C        9.82554642       4.87333841      28.51385259        0      -0.00025321       0.00603034       0.00729871
