38
Lattice="8.421641763931781 0.0 0.0 4.2108208819658905 7.293355709136913 0.0 0.0 0.0 46.87624170604845" Properties=species:S:1:pos:R:3:tags:I:1:forces:R:3 charge=0 spin=0 energy=-202.87924098611583 free_energy=-202.87924098611583 stress="0.009702926501631737 0.0002449134481139481 -2.527795368223451e-05 0.0002449134481139481 0.010025085881352425 8.083702596195508e-06 -2.527795368223451e-05 8.083702596195508e-06 -0.00042392421164549887" pbc="T T T"
Pt      -0.00000010      -0.00000005      19.95723451        4       0.00124797      -0.00017494       0.02174525
Pt       2.80721394      -0.00000020      19.95723457        4       0.01005040       0.01798907      -0.00689228
Pt       5.61442787      -0.00000008      19.95723465        4      -0.00279637       0.00233615       0.01297161
Pt       1.40360721       2.43111841      19.95723445        4      -0.00071444      -0.00324987       0.01798411
Pt       4.21082082       2.43111837      19.95723453        4       0.00479834      -0.00173942       0.00683626
Pt       7.01803480       2.43111844      19.95723439        4      -0.00199517      -0.00181647       0.01520585
Pt       2.80721416       4.86223734      19.95723425        4      -0.00079603       0.00119986       0.02000987
Pt       5.61442796       4.86223739      19.95723443        4      -0.01124290      -0.01653787      -0.00429350
Pt       8.42164143       4.86223725      19.95723447        4      -0.00678538       0.00490602       0.02531545
Pt       1.40360729       0.81037262      22.29206795        3       0.04449126      -0.03739180      -0.11283839
Pt       4.21082131       0.81037249      22.29206793        3      -0.02828539      -0.02054199      -0.08115762
Pt       7.01803470       0.81037255      22.29206785        3       0.00839258      -0.00660761      -0.01091978
Pt       2.80721448       3.24149122      22.29206774        3       0.00926376      -0.00374474      -0.06921878
Pt       5.61442764       3.24149121      22.29206791        3       0.00342313       0.03647712      -0.08309088
Pt       8.42164154       3.24149129      22.29206806        3      -0.01052709       0.00393932      -0.01853590
Pt       4.21082091       5.67260997      22.29206741        3       0.05203044      -0.01764335      -0.11191693
Pt       7.01803487       5.67261038      22.29206779        3      -0.07017926       0.03827770      -0.21910088
Pt       9.82524821       5.67261068      22.29206808        3      -0.01956204       0.00861380      -0.01997051
Pt      -0.00000053       1.62074567      24.58417372        2      -0.13270481       0.07346003       0.13921930
Pt       2.80721436       1.62074552      24.58417391        2      -0.01862801      -0.03205888      -0.06997698
Pt       5.61442781       1.62074537      24.58417374        2       0.05316652      -0.03248886       0.14008555
Pt       1.40360639       4.05186438      24.58417385        2       0.00050363       0.00469207      -0.02942908
Pt       4.21082087       4.05186396      24.58417384        2       0.01494306       0.03363055      -0.06173582
Pt       7.01803504       4.05186408      24.58417403        2       0.01179334      -0.19751775       0.25934571
Pt       2.80721276       6.48298348      24.58417381        2      -0.12688373       0.07022940       0.13332903
Pt       5.61442804       6.48298329      24.58417396        2       0.04367793      -0.02497052      -0.16158886
Pt       8.42164223       6.48298338      24.58417376        2       0.18873689       0.09164760       0.25716609
Pt       0.04974041      -0.02774748      26.88976427        1      -0.00690706       0.00098642       0.01180444
Pt       2.81328225      -0.00660836      26.91340380        1      -0.02777153       0.00992736      -0.01724749
Pt       5.59976463       0.00128958      27.05904663        1      -0.00055067      -0.01922449       0.00726619
Pt       1.39379141       2.43621785      26.90959026        1       0.01907840      -0.00370934      -0.01393571
Pt       4.15558487       2.46100476      26.88914322        1       0.00104993       0.00374406       0.01742551
Pt       7.00798135       2.44251060      27.05749965        1       0.01671135       0.00987710       0.00823972
Pt       2.79859955       4.86865917      26.91155190        1       0.00870438      -0.01255629      -0.01367079
Pt       5.62216674       4.85936380      26.91368228        1      -0.02011752       0.02019431      -0.01657235
Pt       8.42048916       4.86288677      26.90168635        1      -0.00716152       0.00195814       0.01928436
O        6.32472195       1.21013907      29.69754468        0       0.03415629      -0.01867331       0.01378796
C        6.33583121       1.20450885      28.50968033        0      -0.03261074       0.01656160      -0.00492976
