38
Lattice="8.421641763931781 0.0 0.0 4.2108208819658905 7.293355709136913 0.0 0.0 0.0 46.87624170604845" Properties=species:S:1:pos:R:3:tags:I:1:forces:R:3 charge=0 spin=0 energy=-202.88631820321788 free_energy=-202.88631820321788 stress="0.010008860379457474 -1.7686502928881964e-08 3.0802254080697367e-09 -1.7686502928881964e-08 0.010008876211941242 -1.1881748918085577e-08 3.0802254080697367e-09 -1.1881748918085577e-08 -0.0002951804199256003" pbc="T T T"
Pt      -0.00000010      -0.00000005      19.95723451        4       0.00328758       0.00013707       0.01103258
Pt       2.80721394      -0.00000020      19.95723457        4      -0.00153782      -0.00287498       0.01097737
Pt       5.61442787      -0.00000008      19.95723465        4      -0.00024752      -0.00297298       0.02375876
Pt       1.40360721       2.43111841      19.95723445        4       0.00064512      -0.01587680       0.00966191
Pt       4.21082082       2.43111837      19.95723453        4      -0.00248299       0.00172920       0.02371825
Pt       7.01803480       2.43111844      19.95723439        4       0.00273116       0.00124623       0.02371647
Pt       2.80721416       4.86223734      19.95723425        4       0.01343128       0.00851131       0.00972446
Pt       5.61442796       4.86223739      19.95723443        4      -0.00175069       0.00273983       0.01098814
Pt       8.42164143       4.86223725      19.95723447        4      -0.01407602       0.00736111       0.00965797
Pt       1.40360729       0.81037262      22.29206795        3      -0.00156617       0.02371373      -0.06257038
Pt       4.21082131       0.81037249      22.29206793        3      -0.00878892      -0.00930674      -0.02602229
Pt       7.01803470       0.81037255      22.29206785        3       0.01247262      -0.00294531      -0.02605739
Pt       2.80721448       3.24149122      22.29206774        3      -0.05335816       0.02884135      -0.15749392
Pt       5.61442764       3.24149121      22.29206791        3      -0.00368341       0.01226001      -0.02590524
Pt       8.42164154       3.24149129      22.29206806        3       0.05156460       0.03178524      -0.15754192
Pt       4.21082091       5.67260997      22.29206741        3      -0.01969827      -0.01314169      -0.06243423
Pt       7.01803487       5.67261038      22.29206779        3       0.02125848      -0.01057175      -0.06246114
Pt       9.82524821       5.67261068      22.29206808        3       0.00180090      -0.06063200      -0.15753792
Pt      -0.00000053       1.62074567      24.58417372        2      -0.00959637      -0.10170380       0.12922896
Pt       2.80721436       1.62074552      24.58417391        2       0.01010167      -0.09517907       0.12689659
Pt       5.61442781       1.62074537      24.58417374        2      -0.00000054       0.00000324       0.00365992
Pt       1.40360639       4.05186438      24.58417385        2       0.00000573       0.00000110      -0.23094128
Pt       4.21082087       4.05186396      24.58417384        2       0.09283459       0.04241026       0.12934123
Pt       7.01803504       4.05186408      24.58417403        2      -0.08745622       0.03871212       0.12688951
Pt       2.80721276       6.48298348      24.58417381        2       0.07735757       0.05646146       0.12703988
Pt       5.61442804       6.48298329      24.58417396        2      -0.00000414      -0.00000495       0.14669459
Pt       8.42164223       6.48298338      24.58417376        2      -0.08324263       0.05929257       0.12942417
Pt      -0.01698119       0.00809015      27.01984272        1       0.01090775      -0.00337298      -0.00530971
Pt       2.82271280       0.01065971      27.01984257        1      -0.00838142      -0.00775930      -0.00531009
Pt       5.61477446       0.00154698      26.91395251        1       0.00140793       0.00884578      -0.01662794
Pt       1.40254179       2.45590814      26.89887657        1       0.00087172      -0.01390440      -0.00273629
Pt       4.21198844       2.43004387      26.91395061        1       0.00695759      -0.00564057      -0.01662279
Pt       7.01652052       2.43064440      26.91395199        1      -0.00836315      -0.00320651      -0.01662775
Pt       2.78627679       4.84891829      26.89887574        1       0.01160812       0.00771006      -0.00273685
Pt       5.61591096       4.84348491      27.01984351        1      -0.00252914       0.01113477      -0.00531334
Pt       8.44364398       4.85076244      26.89887702        1      -0.01247978       0.00620157      -0.00273464
O        5.61442906       6.48298593      29.55952884        0      -0.00000111      -0.00000254      -0.01305220
C        5.61442875       6.48298447      28.35899783        0       0.00000018      -0.00000159       0.00362657
