38
Lattice="8.421641763931781 0.0 0.0 4.2108208819658905 7.293355709136913 0.0 0.0 0.0 46.87624170604845" Properties=species:S:1:pos:R:3:tags:I:1:forces:R:3 charge=0 spin=0 energy=-202.87921142221202 free_energy=-202.87921142221202 stress="0.009736627340316772 0.0002666595974005759 9.74285285337828e-07 0.0002666595974005759 0.010076026432216167 -1.1135382010252215e-05 9.74285285337828e-07 -1.1135382010252215e-05 -0.00035275676054880023" pbc="T T T"
Pt      -0.00000010      -0.00000005      19.95723451        4      -0.00363596       0.00245597       0.01305976
Pt       2.80721394      -0.00000020      19.95723457        4       0.00020483       0.00010479       0.02178501
Pt       5.61442787      -0.00000008      19.95723465        4       0.00904698       0.01764314      -0.00635289
Pt       1.40360721       2.43111841      19.95723445        4      -0.00267742      -0.00134491       0.01511894
Pt       4.21082082       2.43111837      19.95723453        4      -0.00162228      -0.00299878       0.01778969
Pt       7.01803480       2.43111844      19.95723439        4       0.00399946      -0.00149555       0.00727924
Pt       2.80721416       4.86223734      19.95723425        4      -0.00763636       0.00524213       0.02553229
Pt       5.61442796       4.86223739      19.95723443        4      -0.00163047       0.00161645       0.01977312
Pt       8.42164143       4.86223725      19.95723447        4      -0.01158749      -0.01586198      -0.00392448
Pt       1.40360729       0.81037262      22.29206795        3       0.00488561      -0.00462098      -0.00809949
Pt       4.21082131       0.81037249      22.29206793        3       0.04223150      -0.03593776      -0.11214561
Pt       7.01803470       0.81037255      22.29206785        3      -0.03084050      -0.01831573      -0.08307873
Pt       2.80721448       3.24149122      22.29206774        3      -0.01359459       0.00595586      -0.01886711
Pt       5.61442764       3.24149121      22.29206791        3       0.00649722      -0.00222664      -0.06903822
Pt       8.42164154       3.24149129      22.29206806        3       0.00044242       0.03769212      -0.08540105
Pt       4.21082091       5.67260997      22.29206741        3      -0.02319044       0.00984548      -0.02019771
Pt       7.01803487       5.67261038      22.29206779        3       0.04993323      -0.01668603      -0.11157264
Pt       9.82524821       5.67261068      22.29206808        3      -0.07145926       0.03930405      -0.21882856
Pt      -0.00000053       1.62074567      24.58417372        2       0.06631514      -0.03988269       0.16145889
Pt       2.80721436       1.62074552      24.58417391        2      -0.12749305       0.05760036       0.15467048
Pt       5.61442781       1.62074537      24.58417374        2      -0.00559977      -0.03459962      -0.07664726
Pt       1.40360639       4.05186438      24.58417385        2       0.03026403      -0.20082614       0.27102539
Pt       4.21082087       4.05186396      24.58417384        2      -0.00016100       0.00566236      -0.02964167
Pt       7.01803504       4.05186408      24.58417403        2       0.02445056       0.02496080      -0.06895405
Pt       2.80721276       6.48298348      24.58417381        2       0.20209840       0.07855680       0.27079132
Pt       5.61442804       6.48298329      24.58417396        2      -0.11072703       0.07472249       0.14774491
Pt       8.42164223       6.48298338      24.58417376        2       0.04312573      -0.02377921      -0.16017142
Pt       0.00182630      -0.01173444      27.06507481        1      -0.02644779       0.03157712      -0.01251657
Pt       2.87256044      -0.03664803      26.90186174        1      -0.03204879       0.01900408      -0.02578150
Pt       5.63052684      -0.01035934      26.90868116        1      -0.00263471      -0.00196167      -0.00051228
Pt       1.41387542       2.43751918      27.06268087        1      -0.04291164      -0.00654622      -0.00201306
Pt       4.21477047       2.43114356      26.90697519        1       0.00817228      -0.00820531      -0.00207266
Pt       6.97490263       2.45508333      26.89056169        1       0.02924307      -0.01496790       0.01070101
Pt       2.81912586       4.85577691      26.91242964        1      -0.02247799       0.01446533      -0.01707919
Pt       5.61735860       4.86058786      26.90872578        1       0.00690337      -0.00232382      -0.00049648
Pt       8.43857212       4.85390196      26.90930796        1       0.00141915       0.00465325      -0.00021548
O        0.77077654       1.17613738      29.69932440        0       0.00663326      -0.00138157      -0.00940097
C        0.75664369       1.18471057      28.51111171        0       0.00251047       0.00289983       0.00627895
