38
Lattice="8.421641763931781 0.0 0.0 4.2108208819658905 7.293355709136913 0.0 0.0 0.0 46.87624170604845" Properties=species:S:1:pos:R:3:tags:I:1:forces:R:3 charge=0 spin=0 energy=-202.87923717141857 free_energy=-202.87923717141857 stress="0.010156054049730301 1.7434254914405756e-05 5.894211426493712e-06 1.7434254914405756e-05 0.009572023525834084 -2.6052324756165035e-05 5.894211426493712e-06 -2.6052324756165035e-05 -0.0004238838155288249" pbc="T T T"
Pt      -0.00000010      -0.00000005      19.95723451        4       0.01992013      -0.00145795      -0.00421392
Pt       2.80721394      -0.00000020      19.95723457        4      -0.00088452       0.00499690       0.00679701
Pt       5.61442787      -0.00000008      19.95723465        4      -0.02058837      -0.00031074      -0.00686591
Pt       1.40360721       2.43111841      19.95723445        4       0.00258863      -0.00079315       0.01519506
Pt       4.21082082       2.43111837      19.95723453        4      -0.00060675      -0.00357443       0.01292662
Pt       7.01803480       2.43111844      19.95723439        4      -0.00085496      -0.00829089       0.02534599
Pt       2.80721416       4.86223734      19.95723425        4      -0.00048399       0.00115446       0.02176357
Pt       5.61442796       4.86223739      19.95723443        4      -0.00067707      -0.00129155       0.01998440
Pt       8.42164143       4.86223725      19.95723447        4       0.00318416       0.00098062       0.01795046
Pt       1.40360729       0.81037262      22.29206795        3      -0.03321017      -0.01517648      -0.08298256
Pt       4.21082131       0.81037249      22.29206793        3       0.03190153      -0.01425827      -0.08108550
Pt       7.01803470       0.81037255      22.29206785        3       0.00200899      -0.07990310      -0.21907753
Pt       2.80721448       3.24149122      22.29206774        3       0.00146518       0.01060001      -0.01113879
Pt       5.61442764       3.24149121      22.29206791        3       0.00228690      -0.02134147      -0.02010066
Pt       8.42164154       3.24149129      22.29206806        3       0.00190855      -0.01110391      -0.01871226
Pt       4.21082091       5.67260997      22.29206741        3      -0.01075388       0.05394434      -0.11181381
Pt       7.01803487       5.67261038      22.29206779        3      -0.00140563       0.00986320      -0.06902822
Pt       9.82524821       5.67261068      22.29206808        3       0.01009189       0.05719893      -0.11281379
Pt      -0.00000053       1.62074567      24.58417372        2       0.16511068       0.10906090       0.25942853
Pt       2.80721436       1.62074552      24.58417391        2       0.00151508       0.06235436       0.14011537
Pt       5.61442781       1.62074537      24.58417374        2      -0.17389597       0.11785506       0.25722596
Pt       1.40360639       4.05186438      24.58417385        2       0.00284754      -0.15174189       0.13914643
Pt       4.21082087       4.05186396      24.58417384        2       0.00256363      -0.14512123       0.13337234
Pt       7.01803504       4.05186408      24.58417403        2      -0.00438859      -0.00209985      -0.02936696
Pt       2.80721276       6.48298348      24.58417381        2      -0.00010315       0.05041941      -0.16167137
Pt       5.61442804       6.48298329      24.58417396        2      -0.03656010      -0.00400618      -0.06171087
Pt       8.42164223       6.48298338      24.58417376        2       0.03718625      -0.00009697      -0.07006539
Pt      -0.00135192       0.00813705      26.91369410        1      -0.00740592      -0.02751472      -0.01660629
Pt       2.80895355      -0.06277064      26.88911517        1      -0.00375849      -0.00098087       0.01749814
Pt       5.61714160       0.00856496      26.91339052        1       0.00521913      -0.02903914      -0.01727854
Pt       1.39876477       2.41672617      27.05750094        1      -0.01688772       0.00953003       0.00823603
Pt       4.21703929       2.41777355      27.05904832        1       0.01690960       0.00913815       0.00725567
Pt       7.01804965       2.42978881      26.90172157        1       0.00187754      -0.00716821       0.01916066
Pt       2.80636433       4.91919005      26.88976189        1       0.00258903      -0.00647753       0.01184381
Pt       5.61315950       4.85155925      26.91156973        1       0.00653836       0.01384274      -0.01365361
Pt       8.42208697       4.85117696      26.90958623        1      -0.00629615       0.01842130      -0.01392621
O        2.80766300       2.44118035      29.69754189        0      -0.00090113       0.03891584       0.01379002
C        2.80698720       2.45362250      28.50967843        0       0.00194959      -0.03652762      -0.00492399
