38
Lattice="8.421641763931781 0.0 0.0 4.2108208819658905 7.293355709136913 0.0 0.0 0.0 46.87624170604845" Properties=species:S:1:pos:R:3:tags:I:1:forces:R:3 charge=0 spin=0 energy=-202.91267680764904 free_energy=-202.91267680764904 stress="0.009917953051626682 7.415327463178301e-09 4.023442912171049e-09 7.415327463178301e-09 0.009917962364852428 4.215167592747093e-08 4.023442912171049e-09 4.215167592747093e-08 -0.0004363551561255008" pbc="T T T"
Pt      -0.00000010      -0.00000005      19.95723451        4       0.01521998      -0.00864394       0.01075275
Pt       2.80721394      -0.00000020      19.95723457        4      -0.00268158       0.00268557       0.01331937
Pt       5.61442787      -0.00000008      19.95723465        4      -0.01510750      -0.00889798       0.01074596
Pt       1.40360721       2.43111841      19.95723445        4      -0.00086800      -0.00082374       0.01724221
Pt       4.21082082       2.43111837      19.95723453        4       0.00117593      -0.00034621       0.01718112
Pt       7.01803480       2.43111844      19.95723439        4      -0.00011468       0.01754762       0.01072406
Pt       2.80721416       4.86223734      19.95723425        4      -0.00030941       0.00116810       0.01724187
Pt       5.61442796       4.86223739      19.95723443        4      -0.00100860      -0.00366557       0.01328737
Pt       8.42164143       4.86223725      19.95723447        4       0.00369340       0.00097506       0.01334142
Pt       1.40360729       0.81037262      22.29206795        3      -0.03870713      -0.00531452      -0.06537601
Pt       4.21082131       0.81037249      22.29206793        3       0.03318309      -0.01032661      -0.06678722
Pt       7.01803470       0.81037255      22.29206785        3      -0.00000006       0.00000174      -0.28143728
Pt       2.80721448       3.24149122      22.29206774        3      -0.00000687       0.00000296      -0.00960783
Pt       5.61442764       3.24149121      22.29206791        3       0.02398309      -0.03096072      -0.06542881
Pt       8.42164154       3.24149129      22.29206806        3      -0.02549138      -0.02363780      -0.06682556
Pt       4.21082091       5.67260997      22.29206741        3      -0.00769287       0.03397211      -0.06671944
Pt       7.01803487       5.67261038      22.29206779        3      -0.00000404      -0.00000256      -0.07411497
Pt       9.82524821       5.67261068      22.29206808        3       0.01473367       0.03626633      -0.06543345
Pt      -0.00000053       1.62074567      24.58417372        2       0.09436584       0.05275855       0.12029725
Pt       2.80721436       1.62074552      24.58417391        2       0.00032326       0.07095413       0.15456496
Pt       5.61442781       1.62074537      24.58417374        2      -0.09296474       0.05537881       0.12028720
Pt       1.40360639       4.05186438      24.58417385        2       0.06133067      -0.03574698       0.15462817
Pt       4.21082087       4.05186396      24.58417384        2      -0.06163192      -0.03518943       0.15467587
Pt       7.01803504       4.05186408      24.58417403        2       0.00228735      -0.02609358      -0.06615719
Pt       2.80721276       6.48298348      24.58417381        2      -0.00141018      -0.10813400       0.12025723
Pt       5.61442804       6.48298329      24.58417396        2      -0.02375368       0.01097115      -0.06625387
Pt       8.42164223       6.48298338      24.58417376        2       0.02146003       0.01510097      -0.06630404
Pt      -0.00265989       0.00216185      26.90697001        1       0.00470293      -0.00364608       0.00034654
Pt       2.80862957      -0.01931943      26.89883928        1      -0.00118125      -0.03353389      -0.00262338
Pt       5.61763574       0.00122535      26.90697871        1      -0.00552332      -0.00224933       0.00032523
Pt       1.37959817       2.41519790      27.01570313        1       0.00650420       0.00373300      -0.00288009
Pt       4.23660441       2.41829378      27.01570460        1      -0.00644116       0.00374485      -0.00289703
Pt       7.01748495       2.42773294      26.90698545        1       0.00083403       0.00590174       0.00029960
Pt       2.80542971       4.89098450      27.01570419        1      -0.00001885      -0.00747487      -0.00289532
Pt       5.63046210       4.87311782      26.89884874        1       0.02960226       0.01575835      -0.00265601
Pt       8.40421058       4.87067757      26.89885076        1      -0.02847772       0.01776880      -0.00265886
O        2.80721143       3.24149315      29.53989808        0      -0.00000647      -0.00000477       0.01431996
C        2.80721004       3.24149156      28.33849678        0       0.00000159       0.00000276       0.01321815
