38
Lattice="8.421641763931781 0.0 0.0 4.2108208819658905 7.293355709136913 0.0 0.0 0.0 46.87624170604845" Properties=species:S:1:pos:R:3:tags:I:1:forces:R:3 charge=0 spin=0 energy=-202.9126806223463 free_energy=-202.9126806223463 stress="0.009917954914271832 6.998653656609122e-09 4.3910111102718474e-09 6.998653656609122e-09 0.00991796888411045 4.167364053841993e-08 4.3910111102718474e-09 4.167364053841993e-08 -0.00043640381773002446" pbc="T T T"
Pt      -0.00000010      -0.00000005      19.95723451        4      -0.00268254       0.00268566       0.01331752
Pt       2.80721394      -0.00000020      19.95723457        4      -0.01510749      -0.00889754       0.01074609
Pt       5.61442787      -0.00000008      19.95723465        4       0.01522079      -0.00864429       0.01075459
Pt       1.40360721       2.43111841      19.95723445        4       0.00117429      -0.00034407       0.01718189
Pt       4.21082082       2.43111837      19.95723453        4      -0.00011182       0.01754755       0.01072366
Pt       7.01803480       2.43111844      19.95723439        4      -0.00086915      -0.00082576       0.01724196
Pt       2.80721416       4.86223734      19.95723425        4      -0.00101180      -0.00366467       0.01329729
Pt       5.61442796       4.86223739      19.95723443        4       0.00369061       0.00097379       0.01333843
Pt       8.42164143       4.86223725      19.95723447        4      -0.00030341       0.00116844       0.01723492
Pt       1.40360729       0.81037262      22.29206795        3       0.03318318      -0.01033059      -0.06678497
Pt       4.21082131       0.81037249      22.29206793        3      -0.00000100       0.00000487      -0.28143772
Pt       7.01803470       0.81037255      22.29206785        3      -0.03870622      -0.00531464      -0.06537821
Pt       2.80721448       3.24149122      22.29206774        3       0.02397455      -0.03095725      -0.06543045
Pt       5.61442764       3.24149121      22.29206791        3      -0.02549273      -0.02363881      -0.06682446
Pt       8.42164154       3.24149129      22.29206806        3       0.00000385       0.00000037      -0.00960697
Pt       4.21082091       5.67260997      22.29206741        3      -0.00000472       0.00000162      -0.07410174
Pt       7.01803487       5.67261038      22.29206779        3       0.01472143       0.03627319      -0.06542865
Pt       9.82524821       5.67261068      22.29206808        3      -0.00768042       0.03396063      -0.06673706
Pt      -0.00000053       1.62074567      24.58417372        2       0.00032792       0.07095332       0.15456310
Pt       2.80721436       1.62074552      24.58417391        2      -0.09296626       0.05537480       0.12028648
Pt       5.61442781       1.62074537      24.58417374        2       0.09436128       0.05276401       0.12030005
Pt       1.40360639       4.05186438      24.58417385        2      -0.06162784      -0.03519347       0.15467674
Pt       4.21082087       4.05186396      24.58417384        2       0.00229061      -0.02609091      -0.06616119
Pt       7.01803504       4.05186408      24.58417403        2       0.06132236      -0.03574520       0.15463102
Pt       2.80721276       6.48298348      24.58417381        2      -0.02373853       0.01096577      -0.06625488
Pt       5.61442804       6.48298329      24.58417396        2       0.02146434       0.01510187      -0.06631206
Pt       8.42164223       6.48298338      24.58417376        2      -0.00142877      -0.10812964       0.12026665
Pt       0.00141559      -0.01931925      26.89883859        1      -0.00118000      -0.03353265      -0.00261800
Pt       2.81042206       0.00122530      26.90697811        1      -0.00552221      -0.00224965       0.00032332
Pt       5.61176820       0.00216212      26.90697171        1       0.00469923      -0.00364624       0.00034343
Pt       1.42939058       2.41829388      27.01570425        1      -0.00644661       0.00374560      -0.00289668
Pt       4.21027087       2.42773291      26.90698541        1       0.00083609       0.00590148       0.00030008
Pt       6.99402593       2.41519816      27.01570291        1       0.00650878       0.00373503      -0.00287712
Pt       2.82324800       4.87311793      26.89884854        1       0.02960267       0.01575865      -0.00265589
Pt       5.59699690       4.87067730      26.89885088        1      -0.02847549       0.01776822      -0.00265983
Pt       8.41985752       4.89098447      27.01570416        1      -0.00002029      -0.00747791      -0.00289271
O        8.42163916       3.24149298      29.53989707        0      -0.00000727      -0.00000496       0.01445608
C        8.42163752       3.24149141      28.33849814        0       0.00000240       0.00000323       0.01307489
