38
Lattice="8.421641763931781 0.0 0.0 4.2108208819658905 7.293355709136913 0.0 0.0 0.0 46.87624170604845" Properties=species:S:1:pos:R:3:tags:I:1:forces:R:3 charge=0 spin=0 energy=-202.91223621011486 free_energy=-202.91223621011486 stress="0.009914908558130264 8.123363315348797e-09 7.339656882265899e-09 8.123363315348797e-09 0.009914924390614033 3.480825938595444e-08 7.339656882265899e-09 3.480825938595444e-08 -0.0004492269654292613" pbc="T T T"
Pt      -0.00000010      -0.00000005      19.95723451        4      -0.00268342       0.00254237       0.01324441
Pt       2.80721394      -0.00000020      19.95723457        4      -0.01509553      -0.00889199       0.01064282
Pt       5.61442787      -0.00000008      19.95723465        4       0.01520991      -0.00863648       0.01065201
Pt       1.40360721       2.43111841      19.95723445        4       0.00092611      -0.00032705       0.01693638
Pt       4.21082082       2.43111837      19.95723453        4      -0.00011243       0.01753460       0.01061893
Pt       7.01803480       2.43111844      19.95723439        4      -0.00073051      -0.00061853       0.01699730
Pt       2.80721416       4.86223734      19.95723425        4      -0.00088763      -0.00359235       0.01322225
Pt       5.61442796       4.86223739      19.95723443        4       0.00356613       0.00104401       0.01326419
Pt       8.42164143       4.86223725      19.95723447        4      -0.00019215       0.00094457       0.01698990
Pt       1.40360729       0.81037262      22.29206795        3       0.03378985      -0.01058874      -0.06688239
Pt       4.21082131       0.81037249      22.29206793        3      -0.00000100       0.00000440      -0.28188905
Pt       7.01803470       0.81037255      22.29206785        3      -0.03930299      -0.00577143      -0.06577927
Pt       2.80721448       3.24149122      22.29206774        3       0.02466702      -0.03124765      -0.06582265
Pt       5.61442764       3.24149121      22.29206791        3      -0.02601875      -0.02403637      -0.06692428
Pt       8.42164154       3.24149129      22.29206806        3       0.00000382      -0.00000080      -0.00723302
Pt       4.21082091       5.67260997      22.29206741        3      -0.00000388       0.00000224      -0.07232257
Pt       7.01803487       5.67261038      22.29206779        3       0.01462623       0.03702014      -0.06583419
Pt       9.82524821       5.67261068      22.29206808        3      -0.00776073       0.03461510      -0.06683306
Pt      -0.00000053       1.62074567      24.58417372        2       0.00058304       0.07583579       0.14731753
Pt       2.80721436       1.62074552      24.58417391        2      -0.09374148       0.05536928       0.13137691
Pt       5.61442781       1.62074537      24.58417374        2       0.09472170       0.05345019       0.13140805
Pt       1.40360639       4.05186438      24.58417385        2      -0.06596625      -0.03740606       0.14743400
Pt       4.21082087       4.05186396      24.58417384        2       0.00295181      -0.02851955      -0.08111367
Pt       7.01803504       4.05186408      24.58417403        2       0.06541585      -0.03840340       0.14739172
Pt       2.80721276       6.48298348      24.58417381        2      -0.02618406       0.01156609      -0.08120492
Pt       5.61442804       6.48298329      24.58417396        2       0.02322064       0.01691055      -0.08128660
Pt       8.42164223       6.48298338      24.58417376        2      -0.00099949      -0.10879801       0.13135736
Pt       0.00060039      -0.01796616      26.89432657        1       0.00197278      -0.03845396       0.01697051
Pt       2.80558635      -0.00145837      26.90726163        1       0.02674695       0.01730769      -0.00429515
Pt       5.61653207      -0.00068596      26.90727470        1      -0.02845256       0.01451445      -0.00432734
Pt       1.42622346       2.42065928      27.01639419        1       0.01916320      -0.01402269       0.00066223
Pt       4.21036604       2.43327298      26.90728932        1       0.00163909      -0.03185834      -0.00436918
Pt       6.99765485       2.41676256      27.01638935        1      -0.02166989      -0.00956188       0.00068942
Pt       2.82247869       4.87173215      26.89435328        1       0.03229751       0.02096912       0.01688001
Pt       5.59855673       4.87070814      26.89433428        1      -0.03423132       0.01750452       0.01694277
Pt       8.41939370       4.88705904      27.01639022        1       0.00254050       0.02359798       0.00067391
O        8.42163805       3.24149212      29.54616072        0      -0.00000963      -0.00000047       0.00902812
C        8.42163674       3.24149191      28.34500153        0       0.00000178       0.00000285      -0.00458351
