38
Lattice="8.421641763931781 0.0 0.0 4.2108208819658905 7.293355709136913 0.0 0.0 0.0 46.87624170604845" Properties=species:S:1:pos:R:3:tags:I:1:forces:R:3 charge=0 spin=0 energy=-202.87923717141857 free_energy=-202.87923717141857 stress="0.010156062431633472 1.743436951073818e-05 5.893452907912433e-06 1.743436951073818e-05 0.00957203283905983 -2.6052515750052407e-05 5.893452907912433e-06 -2.6052515750052407e-05 -0.0004239465342834592" pbc="T T T"
Pt      -0.00000010      -0.00000005      19.95723451        4      -0.00088508       0.00499712       0.00679566
Pt       2.80721394      -0.00000020      19.95723457        4      -0.02058832      -0.00030997      -0.00686578
Pt       5.61442787      -0.00000008      19.95723465        4       0.01992095      -0.00145817      -0.00421214
Pt       1.40360721       2.43111841      19.95723445        4      -0.00060836      -0.00357194       0.01292751
Pt       4.21082082       2.43111837      19.95723453        4      -0.00085184      -0.00829081       0.02534535
Pt       7.01803480       2.43111844      19.95723439        4       0.00258737      -0.00079506       0.01519483
Pt       2.80721416       4.86223734      19.95723425        4      -0.00068025      -0.00129100       0.01999433
Pt       5.61442796       4.86223739      19.95723443        4       0.00318138       0.00097902       0.01794736
Pt       8.42164143       4.86223725      19.95723447        4      -0.00047828       0.00115458       0.02175645
Pt       1.40360729       0.81037262      22.29206795        3       0.03190076      -0.01426193      -0.08108508
Pt       4.21082131       0.81037249      22.29206793        3       0.00200758      -0.07989877      -0.21907711
Pt       7.01803470       0.81037255      22.29206785        3      -0.03320873      -0.01517685      -0.08298805
Pt       2.80721448       3.24149122      22.29206774        3       0.00227793      -0.02133813      -0.02010149
Pt       5.61442764       3.24149121      22.29206791        3       0.00190625      -0.01110526      -0.01870892
Pt       8.42164154       3.24149129      22.29206806        3       0.00147572       0.01059620      -0.01113668
Pt       4.21082091       5.67260997      22.29206741        3      -0.00140683       0.00986846      -0.06901725
Pt       7.01803487       5.67261038      22.29206779        3       0.01007839       0.05720647      -0.11280743
Pt       9.82524821       5.67261068      22.29206808        3      -0.01074045       0.05393413      -0.11183120
Pt      -0.00000053       1.62074567      24.58417372        2       0.00151950       0.06236473       0.14010179
Pt       2.80721436       1.62074552      24.58417391        2      -0.17388478       0.11785763       0.25723818
Pt       5.61442781       1.62074537      24.58417374        2       0.16509163       0.10907592       0.25944766
Pt       1.40360639       4.05186438      24.58417385        2       0.00256756      -0.14512447       0.13337353
Pt       4.21082087       4.05186396      24.58417384        2      -0.00438504      -0.00211143      -0.02935647
Pt       7.01803504       4.05186408      24.58417403        2       0.00284072      -0.15173909       0.13914949
Pt       2.80721276       6.48298348      24.58417381        2      -0.03655434      -0.00401904      -0.06172609
Pt       5.61442804       6.48298329      24.58417396        2       0.03720675      -0.00010615      -0.07008927
Pt       8.42164223       6.48298338      24.58417376        2      -0.00012363       0.05042053      -0.16166110
Pt       0.00174371      -0.06276851      26.88909972        1      -0.00377287      -0.00098681       0.01755083
Pt       2.80993047       0.00856575      26.91339024        1       0.00521590      -0.02904350      -0.01727943
Pt       5.61307615       0.00813936      26.91369461        1      -0.00740825      -0.02751762      -0.01660572
Pt       1.40982522       2.41777461      27.05904819        1       0.01690658       0.00913533       0.00725700
Pt       4.21083205       2.42978892      26.90173768        1       0.00189443      -0.00716706       0.01910701
Pt       7.01319063       2.41672613      27.05750101        1      -0.01688267       0.00952959       0.00823595
Pt       2.80594578       4.85155886      26.91156912        1       0.00654175       0.01384681      -0.01365363
Pt       5.61487325       4.85117264      26.90958600        1      -0.00630092       0.01843442      -0.01392657
Pt       8.42079217       4.91919025      26.88976292        1       0.00258967      -0.00647592       0.01183841
O        8.42209055       2.44117950      29.69754084        0      -0.00090539       0.03891514       0.01394012
C        8.42141361       2.45362351      28.50967866        0       0.00195503      -0.03652686      -0.00507178
