38
Lattice="8.421641763931781 0.0 0.0 4.2108208819658905 7.293355709136913 0.0 0.0 0.0 46.87624170604845" Properties=species:S:1:pos:R:3:tags:I:1:forces:R:3 charge=0 spin=0 energy=-202.87961959481945 free_energy=-202.87961959481945 stress="0.009768672287464142 -0.00027259360649622977 7.86780674388865e-06 -0.00027259360649622977 0.010046832263469696 1.1857246136059985e-05 7.86780674388865e-06 1.1857246136059985e-05 -0.0003531269321683794" pbc="T T T"
Pt      -0.00000010      -0.00000005      19.95723451        4       0.01039744      -0.01712064      -0.00642367
Pt       2.80721394      -0.00000020      19.95723457        4      -0.00223891       0.00262332       0.01805025
Pt       5.61442787      -0.00000008      19.95723465        4       0.00798353       0.00361040       0.02537896
Pt       1.40360721       2.43111841      19.95723445        4      -0.00022480      -0.00049352       0.02188247
Pt       4.21082082       2.43111837      19.95723453        4       0.00001841       0.00276949       0.01525922
Pt       7.01803480       2.43111844      19.95723439        4      -0.00841782       0.01775033      -0.00403317
Pt       2.80721416       4.86223734      19.95723425        4       0.00383654       0.00174510       0.01314021
Pt       5.61442796       4.86223739      19.95723443        4      -0.00353922      -0.00300571       0.00691351
Pt       8.42164143       4.86223725      19.95723447        4       0.00181626       0.00008656       0.02004838
Pt       1.40360729       0.81037262      22.29206795        3      -0.05348310      -0.01874129      -0.11284367
Pt       4.21082131       0.81037249      22.29206793        3       0.00995500       0.00804314      -0.01850713
Pt       7.01803470       0.81037255      22.29206785        3       0.06887754       0.04174916      -0.21873705
Pt       2.80721448       3.24149122      22.29206774        3      -0.00781320      -0.00288874      -0.00994313
Pt       5.61442764       3.24149121      22.29206791        3       0.03117383      -0.02023172      -0.08353744
Pt       8.42164154       3.24149129      22.29206806        3      -0.03973991      -0.03600909      -0.11205103
Pt       4.21082091       5.67260997      22.29206741        3      -0.00197438       0.03525032      -0.08153936
Pt       7.01803487       5.67261038      22.29206779        3      -0.00644268      -0.00542696      -0.06886562
Pt       9.82524821       5.67261068      22.29206808        3       0.01877304       0.01356988      -0.02008485
Pt      -0.00000053       1.62074567      24.58417372        2      -0.04051777      -0.02365463      -0.16408083
Pt       2.80721436       1.62074552      24.58417391        2       0.12353024       0.07965609       0.15635811
Pt       5.61442781       1.62074537      24.58417374        2      -0.18357210       0.08350314       0.26629630
Pt       1.40360639       4.05186438      24.58417385        2       0.12185312       0.06820396       0.14865954
Pt       4.21082087       4.05186396      24.58417384        2      -0.06325266      -0.03505863       0.15605310
Pt       7.01803504       4.05186408      24.58417403        2       0.01203884      -0.03056315      -0.06285222
Pt       2.80721276       6.48298348      24.58417381        2      -0.02259538      -0.21223426       0.26455021
Pt       5.61442804       6.48298329      24.58417396        2      -0.02357101       0.02428196      -0.07124054
Pt       8.42164223       6.48298338      24.58417376        2       0.00414697      -0.00186402      -0.02680149
Pt      -0.01139203      -0.00247393      26.91109541        1       0.00446570      -0.00380691      -0.00777735
Pt       2.80889793      -0.00225680      26.90951726        1      -0.00277603       0.01084301      -0.01211797
Pt       5.61097601      -0.00164478      26.90548583        1       0.00333996       0.00242587       0.00483237
Pt       1.34769359       2.39828826      26.89662666        1       0.02508174       0.01516497      -0.01136745
Pt       4.21895235       2.42478993      27.06353014        1       0.00025613       0.02144939      -0.00674073
Pt       7.01001081       2.42357113      26.91154237        1      -0.00084634       0.00396522      -0.00722460
Pt       2.80352135       4.87216567      27.06454683        1       0.02241587      -0.00562471      -0.00661808
Pt       5.65867012       4.88963333      26.89127956        1      -0.00809686      -0.00763201       0.00992885
Pt       8.42070505       4.86469677      26.91115601        1       0.01025198      -0.00649595      -0.01050069
O        3.48413935       3.63309238      29.70043883        0      -0.01622562      -0.01056940      -0.00942271
C        3.48298601       3.63149176      28.51217528        0       0.00511556       0.00472996       0.00595914
