38
Lattice="8.421641763931781 0.0 0.0 4.2108208819658905 7.293355709136913 0.0 0.0 0.0 46.87624170604845" Properties=species:S:1:pos:R:3:tags:I:1:forces:R:3 charge=0 spin=0 energy=-202.81927489877452 free_energy=-202.81927489877452 stress="0.009581443853676319 -5.6703591155837785e-08 8.927299433025837e-08 -5.6703591155837785e-08 0.009581439197063446 1.932353370648343e-07 8.927299433025837e-08 1.932353370648343e-07 -0.000388690794352442" pbc="T T T"
Pt      -0.00000010      -0.00000005      19.95723451        4       0.00151966      -0.00829876       0.01952264
Pt       2.80721394      -0.00000020      19.95723457        4      -0.00209536      -0.00929167       0.02011735
Pt       5.61442787      -0.00000008      19.95723465        4      -0.00000077       0.00000969       0.01755305
Pt       1.40360721       2.43111841      19.95723445        4       0.00000251       0.00000684       0.02220806
Pt       4.21082082       2.43111837      19.95723453        4       0.00642808       0.00545168       0.01953260
Pt       7.01803480       2.43111844      19.95723439        4      -0.00698945       0.00646118       0.02005898
Pt       2.80721416       4.86223734      19.95723425        4       0.00908293       0.00283336       0.02009765
Pt       5.61442796       4.86223739      19.95723443        4      -0.00000878      -0.00001592      -0.06919391
Pt       8.42164143       4.86223725      19.95723447        4      -0.00793963       0.00285180       0.01958674
Pt       1.40360729       0.81037262      22.29206795        3       0.00574009      -0.00193459      -0.06338160
Pt       4.21082131       0.81037249      22.29206793        3       0.00455269       0.00208214      -0.02838363
Pt       7.01803470       0.81037255      22.29206785        3      -0.00054154      -0.00499681      -0.02841882
Pt       2.80721448       3.24149122      22.29206774        3      -0.00113572       0.00599984      -0.06317692
Pt       5.61442764       3.24149121      22.29206791        3      -0.00138521       0.06275054      -0.11447029
Pt       8.42164154       3.24149129      22.29206806        3      -0.00457607      -0.00399089      -0.06318125
Pt       4.21082091       5.67260997      22.29206741        3       0.05505859      -0.03018967      -0.11442636
Pt       7.01803487       5.67261038      22.29206779        3      -0.05366044      -0.03252095      -0.11440288
Pt       9.82524821       5.67261068      22.29206808        3      -0.00398644       0.00294661      -0.02819114
Pt      -0.00000053       1.62074567      24.58417372        2      -0.00582047       0.00049865      -0.03973987
Pt       2.80721436       1.62074552      24.58417391        2       0.00215058      -0.00541914      -0.03980241
Pt       5.61442781       1.62074537      24.58417374        2       0.00191777      -0.27270922       0.34057361
Pt       1.40360639       4.05186438      24.58417385        2       0.00349489       0.00449998      -0.04007752
Pt       4.21082087       4.05186396      24.58417384        2       0.04153410       0.02367772      -0.12957169
Pt       7.01803504       4.05186408      24.58417403        2      -0.04128837       0.02398410      -0.12945516
Pt       2.80721276       6.48298348      24.58417381        2      -0.23712081       0.13476273       0.34082767
Pt       5.61442804       6.48298329      24.58417396        2      -0.00031613      -0.04772287      -0.12918217
Pt       8.42164223       6.48298338      24.58417376        2       0.23533037       0.13819866       0.34111688
Pt       0.03081722      -0.00226726      26.90057486        1      -0.01004371      -0.00041299      -0.00366449
Pt       2.77563135      -0.00142749      26.89950970        1       0.01083591      -0.00288046      -0.00494753
Pt       5.61437025      -0.00011367      27.06841524        1       0.00028532       0.00058381      -0.01477333
Pt       1.40356589       2.43100861      26.91542513        1       0.00005222       0.00017529       0.00905237
Pt       4.19724159       2.45884718      26.90048987        1       0.00557608      -0.00841855      -0.00341929
Pt       7.03267371       2.45910817      26.89944840        1      -0.00819391      -0.00814748      -0.00472429
Pt       2.82407690       4.83552422      26.89939852        1      -0.00271514       0.01087644      -0.00464653
Pt       5.61437896       4.86215791      26.92445349        1       0.00006809       0.00007582       0.00753363
Pt       8.40433245       4.83662812      26.90050983        1       0.00439151       0.00866014      -0.00336064
O        5.61481049       0.00077139      30.08159003        0       0.00011142       0.00025145       0.01059132
C        5.61469717       0.00055941      28.91916221        0      -0.00031493      -0.00068847       0.02621901
