38
Lattice="8.421641763931781 0.0 0.0 4.2108208819658905 7.293355709136913 0.0 0.0 0.0 46.87624170604845" Properties=species:S:1:pos:R:3:tags:I:1:forces:R:3 charge=0 spin=0 energy=-202.9122333490919 free_energy=-202.9122333490919 stress="0.009914897382259369 9.20273457438725e-09 8.600755663223936e-09 9.20273457438725e-09 0.009914916008710861 3.6182456142341834e-08 8.600755663223936e-09 3.6182456142341834e-08 -0.0004492473672144115" pbc="T T T"
Pt      -0.00000010      -0.00000005      19.95723451        4      -0.00268337       0.00254250       0.01324430
Pt       2.80721394      -0.00000020      19.95723457        4      -0.01509575      -0.00889214       0.01064278
Pt       5.61442787      -0.00000008      19.95723465        4       0.01520990      -0.00863649       0.01065190
Pt       1.40360721       2.43111841      19.95723445        4       0.00092625      -0.00032709       0.01693632
Pt       4.21082082       2.43111837      19.95723453        4      -0.00011242       0.01753459       0.01061891
Pt       7.01803480       2.43111844      19.95723439        4      -0.00073070      -0.00061872       0.01699739
Pt       2.80721416       4.86223734      19.95723425        4      -0.00088762      -0.00359234       0.01322223
Pt       5.61442796       4.86223739      19.95723443        4       0.00356608       0.00104404       0.01326428
Pt       8.42164143       4.86223725      19.95723447        4      -0.00019213       0.00094450       0.01699007
Pt       1.40360729       0.81037262      22.29206795        3       0.03378991      -0.01058879      -0.06688151
Pt       4.21082131       0.81037249      22.29206793        3      -0.00000073       0.00000431      -0.28188965
Pt       7.01803470       0.81037255      22.29206785        3      -0.03930302      -0.00577138      -0.06577921
Pt       2.80721448       3.24149122      22.29206774        3       0.02466704      -0.03124762      -0.06582259
Pt       5.61442764       3.24149121      22.29206791        3      -0.02601859      -0.02403649      -0.06692456
Pt       8.42164154       3.24149129      22.29206806        3       0.00000366      -0.00000038      -0.00723339
Pt       4.21082091       5.67260997      22.29206741        3      -0.00000399       0.00000229      -0.07232298
Pt       7.01803487       5.67261038      22.29206779        3       0.01462619       0.03702004      -0.06583358
Pt       9.82524821       5.67261068      22.29206808        3      -0.00776073       0.03461558      -0.06683311
Pt      -0.00000053       1.62074567      24.58417372        2       0.00058414       0.07583442       0.14731586
Pt       2.80721436       1.62074552      24.58417391        2      -0.09374163       0.05536736       0.13137816
Pt       5.61442781       1.62074537      24.58417374        2       0.09472001       0.05344958       0.13140668
Pt       1.40360639       4.05186438      24.58417385        2      -0.06596565      -0.03740640       0.14743306
Pt       4.21082087       4.05186396      24.58417384        2       0.00295065      -0.02852146      -0.08111673
Pt       7.01803504       4.05186408      24.58417403        2       0.06541625      -0.03840256       0.14738876
Pt       2.80721276       6.48298348      24.58417381        2      -0.02618472       0.01156596      -0.08120538
Pt       5.61442804       6.48298329      24.58417396        2       0.02322249       0.01691312      -0.08128762
Pt       8.42164223       6.48298338      24.58417376        2      -0.00100069      -0.10879695       0.13135873
Pt       0.00060076      -0.01796706      26.89432693        1       0.00197283      -0.03844832       0.01697093
Pt       2.80558599      -0.00145825      26.90726242        1       0.02674733       0.01730646      -0.00430139
Pt       5.61653207      -0.00068584      26.90727481        1      -0.02845345       0.01451316      -0.00432741
Pt       1.42622296       2.42065954      27.01639344        1       0.01917425      -0.01402974       0.00065543
Pt       4.21036573       2.43327286      26.90728928        1       0.00164048      -0.03185906      -0.00436935
Pt       6.99765542       2.41676273      27.01638813        1      -0.02167882      -0.00956648       0.00069070
Pt       2.82247927       4.87173245      26.89435318        1       0.03229297       0.02096876       0.01688080
Pt       5.59855567       4.87070862      26.89433381        1      -0.03422514       0.01750210       0.01694973
Pt       8.41939398       4.88705840      27.01638982        1       0.00253894       0.02361264       0.00066621
O        8.42163821       3.24149241      29.54615919        0      -0.00001147      -0.00000265       0.00903899
C        8.42163678       3.24149181      28.34499872        0       0.00000146       0.00000376      -0.00457393
