38
Lattice="8.421641763931781 0.0 0.0 4.2108208819658905 7.293355709136913 0.0 0.0 0.0 46.87624170604845" Properties=species:S:1:pos:R:3:tags:I:1:forces:R:3 charge=0 spin=0 energy=-202.8864936792921 free_energy=-202.8864936792921 stress="0.009958181530237198 -2.1109075376557485e-08 3.6704088657302236e-09 -2.1109075376557485e-08 0.00995820015668869 -1.7631165860620968e-08 3.6704088657302236e-09 -1.7631165860620968e-08 -0.00038505427073687315" pbc="T T T"
Pt      -0.00000010      -0.00000005      19.95723451        4      -0.00156301      -0.00291606       0.01088366
Pt       2.80721394      -0.00000020      19.95723457        4      -0.00029987      -0.00294034       0.02368940
Pt       5.61442787      -0.00000008      19.95723465        4       0.00333669       0.00013638       0.01094238
Pt       1.40360721       2.43111841      19.95723445        4      -0.00243070       0.00176088       0.02365064
Pt       4.21082082       2.43111837      19.95723453        4       0.00273270       0.00118441       0.02364697
Pt       7.01803480       2.43111844      19.95723439        4       0.00065150      -0.01597442       0.00951795
Pt       2.80721416       4.86223734      19.95723425        4      -0.00177772       0.00278241       0.01090697
Pt       5.61442796       4.86223739      19.95723443        4      -0.01416555       0.00740085       0.00951119
Pt       8.42164143       4.86223725      19.95723447        4       0.01351630       0.00856595       0.00957430
Pt       1.40360729       0.81037262      22.29206795        3      -0.00877238      -0.00936219      -0.02549884
Pt       4.21082131       0.81037249      22.29206793        3       0.01250870      -0.00290139      -0.02553982
Pt       7.01803470       0.81037255      22.29206785        3      -0.00155327       0.02401350      -0.06225938
Pt       2.80721448       3.24149122      22.29206774        3      -0.00374535       0.01227491      -0.02538726
Pt       5.61442764       3.24149121      22.29206791        3       0.05184924       0.03212886      -0.15794472
Pt       8.42164154       3.24149129      22.29206806        3      -0.05378892       0.02891418      -0.15789662
Pt       4.21082091       5.67260997      22.29206741        3       0.02151077      -0.01072817      -0.06213210
Pt       7.01803487       5.67261038      22.29206779        3       0.00194418      -0.06104619      -0.15793572
Pt       9.82524821       5.67261068      22.29206808        3      -0.01995048      -0.01329294      -0.06213697
Pt      -0.00000053       1.62074567      24.58417372        2       0.00976204      -0.09802745       0.11567666
Pt       2.80721436       1.62074552      24.58417391        2      -0.00000352      -0.00000506      -0.01335554
Pt       5.61442781       1.62074537      24.58417374        2      -0.00941294      -0.10369302       0.11787276
Pt       1.40360639       4.05186438      24.58417385        2       0.09446515       0.04356905       0.11799081
Pt       4.21082087       4.05186396      24.58417384        2      -0.08973953       0.04043806       0.11567059
Pt       7.01803504       4.05186408      24.58417403        2      -0.00000238       0.00001093      -0.24438737
Pt       2.80721276       6.48298348      24.58417381        2       0.00000999      -0.00000878       0.13880377
Pt       5.61442804       6.48298329      24.58417396        2      -0.08505483       0.06012840       0.11807022
Pt       8.42164223       6.48298338      24.58417376        2       0.07997140       0.05758428       0.11584533
Pt       0.01512117       0.00926510      27.01825568        1      -0.00273241      -0.00092949      -0.00012393
Pt       2.80828860       0.00206375      26.90917382        1      -0.00071483       0.00485859      -0.00076529
Pt       5.59884514       0.00845978      27.01825773        1       0.00216556      -0.00189252      -0.00012496
Pt       1.40485938       2.42915779      26.90916558        1       0.00455936      -0.00181663      -0.00074292
Pt       4.20849345       2.43101232      26.90916772        1      -0.00384243      -0.00303426      -0.00074892
Pt       7.01708119       2.45482968      26.89509227        1       0.00060014      -0.00788577       0.01007304
Pt       2.80767758       4.84451034      27.01825638        1       0.00056196       0.00282202      -0.00013230
Pt       5.63543681       4.85120666      26.89509805        1      -0.00712620       0.00341798       0.01005243
Pt       8.40158075       4.84955740      26.89510230        1       0.00653445       0.00446127       0.01004323
O       11.22886026       6.48298188      29.55867561        0      -0.00000234       0.00000285      -0.00937625
C       11.22885815       6.48298277      28.35819487        0      -0.00000135      -0.00000095       0.00406670
