38
Lattice="8.421641763931781 0.0 0.0 4.2108208819658905 7.293355709136913 0.0 0.0 0.0 46.87624170604845" Properties=species:S:1:pos:R:3:tags:I:1:forces:R:3 charge=0 spin=0 energy=-202.81927489877452 free_energy=-202.81927489877452 stress="0.00958140566945076 -7.763373588431932e-08 1.732041283730723e-07 -7.763373588431932e-08 0.009581508114933968 -1.901629218536982e-07 1.732041283730723e-07 -1.901629218536982e-07 -0.000388615793781355" pbc="T T T"
Pt      -0.00000010      -0.00000005      19.95723451        4      -0.00209442      -0.00929204       0.02010891
Pt       2.80721394      -0.00000020      19.95723457        4       0.00000359       0.00000337       0.01755330
Pt       5.61442787      -0.00000008      19.95723465        4       0.00151785      -0.00829943       0.01951377
Pt       1.40360721       2.43111841      19.95723445        4       0.00643057       0.00545161       0.01954297
Pt       4.21082082       2.43111837      19.95723453        4      -0.00698839       0.00646039       0.02006636
Pt       7.01803480       2.43111844      19.95723439        4       0.00000440      -0.00000655       0.02220766
Pt       2.80721416       4.86223734      19.95723425        4      -0.00001093       0.00000901      -0.06918357
Pt       5.61442796       4.86223739      19.95723443        4      -0.00794356       0.00284320       0.01958464
Pt       8.42164143       4.86223725      19.95723447        4       0.00908927       0.00282996       0.02008964
Pt       1.40360729       0.81037262      22.29206795        3       0.00456396       0.00205378      -0.02837465
Pt       4.21082131       0.81037249      22.29206793        3      -0.00054100      -0.00501445      -0.02841176
Pt       7.01803470       0.81037255      22.29206785        3       0.00574533      -0.00196696      -0.06338774
Pt       2.80721448       3.24149122      22.29206774        3      -0.00138656       0.06274036      -0.11442462
Pt       5.61442764       3.24149121      22.29206791        3      -0.00457205      -0.00401964      -0.06317781
Pt       8.42164154       3.24149129      22.29206806        3      -0.00112344       0.00596883      -0.06317341
Pt       4.21082091       5.67260997      22.29206741        3      -0.05365233      -0.03254642      -0.11440516
Pt       7.01803487       5.67261038      22.29206779        3      -0.00399539       0.00292254      -0.02820152
Pt       9.82524821       5.67261068      22.29206808        3       0.05506771      -0.03022498      -0.11447969
Pt      -0.00000053       1.62074567      24.58417372        2       0.00209595      -0.00531541      -0.03980077
Pt       2.80721436       1.62074552      24.58417391        2       0.00190932      -0.27299017       0.34096828
Pt       5.61442781       1.62074537      24.58417374        2      -0.00581064       0.00060367      -0.03973422
Pt       1.40360639       4.05186438      24.58417385        2       0.04156848       0.02370858      -0.12958892
Pt       4.21082087       4.05186396      24.58417384        2      -0.04132953       0.02403713      -0.12948518
Pt       7.01803504       4.05186408      24.58417403        2       0.00347027       0.00467471      -0.04006899
Pt       2.80721276       6.48298348      24.58417381        2      -0.00029476      -0.04761356      -0.12913212
Pt       5.61442804       6.48298329      24.58417396        2       0.23517616       0.13823597       0.34094816
Pt       8.42164223       6.48298338      24.58417376        2      -0.23695363       0.13477573       0.34062266
Pt      -0.03159386      -0.00128154      26.89951890        1       0.01081982      -0.00304628      -0.00496682
Pt       2.80713100       0.00006914      27.06841411        1       0.00040944      -0.00034022      -0.01480865
Pt       5.64524892      -0.00212072      26.90058490        1      -0.01013317      -0.00057719      -0.00371335
Pt       1.39006103       2.45888704      26.90049524        1       0.00537980      -0.00815791      -0.00337378
Pt       4.22539096       2.45916273      26.89945441        1      -0.00797062      -0.00795729      -0.00469606
Pt       7.01797153       2.43116159      26.91542440        1       0.00007199      -0.00002984       0.00905462
Pt       2.80714414       4.86230626      26.92445209        1       0.00009573      -0.00011369       0.00753929
Pt       5.59704625       4.83669157      26.90049972        1       0.00461654       0.00882438      -0.00337817
Pt       8.43854618       4.83557199      26.89938892        1      -0.00293369       0.01111308      -0.00467728
O        2.80775516      -0.00046332      30.08159110        0       0.00016860      -0.00014487       0.01040981
C        2.80760224      -0.00032953      28.91916164        0      -0.00047058       0.00040068       0.02643436
