38
Lattice="8.421641763931781 0.0 0.0 4.2108208819658905 7.293355709136913 0.0 0.0 0.0 46.87624170604845" Properties=species:S:1:pos:R:3:tags:I:1:forces:R:3 charge=0 spin=0 energy=-202.88632106424083 free_energy=-202.88632106424083 stress="0.010008854791522026 -2.0200586092755657e-08 2.150956357471756e-10 -2.0200586092755657e-08 0.010008876211941242 -9.529836475508091e-09 2.150956357471756e-10 -9.529836475508091e-09 -0.00029506406281143427" pbc="T T T"
Pt      -0.00000010      -0.00000005      19.95723451        4      -0.00024855      -0.00297260       0.02375702
Pt       2.80721394      -0.00000020      19.95723457        4       0.00328862       0.00013695       0.01103436
Pt       5.61442787      -0.00000008      19.95723465        4      -0.00153761      -0.00287524       0.01097732
Pt       1.40360721       2.43111841      19.95723445        4       0.00273248       0.00124852       0.02371684
Pt       4.21082082       2.43111837      19.95723453        4       0.00064672      -0.01587890       0.00966130
Pt       7.01803480       2.43111844      19.95723439        4      -0.00248593       0.00172916       0.02371906
Pt       2.80721416       4.86223734      19.95723425        4      -0.01408201       0.00736049       0.00966484
Pt       5.61442796       4.86223739      19.95723443        4       0.01343444       0.00851017       0.00971471
Pt       8.42164143       4.86223725      19.95723447        4      -0.00174789       0.00274118       0.01099098
Pt       1.40360729       0.81037262      22.29206795        3       0.01247134      -0.00294517      -0.02605531
Pt       4.21082131       0.81037249      22.29206793        3      -0.00156644       0.02371760      -0.06257324
Pt       7.01803470       0.81037255      22.29206785        3      -0.00878827      -0.00931040      -0.02602122
Pt       2.80721448       3.24149122      22.29206774        3       0.05155347       0.03178819      -0.15754217
Pt       5.61442764       3.24149121      22.29206791        3      -0.05334898       0.02883798      -0.15749164
Pt       8.42164154       3.24149129      22.29206806        3      -0.00368205       0.01226029      -0.02590579
Pt       4.21082091       5.67260997      22.29206741        3       0.00178773      -0.06061990      -0.15751942
Pt       7.01803487       5.67261038      22.29206779        3      -0.01969794      -0.01314559      -0.06244786
Pt       9.82524821       5.67261068      22.29206808        3       0.02127004      -0.01057873      -0.06246476
Pt      -0.00000053       1.62074567      24.58417372        2       0.00000403      -0.00000113       0.00365694
Pt       2.80721436       1.62074552      24.58417391        2      -0.00960000      -0.10170034       0.12923323
Pt       5.61442781       1.62074537      24.58417374        2       0.01010130      -0.09517459       0.12690024
Pt       1.40360639       4.05186438      24.58417385        2      -0.08744647       0.03871041       0.12688975
Pt       4.21082087       4.05186396      24.58417384        2       0.00000004       0.00000412      -0.23093762
Pt       7.01803504       4.05186408      24.58417403        2       0.09283105       0.04240706       0.12934555
Pt       2.80721276       6.48298348      24.58417381        2      -0.08322282       0.05928714       0.12941761
Pt       5.61442804       6.48298329      24.58417396        2       0.07734134       0.05646585       0.12704116
Pt       8.42164223       6.48298338      24.58417376        2      -0.00000652      -0.00000563       0.14670371
Pt       0.00034668       0.00154758      26.91395075        1       0.00140724       0.00884165      -0.01662580
Pt       2.79023306       0.00809028      27.01984385        1       0.01089721      -0.00336717      -0.00532443
Pt       5.62992689       0.01065997      27.01984367        1      -0.00837218      -0.00775648      -0.00532210
Pt       1.40209221       2.43064415      26.91395107        1      -0.00836006      -0.00320373      -0.01662913
Pt       4.20975607       2.45590793      26.89887741        1       0.00087171      -0.01390027      -0.00274355
Pt       7.01920276       2.43004355      26.91394993        1       0.00695465      -0.00563825      -0.01662307
Pt       2.82921628       4.85076273      26.89887700        1      -0.01247842       0.00619923      -0.00273861
Pt       5.59349113       4.84891842      26.89887591        1       0.01160490       0.00770774      -0.00273750
Pt       8.42312478       4.84348475      27.01984505        1      -0.00252609       0.01112461      -0.00532695
O        8.42164260       6.48298590      29.55952820        0       0.00000016      -0.00000219      -0.01331199
C        8.42164247       6.48298457      28.35899273        0      -0.00000019      -0.00000208       0.00391732
