38
Lattice="8.421641763931781 0.0 0.0 4.2108208819658905 7.293355709136913 0.0 0.0 0.0 46.87624170604845" Properties=species:S:1:pos:R:3:tags:I:1:forces:R:3 charge=0 spin=0 energy=-202.88563441873302 free_energy=-202.88563441873302 stress="0.01002596691250801 -2.1064083810529155e-08 4.4213934735637395e-09 -2.1064083810529155e-08 0.010025981813669205 -1.3045366564767846e-08 4.4213934735637395e-09 -1.3045366564767846e-08 -0.0002533206425141543" pbc="T T T"
Pt      -0.00000010      -0.00000005      19.95723451        4      -0.00174686       0.00237367       0.01088362
Pt       2.80721394      -0.00000020      19.95723457        4      -0.01414296       0.00739416       0.00972351
Pt       5.61442787      -0.00000008      19.95723465        4       0.01348860       0.00855791       0.00978292
Pt       1.40360721       2.43111841      19.95723445        4      -0.00121556      -0.00268381       0.01087701
Pt       4.21082082       2.43111837      19.95723453        4      -0.00025431      -0.00273317       0.02368617
Pt       7.01803480       2.43111844      19.95723439        4       0.00296086       0.00031520       0.01093453
Pt       2.80721416       4.86223734      19.95723425        4      -0.00227101       0.00161246       0.02364896
Pt       5.61442796       4.86223739      19.95723443        4       0.00252515       0.00111253       0.02363681
Pt       8.42164143       4.86223725      19.95723447        4       0.00065683      -0.01594904       0.00972731
Pt       1.40360729       0.81037262      22.29206795        3       0.02126257      -0.01055434      -0.06405079
Pt       4.21082131       0.81037249      22.29206793        3       0.00170172      -0.06045567      -0.15735453
Pt       7.01803470       0.81037255      22.29206785        3      -0.01968452      -0.01315331      -0.06404148
Pt       2.80721448       3.24149122      22.29206774        3      -0.00899643      -0.00935043      -0.02487298
Pt       5.61442764       3.24149121      22.29206791        3       0.01261249      -0.00310119      -0.02490521
Pt       8.42164154       3.24149129      22.29206806        3      -0.00157330       0.02371089      -0.06416056
Pt       4.21082091       5.67260997      22.29206741        3      -0.00362449       0.01245729      -0.02474551
Pt       7.01803487       5.67261038      22.29206779        3       0.05146005       0.03162591      -0.15736115
Pt       9.82524821       5.67261068      22.29206808        3      -0.05315523       0.02882239      -0.15732066
Pt      -0.00000053       1.62074567      24.58417372        2      -0.00000032       0.00000291       0.13736409
Pt       2.80721436       1.62074552      24.58417391        2      -0.07809770       0.05617686       0.13056268
Pt       5.61442781       1.62074537      24.58417374        2       0.07197961       0.05318466       0.12816133
Pt       1.40360639       4.05186438      24.58417385        2       0.00993603      -0.08888793       0.12798901
Pt       4.21082087       4.05186396      24.58417384        2       0.00000452      -0.00000071      -0.01225618
Pt       7.01803504       4.05186408      24.58417403        2      -0.00946870      -0.09568860       0.13038260
Pt       2.80721276       6.48298348      24.58417381        2       0.08757138       0.03950759       0.13047093
Pt       5.61442804       6.48298329      24.58417396        2      -0.08191852       0.03570596       0.12798512
Pt       8.42164223       6.48298338      24.58417376        2      -0.00001119      -0.00000511      -0.20295523
Pt       0.00148540      -0.01863862      27.01581981        1      -0.00246119       0.02900238       0.02586227
Pt       2.82521576      -0.00880361      26.90097499        1       0.02580799      -0.01671873      -0.01858019
Pt       5.59780010      -0.01119148      26.90097307        1      -0.02738203      -0.01396344      -0.01857253
Pt       1.41900689       2.44172332      27.01582540        1      -0.02387892      -0.01662313       0.02583787
Pt       4.21142428       2.43915573      26.91493422        1       0.00031872      -0.03457826      -0.01562725
Pt       7.00115402       2.43914965      27.01582980        1       0.02630960      -0.01235492       0.02582067
Pt       2.81386943       4.85769724      26.91492302        1      -0.03009010       0.01700900      -0.01559065
Pt       5.60716345       4.85874315      26.91493118        1       0.02979881       0.01753511      -0.01561482
Pt       8.42026128       4.88223069      26.90097401        1       0.00158190       0.03069633      -0.01857981
O        8.42164606       1.62074235      29.56202521        0       0.00000111      -0.00000706      -0.03934659
C        8.42164538       1.62074289      28.36171285        0      -0.00000461       0.00000582      -0.02740128
