38
Lattice="8.421641763931781 0.0 0.0 4.2108208819658905 7.293355709136913 0.0 0.0 0.0 46.87624170604845" Properties=species:S:1:pos:R:3:tags:I:1:forces:R:3 charge=0 spin=0 energy=-202.88632011056652 free_energy=-202.88632011056652 stress="0.010008832439780235 -1.9716594579222146e-08 2.9211608687518265e-09 -1.9716594579222146e-08 0.01000884734094143 -1.0568474984040677e-08 2.9211608687518265e-09 -1.0568474984040677e-08 -0.0002949752670247108" pbc="T T T"
Pt      -0.00000010      -0.00000005      19.95723451        4       0.00273109       0.00124987       0.02371240
Pt       2.80721394      -0.00000020      19.95723457        4       0.00064468      -0.01587559       0.00965966
Pt       5.61442787      -0.00000008      19.95723465        4      -0.00248491       0.00173243       0.02371652
Pt       1.40360721       2.43111841      19.95723445        4      -0.01407915       0.00736603       0.00965964
Pt       4.21082082       2.43111837      19.95723453        4       0.01343620       0.00851435       0.00971865
Pt       7.01803480       2.43111844      19.95723439        4      -0.00175204       0.00274413       0.01099287
Pt       2.80721416       4.86223734      19.95723425        4      -0.00025066      -0.00297916       0.02376645
Pt       5.61442796       4.86223739      19.95723443        4       0.00328896       0.00012947       0.01103245
Pt       8.42164143       4.86223725      19.95723447        4      -0.00153428      -0.00288135       0.01097828
Pt       1.40360729       0.81037262      22.29206795        3       0.05155911       0.03178569      -0.15753953
Pt       4.21082131       0.81037249      22.29206793        3      -0.05335218       0.02884283      -0.15749407
Pt       7.01803470       0.81037255      22.29206785        3      -0.00368609       0.01226085      -0.02590572
Pt       2.80721448       3.24149122      22.29206774        3       0.00178548      -0.06061786      -0.15753846
Pt       5.61442764       3.24149121      22.29206791        3      -0.01969215      -0.01314219      -0.06245090
Pt       8.42164154       3.24149129      22.29206806        3       0.02126464      -0.01056707      -0.06246401
Pt       4.21082091       5.67260997      22.29206741        3       0.01246895      -0.00294548      -0.02603937
Pt       7.01803487       5.67261038      22.29206779        3      -0.00156892       0.02370922      -0.06256863
Pt       9.82524821       5.67261068      22.29206808        3      -0.00877898      -0.00932187      -0.02602241
Pt      -0.00000053       1.62074567      24.58417372        2      -0.08744700       0.03870865       0.12689064
Pt       2.80721436       1.62074552      24.58417391        2      -0.00000428      -0.00000034      -0.23093039
Pt       5.61442781       1.62074537      24.58417374        2       0.09283210       0.04240905       0.12934586
Pt       1.40360639       4.05186438      24.58417385        2      -0.08322999       0.05929603       0.12942050
Pt       4.21082087       4.05186396      24.58417384        2       0.07734578       0.05647521       0.12703992
Pt       7.01803504       4.05186408      24.58417403        2      -0.00000277       0.00000166       0.14670120
Pt       2.80721276       6.48298348      24.58417381        2       0.00001285      -0.00000964       0.00364827
Pt       5.61442804       6.48298329      24.58417396        2      -0.00960073      -0.10170483       0.12922688
Pt       8.42164223       6.48298338      24.58417376        2       0.01009587      -0.09518412       0.12690090
Pt      -0.00151577      -0.00047485      26.91395012        1      -0.00835449      -0.00320381      -0.01662313
Pt       2.80614946       0.02478885      26.89887737        1       0.00087023      -0.01389808      -0.00274414
Pt       5.61559619      -0.00107519      26.91395000        1       0.00695005      -0.00563797      -0.01662018
Pt       1.42560919       2.41964383      26.89887721        1      -0.01247413       0.00619746      -0.00274386
Pt       4.18988463       2.41779970      26.89887616        1       0.01160136       0.00770707      -0.00273725
Pt       7.01951796       2.41236511      27.01984599        1      -0.00252831       0.01112096      -0.00533245
Pt       2.80756056       4.86378543      26.91395022        1       0.00140824       0.00883835      -0.01662576
Pt       5.59744647       4.87032761      27.01984449        1       0.01089357      -0.00336401      -0.00533333
Pt       8.43714108       4.87289733      27.01984423        1      -0.00836821      -0.00775117      -0.00533027
O        7.01803592       4.05186751      29.55952725        0      -0.00000050      -0.00000339      -0.01357513
C        7.01803549       4.05186560      28.35898728        0       0.00000035      -0.00000122       0.00420773
