38
Lattice="8.421641763931781 0.0 0.0 4.2108208819658905 7.293355709136913 0.0 0.0 0.0 46.87624170604845" Properties=species:S:1:pos:R:3:tags:I:1:forces:R:3 charge=0 spin=0 energy=-202.91268252969493 free_energy=-202.91268252969493 stress="0.009917954914271832 7.556290704258117e-09 1.7868211077409768e-10 7.556290704258117e-09 0.009917967952787876 3.908893830839588e-08 1.7868211077409768e-10 3.908893830839588e-08 -0.0004363547486718744" pbc="T T T"
Pt      -0.00000010      -0.00000005      19.95723451        4      -0.00086916      -0.00082215       0.01723765
Pt       2.80721394      -0.00000020      19.95723457        4       0.00117408      -0.00034306       0.01717926
Pt       5.61442787      -0.00000008      19.95723465        4      -0.00011353       0.01755067       0.01072141
Pt       1.40360721       2.43111841      19.95723445        4      -0.00030653       0.00117369       0.01723661
Pt       4.21082082       2.43111837      19.95723453        4      -0.00100708      -0.00366122       0.01329131
Pt       7.01803480       2.43111844      19.95723439        4       0.00368934       0.00097796       0.01334290
Pt       2.80721416       4.86223734      19.95723425        4       0.01521796      -0.00865050       0.01076257
Pt       5.61442796       4.86223739      19.95723443        4      -0.00268089       0.00267798       0.01331731
Pt       8.42164143       4.86223725      19.95723447        4      -0.01510399      -0.00890375       0.01074696
Pt       1.40360729       0.81037262      22.29206795        3      -0.00000112       0.00000084      -0.00960499
Pt       4.21082131       0.81037249      22.29206793        3       0.02397927      -0.03095569      -0.06543016
Pt       7.01803470       0.81037255      22.29206785        3      -0.02549575      -0.02363732      -0.06682552
Pt       2.80721448       3.24149122      22.29206774        3      -0.00769603       0.03397429      -0.06673725
Pt       5.61442764       3.24149121      22.29206791        3       0.00000135       0.00000082      -0.07411752
Pt       8.42164154       3.24149129      22.29206806        3       0.01472886       0.03627722      -0.06543286
Pt       4.21082091       5.67260997      22.29206741        3      -0.03871079      -0.00531491      -0.06536150
Pt       7.01803487       5.67261038      22.29206779        3       0.03318084      -0.01033508      -0.06678312
Pt       9.82524821       5.67261068      22.29206808        3       0.00000859      -0.00001076      -0.28143778
Pt      -0.00000053       1.62074567      24.58417372        2       0.06132648      -0.03575069       0.15462920
Pt       2.80721436       1.62074552      24.58417391        2      -0.06163443      -0.03519506       0.15467843
Pt       5.61442781       1.62074537      24.58417374        2       0.00228961      -0.02609260      -0.06615668
Pt       1.40360639       4.05186438      24.58417385        2      -0.00141668      -0.10812170       0.12025833
Pt       4.21082087       4.05186396      24.58417384        2      -0.02374859       0.01098084      -0.06625368
Pt       7.01803504       4.05186408      24.58417403        2       0.02146409       0.01510923      -0.06630661
Pt       2.80721276       6.48298348      24.58417381        2       0.09437551       0.05275142       0.12029142
Pt       5.61442804       6.48298329      24.58417396        2       0.00032164       0.07094941       0.15456095
Pt       8.42164223       6.48298338      24.58417376        2      -0.09297082       0.05536918       0.12028822
Pt      -0.02400943      -0.01592042      27.01570229        1       0.00651092       0.00373405      -0.00287859
Pt       2.83299754      -0.01282463      27.01570423        1      -0.00644763       0.00374647      -0.00289470
Pt       5.61387735      -0.00338539      26.90698555        1       0.00083549       0.00590158       0.00030153
Pt       1.40182245       2.45986585      27.01570392        1      -0.00001604      -0.00747899      -0.00288564
Pt       4.22685530       2.44199897      26.89884945        1       0.02960206       0.01575981      -0.00265398
Pt       7.00060388       2.43955876      26.89885121        1      -0.02847701       0.01776950      -0.00265858
Pt       2.80455439       4.86439948      26.90696988        1       0.00469924      -0.00364774       0.00034620
Pt       5.61584368       4.84291778      26.89883903        1      -0.00118118      -0.03353402      -0.00262434
Pt       8.42484961       4.86346258      26.90697788        1      -0.00552275      -0.00224849       0.00032254
O        1.40360452       0.81037437      29.53989837        0      -0.00000585      -0.00000253       0.01431589
C        1.40360342       0.81037308      28.33849686        0       0.00000073       0.00000144       0.01321463
