38
Lattice="8.421641763931781 0.0 0.0 4.2108208819658905 7.293355709136913 0.0 0.0 0.0 46.87624170604845" Properties=species:S:1:pos:R:3:tags:I:1:forces:R:3 charge=0 spin=0 energy=-202.81933879495372 free_energy=-202.81933879495372 stress="0.00962596945464611 -9.396975286790621e-08 2.6234767691590832e-09 -9.396975286790621e-08 0.009625976905226707 -8.043694066373064e-08 2.6234767691590832e-09 -8.043694066373064e-08 -0.00028533657314255834" pbc="T T T"
Pt      -0.00000010      -0.00000005      19.95723451        4      -0.00000034       0.00000338      -0.06862047
Pt       2.80721394      -0.00000020      19.95723457        4      -0.00790622       0.00284959       0.01954422
Pt       5.61442787      -0.00000008      19.95723465        4       0.00898015       0.00287409       0.02010539
Pt       1.40360721       2.43111841      19.95723445        4      -0.00200767      -0.00921980       0.02012645
Pt       4.21082082       2.43111837      19.95723453        4       0.00000198      -0.00000030       0.01772160
Pt       7.01803480       2.43111844      19.95723439        4       0.00149926      -0.00827057       0.01948551
Pt       2.80721416       4.86223734      19.95723425        4       0.00640327       0.00542003       0.01950843
Pt       5.61442796       4.86223739      19.95723443        4      -0.00697215       0.00634703       0.02007109
Pt       8.42164143       4.86223725      19.95723447        4       0.00000328      -0.00000356       0.02240323
Pt       1.40360729       0.81037262      22.29206795        3      -0.05327291      -0.03236231      -0.11476275
Pt       4.21082131       0.81037249      22.29206793        3      -0.00413819       0.00290611      -0.02812519
Pt       7.01803470       0.81037255      22.29206785        3       0.05471633      -0.02994749      -0.11478157
Pt       2.80721448       3.24149122      22.29206774        3       0.00457543       0.00220615      -0.02834899
Pt       5.61442764       3.24149121      22.29206791        3      -0.00044696      -0.00510961      -0.02838069
Pt       8.42164154       3.24149129      22.29206806        3       0.00584052      -0.00201689      -0.06332304
Pt       4.21082091       5.67260997      22.29206741        3      -0.00144499       0.06231723      -0.11476229
Pt       7.01803487       5.67261038      22.29206779        3      -0.00469715      -0.00407979      -0.06309133
Pt       9.82524821       5.67261068      22.29206808        3      -0.00112912       0.00608156      -0.06308105
Pt      -0.00000053       1.62074567      24.58417372        2      -0.00035858      -0.04598214      -0.12027480
Pt       2.80721436       1.62074552      24.58417391        2       0.23807766       0.13949770       0.35025543
Pt       5.61442781       1.62074537      24.58417374        2      -0.23976856       0.13654831       0.35022321
Pt       1.40360639       4.05186438      24.58417385        2      -0.00074485      -0.00450492      -0.02866616
Pt       4.21082087       4.05186396      24.58417384        2       0.00171982      -0.27601293       0.35026336
Pt       7.01803504       4.05186408      24.58417403        2      -0.00361774       0.00281671      -0.02862159
Pt       2.80721276       6.48298348      24.58417381        2       0.04008217       0.02275776      -0.12052872
Pt       5.61442804       6.48298329      24.58417396        2      -0.03972067       0.02317148      -0.12043273
Pt       8.42164223       6.48298338      24.58417376        2       0.00432431       0.00169351      -0.02886451
Pt      -0.00000690      -0.00000340      26.92583425        1       0.00001783       0.00001530       0.00055352
Pt       2.79071964      -0.02528227      26.90176323        1       0.00198181       0.00399655      -0.00876339
Pt       5.63180498      -0.02517969      26.90090064        1      -0.00444089       0.00238612      -0.01107776
Pt       1.37310720       2.42865330      26.90091233        1       0.00428734       0.00266007      -0.01105010
Pt       4.21082103       2.43111863      27.07492706        1      -0.00000219       0.00000156      -0.00024529
Pt       7.04817116       2.42949252      26.90176257        1      -0.00444242      -0.00028700      -0.00878089
Pt       2.79356908       4.88915056      26.90176317        1       0.00247341      -0.00370890      -0.00881755
Pt       5.62755488       4.88988101      26.90093209        1       0.00014406      -0.00503173      -0.01103285
Pt       8.42164759       4.86224128      26.92038356        1      -0.00001693      -0.00001263      -0.01126350
O        4.21081982       2.43111819      30.08954095        0      -0.00000014      -0.00000064       0.00422476
C        4.21082039       2.43111823      28.92711501        0       0.00000020       0.00000101      -0.00878878
