38
Lattice="8.421641763931781 0.0 0.0 4.2108208819658905 7.293355709136913 0.0 0.0 0.0 46.87624170604845" Properties=species:S:1:pos:R:3:tags:I:1:forces:R:3 charge=0 spin=0 energy=-202.8193368876051 free_energy=-202.8193368876051 stress="0.009625965729355812 -9.166740255750483e-08 4.910527096058104e-09 -9.166740255750483e-08 0.009625979699194431 -7.90649963278156e-08 4.910527096058104e-09 -7.90649963278156e-08 -0.0002852457109838724" pbc="T T T"
Pt      -0.00000010      -0.00000005      19.95723451        4      -0.00200889      -0.00921886       0.02012195
Pt       2.80721394      -0.00000020      19.95723457        4      -0.00000018       0.00000315       0.01771963
Pt       5.61442787      -0.00000008      19.95723465        4       0.00150023      -0.00826740       0.01948269
Pt       1.40360721       2.43111841      19.95723445        4       0.00640627       0.00542543       0.01950300
Pt       4.21082082       2.43111837      19.95723453        4      -0.00697048       0.00635132       0.02007507
Pt       7.01803480       2.43111844      19.95723439        4      -0.00000088      -0.00000063       0.02240475
Pt       2.80721416       4.86223734      19.95723425        4      -0.00000210      -0.00000319      -0.06861020
Pt       5.61442796       4.86223739      19.95723443        4      -0.00790576       0.00284173       0.01954204
Pt       8.42164143       4.86223725      19.95723447        4       0.00898340       0.00286803       0.02010622
Pt       1.40360729       0.81037262      22.29206795        3       0.00458111       0.00220396      -0.02834612
Pt       4.21082131       0.81037249      22.29206793        3      -0.00045006      -0.00510453      -0.02838195
Pt       7.01803470       0.81037255      22.29206785        3       0.00583684      -0.00201604      -0.06332228
Pt       2.80721448       3.24149122      22.29206774        3      -0.00144759       0.06232037      -0.11478151
Pt       5.61442764       3.24149121      22.29206791        3      -0.00469168      -0.00407598      -0.06309479
Pt       8.42164154       3.24149129      22.29206806        3      -0.00113412       0.00609260      -0.06307963
Pt       4.21082091       5.67260997      22.29206741        3      -0.05327565      -0.03236257      -0.11474632
Pt       7.01803487       5.67261038      22.29206779        3      -0.00414021       0.00289763      -0.02812074
Pt       9.82524821       5.67261068      22.29206808        3       0.05472618      -0.02995990      -0.11478370
Pt      -0.00000053       1.62074567      24.58417372        2      -0.00074858      -0.00450803      -0.02866228
Pt       2.80721436       1.62074552      24.58417391        2       0.00171681      -0.27601883       0.35026726
Pt       5.61442781       1.62074537      24.58417374        2      -0.00361574       0.00281621      -0.02861810
Pt       1.40360639       4.05186438      24.58417385        2       0.04007438       0.02276893      -0.12052622
Pt       4.21082087       4.05186396      24.58417384        2      -0.03971564       0.02318249      -0.12043301
Pt       7.01803504       4.05186408      24.58417403        2       0.00432936       0.00170304      -0.02886685
Pt       2.80721276       6.48298348      24.58417381        2      -0.00034951      -0.04598875      -0.12027765
Pt       5.61442804       6.48298329      24.58417396        2       0.23807509       0.13949218       0.35025054
Pt       8.42164223       6.48298338      24.58417376        2      -0.23977360       0.13653752       0.35022625
Pt      -0.03049974      -0.00246518      26.90091243        1       0.00428426       0.00266013      -0.01105097
Pt       2.80721409       0.00000005      27.07492600        1       0.00000077       0.00000055      -0.00023609
Pt       5.64456355      -0.00162576      26.90176319        1      -0.00444280      -0.00028676      -0.00878624
Pt       1.38996228       2.45803150      26.90176355        1       0.00246974      -0.00370576      -0.00881610
Pt       4.22394778       2.45876237      26.90093209        1       0.00014461      -0.00503181      -0.01103147
Pt       7.01804069       2.43112257      26.92038411        1      -0.00001494      -0.00001249      -0.01126369
Pt       2.80720714       4.86223368      26.92583388        1       0.00001882       0.00001562       0.00055437
Pt       5.59793317       4.83695505      26.90176302        1       0.00198293       0.00399634      -0.00876466
Pt       8.43901884       4.83705756      26.90089945        1      -0.00444310       0.00238405      -0.01108043
O        2.80721415      -0.00000018      30.08954174        0      -0.00000101      -0.00000069       0.00404138
C        2.80721366      -0.00000027      28.92711535        0       0.00000185       0.00000073      -0.00861457
