38
Lattice="8.421641763931781 0.0 0.0 4.2108208819658905 7.293355709136913 0.0 0.0 0.0 46.87624170604845" Properties=species:S:1:pos:R:3:tags:I:1:forces:R:3 charge=0 spin=0 energy=-202.81933593393077 free_energy=-202.81933593393077 stress="0.009625968523323536 -9.159841596328988e-08 2.662775111517135e-09 -9.159841596328988e-08 0.00962598156183958 -8.207532431470099e-08 2.662775111517135e-09 -8.207532431470099e-08 -0.0002853595360647887" pbc="T T T"
Pt      -0.00000010      -0.00000005      19.95723451        4      -0.00790703       0.00284954       0.01954255
Pt       2.80721394      -0.00000020      19.95723457        4       0.00898021       0.00287433       0.02010546
Pt       5.61442787      -0.00000008      19.95723465        4       0.00000085       0.00000312      -0.06861845
Pt       1.40360721       2.43111841      19.95723445        4       0.00000010       0.00000199       0.01772228
Pt       4.21082082       2.43111837      19.95723453        4       0.00150224      -0.00827056       0.01948481
Pt       7.01803480       2.43111844      19.95723439        4      -0.00200874      -0.00922225       0.02012660
Pt       2.80721416       4.86223734      19.95723425        4      -0.00697521       0.00634807       0.02008116
Pt       5.61442796       4.86223739      19.95723443        4       0.00000039      -0.00000478       0.02240004
Pt       8.42164143       4.86223725      19.95723447        4       0.00640928       0.00542035       0.01950132
Pt       1.40360729       0.81037262      22.29206795        3      -0.00413832       0.00290231      -0.02812264
Pt       4.21082131       0.81037249      22.29206793        3       0.05471472      -0.02994369      -0.11478183
Pt       7.01803470       0.81037255      22.29206785        3      -0.05327210      -0.03236213      -0.11476481
Pt       2.80721448       3.24149122      22.29206774        3      -0.00045618      -0.00510615      -0.02838182
Pt       5.61442764       3.24149121      22.29206791        3       0.00583925      -0.00201743      -0.06332182
Pt       8.42164154       3.24149129      22.29206806        3       0.00458642       0.00220300      -0.02834874
Pt       4.21082091       5.67260997      22.29206741        3      -0.00469834      -0.00407548      -0.06307763
Pt       7.01803487       5.67261038      22.29206779        3      -0.00114141       0.00608830      -0.06307629
Pt       9.82524821       5.67261068      22.29206808        3      -0.00143228       0.06230522      -0.11478060
Pt      -0.00000053       1.62074567      24.58417372        2       0.23808174       0.13949338       0.35024965
Pt       2.80721436       1.62074552      24.58417391        2      -0.23976648       0.13654359       0.35021925
Pt       5.61442781       1.62074537      24.58417374        2      -0.00036560      -0.04597326      -0.12027062
Pt       1.40360639       4.05186438      24.58417385        2       0.00172664      -0.27601534       0.35025939
Pt       4.21082087       4.05186396      24.58417384        2      -0.00361372       0.00281789      -0.02862358
Pt       7.01803504       4.05186408      24.58417403        2      -0.00075580      -0.00450232      -0.02866301
Pt       2.80721276       6.48298348      24.58417381        2      -0.03970143       0.02316507      -0.12043297
Pt       5.61442804       6.48298329      24.58417396        2       0.00432810       0.00169480      -0.02887050
Pt       8.42164223       6.48298338      24.58417376        2       0.04005972       0.02276181      -0.12051976
Pt      -0.01649486      -0.02528184      26.90176307        1       0.00198288       0.00399256      -0.00876506
Pt       2.82459125      -0.02517931      26.90089994        1      -0.00444175       0.00238120      -0.01108017
Pt       5.61442097      -0.00000329      26.92583554        1       0.00001590       0.00001379       0.00055810
Pt       1.40360697       2.43111854      27.07492333        1      -0.00000021       0.00000121      -0.00016107
Pt       4.24095686       2.42949247      26.90176323        1      -0.00443803      -0.00028659      -0.00878816
Pt       6.98753554       2.42865314      26.90091320        1       0.00428284       0.00266166      -0.01104840
Pt       2.82034050       4.88988082      26.90093203        1       0.00014550      -0.00502755      -0.01103344
Pt       5.61443394       4.86224124      26.92038360        1      -0.00001545      -0.00001162      -0.01126428
Pt       8.40799705       4.88915008      26.90176368        1       0.00247105      -0.00370380      -0.00881616
O        1.40360715       2.43111830      30.08953770        0      -0.00000055      -0.00000017       0.00440423
C        1.40360686       2.43111821      28.92711361        0       0.00000074       0.00000003      -0.00904315
