38
Lattice="8.421641763931781 0.0 0.0 4.2108208819658905 7.293355709136913 0.0 0.0 0.0 46.87624170604845" Properties=species:S:1:pos:R:3:tags:I:1:forces:R:3 charge=0 spin=0 energy=-202.81933593393077 free_energy=-202.81933593393077 stress="0.009625973179936409 -9.138651080320415e-08 3.165705475538516e-09 -9.138651080320415e-08 0.009625979699194431 -8.11967098002242e-08 3.165705475538516e-09 -8.11967098002242e-08 -0.00028538936749100685" pbc="T T T"
Pt      -0.00000010      -0.00000005      19.95723451        4      -0.00790720       0.00284955       0.01954257
Pt       2.80721394      -0.00000020      19.95723457        4       0.00898002       0.00287429       0.02010522
Pt       5.61442787      -0.00000008      19.95723465        4       0.00000068       0.00000321      -0.06861869
Pt       1.40360721       2.43111841      19.95723445        4       0.00000017       0.00000202       0.01772207
Pt       4.21082082       2.43111837      19.95723453        4       0.00150234      -0.00827050       0.01948483
Pt       7.01803480       2.43111844      19.95723439        4      -0.00200882      -0.00922235       0.02012624
Pt       2.80721416       4.86223734      19.95723425        4      -0.00697509       0.00634806       0.02008097
Pt       5.61442796       4.86223739      19.95723443        4       0.00000035      -0.00000482       0.02239996
Pt       8.42164143       4.86223725      19.95723447        4       0.00640909       0.00542030       0.01950122
Pt       1.40360729       0.81037262      22.29206795        3      -0.00413816       0.00290239      -0.02812215
Pt       4.21082131       0.81037249      22.29206793        3       0.05471519      -0.02994385      -0.11478283
Pt       7.01803470       0.81037255      22.29206785        3      -0.05327187      -0.03236210      -0.11476501
Pt       2.80721448       3.24149122      22.29206774        3      -0.00045615      -0.00510607      -0.02838169
Pt       5.61442764       3.24149121      22.29206791        3       0.00583922      -0.00201740      -0.06332166
Pt       8.42164154       3.24149129      22.29206806        3       0.00458642       0.00220347      -0.02834907
Pt       4.21082091       5.67260997      22.29206741        3      -0.00469825      -0.00407545      -0.06307763
Pt       7.01803487       5.67261038      22.29206779        3      -0.00114148       0.00608850      -0.06307623
Pt       9.82524821       5.67261068      22.29206808        3      -0.00143210       0.06230624      -0.11478155
Pt      -0.00000053       1.62074567      24.58417372        2       0.23808323       0.13949382       0.35025245
Pt       2.80721436       1.62074552      24.58417391        2      -0.23976743       0.13654417       0.35022265
Pt       5.61442781       1.62074537      24.58417374        2      -0.00036554      -0.04597351      -0.12027083
Pt       1.40360639       4.05186438      24.58417385        2       0.00172668      -0.27601719       0.35026172
Pt       4.21082087       4.05186396      24.58417384        2      -0.00361406       0.00281753      -0.02862335
Pt       7.01803504       4.05186408      24.58417403        2      -0.00075551      -0.00450270      -0.02866290
Pt       2.80721276       6.48298348      24.58417381        2      -0.03970157       0.02316522      -0.12043448
Pt       5.61442804       6.48298329      24.58417396        2       0.00432793       0.00169510      -0.02887038
Pt       8.42164223       6.48298338      24.58417376        2       0.04005990       0.02276157      -0.12052000
Pt      -0.01649470      -0.02528198      26.90176314        1       0.00198400       0.00399618      -0.00876432
Pt       2.82459140      -0.02517959      26.90089975        1      -0.00444223       0.00238485      -0.01108050
Pt       5.61442077      -0.00000329      26.92583527        1       0.00001597       0.00001438       0.00055835
Pt       1.40360714       2.43111848      27.07492474        1      -0.00000060       0.00000137      -0.00020640
Pt       4.24095715       2.42949240      26.90176306        1      -0.00444208      -0.00028649      -0.00878860
Pt       6.98753529       2.42865318      26.90091323        1       0.00428562       0.00266116      -0.01104855
Pt       2.82034040       4.88988102      26.90093196        1       0.00014408      -0.00503224      -0.01103287
Pt       5.61443395       4.86224129      26.92038365        1      -0.00001518      -0.00001292      -0.01126409
Pt       8.40799679       4.88915027      26.90176370        1       0.00247239      -0.00370566      -0.00881605
O        1.40360708       2.43111816      30.08953769        0      -0.00000047      -0.00000016       0.00441051
C        1.40360685       2.43111816      28.92711394        0       0.00000055       0.00000018      -0.00900897
