38
Lattice="8.421641763931781 0.0 0.0 4.2108208819658905 7.293355709136913 0.0 0.0 0.0 46.87624170604845" Properties=species:S:1:pos:R:3:tags:I:1:forces:R:3 charge=0 spin=0 energy=-202.87924289346446 free_energy=-202.87924289346446 stress="0.009702930226922035 0.00024491874501109123 -2.526902790123131e-05 0.00024491874501109123 0.010025096125900745 8.077705388132017e-06 -2.526902790123131e-05 8.077705388132017e-06 -0.00042405023123137653" pbc="T T T"
Pt      -0.00000010      -0.00000005      19.95723451        4      -0.00279732       0.00233645       0.01296992
Pt       2.80721394      -0.00000020      19.95723457        4       0.00124894      -0.00017481       0.02174697
Pt       5.61442787      -0.00000008      19.95723465        4       0.01005036       0.01798881      -0.00689252
Pt       1.40360721       2.43111841      19.95723445        4      -0.00199397      -0.00181411       0.01520566
Pt       4.21082082       2.43111837      19.95723453        4      -0.00071290      -0.00325208       0.01798290
Pt       7.01803480       2.43111844      19.95723439        4       0.00479541      -0.00173943       0.00683703
Pt       2.80721416       4.86223734      19.95723425        4      -0.00679165       0.00490559       0.02532241
Pt       5.61442796       4.86223739      19.95723443        4      -0.00079275       0.00119895       0.01999988
Pt       8.42164143       4.86223725      19.95723447        4      -0.01124006      -0.01653659      -0.00429047
Pt       1.40360729       0.81037262      22.29206795        3       0.00839185      -0.00660821      -0.01091788
Pt       4.21082131       0.81037249      22.29206793        3       0.04449114      -0.03738793      -0.11284142
Pt       7.01803470       0.81037255      22.29206785        3      -0.02828374      -0.02054542      -0.08115619
Pt       2.80721448       3.24149122      22.29206774        3      -0.01053752       0.00394189      -0.01853668
Pt       5.61442764       3.24149121      22.29206791        3       0.00927274      -0.00374807      -0.06921756
Pt       8.42164154       3.24149129      22.29206806        3       0.00342491       0.03647770      -0.08309216
Pt       4.21082091       5.67260997      22.29206741        3      -0.01957441       0.00862511      -0.01995149
Pt       7.01803487       5.67261038      22.29206779        3       0.05203192      -0.01764820      -0.11193146
Pt       9.82524821       5.67261068      22.29206808        3      -0.07016683       0.03827008      -0.21910584
Pt      -0.00000053       1.62074567      24.58417372        2       0.05317128      -0.03249558       0.14008579
Pt       2.80721436       1.62074552      24.58417391        2      -0.13271131       0.07346261       0.13922021
Pt       5.61442781       1.62074537      24.58417374        2      -0.01862655      -0.03205474      -0.06997770
Pt       1.40360639       4.05186438      24.58417385        2       0.01180245      -0.19752032       0.25934106
Pt       4.21082087       4.05186396      24.58417384        2       0.00049743       0.00469709      -0.02943137
Pt       7.01803504       4.05186408      24.58417403        2       0.01493934       0.03362757      -0.06173277
Pt       2.80721276       6.48298348      24.58417381        2       0.18876134       0.09164383       0.25715986
Pt       5.61442804       6.48298329      24.58417396        2      -0.12690397       0.07023628       0.13333155
Pt       8.42164223       6.48298338      24.58417376        2       0.04367498      -0.02497200      -0.16158350
Pt      -0.01466354       0.00128981      27.05904560        1      -0.00054552      -0.01922107       0.00726320
Pt       2.85695522      -0.02774787      26.88976468        1      -0.00691468       0.00098865       0.01180541
Pt       5.62049561      -0.00660838      26.91340534        1      -0.02776819       0.00992843      -0.01724497
Pt       1.39355409       2.44251173      27.05749896        1       0.01670066       0.00985827       0.00824644
Pt       4.20100596       2.43621786      26.90959068        1       0.01907997      -0.00370958      -0.01393361
Pt       6.96279799       2.46100527      26.88914297        1       0.00105451       0.00374186       0.01742591
Pt       2.80606083       4.86288627      26.90168608        1      -0.00715552       0.00196168       0.01928447
Pt       5.60581364       4.86865878      26.91155204        1       0.00870536      -0.01255232      -0.01366968
Pt       8.42938062       4.85936415      26.91368277        1      -0.02011822       0.02019242      -0.01656976
O        0.71029370       1.21013868      29.69754242        0       0.03414978      -0.01866865       0.01409988
C        0.72140400       1.20450813      28.50968104        0      -0.03260927       0.01656578      -0.00525172
