38
Lattice="8.421641763931781 0.0 0.0 4.2108208819658905 7.293355709136913 0.0 0.0 0.0 46.87624170604845" Properties=species:S:1:pos:R:3:tags:I:1:forces:R:3 charge=0 spin=0 energy=-202.88602542520275 free_energy=-202.88602542520275 stress="0.009942453354597092 -1.9769299086647152e-08 1.1285106182867821e-09 -1.9769299086647152e-08 0.009942460805177689 -1.6995565843558325e-08 1.1285106182867821e-09 -1.6995565843558325e-08 -0.00042285036761313677" pbc="T T T"
Pt      -0.00000010      -0.00000005      19.95723451        4       0.01341167       0.00855930       0.00969162
Pt       2.80721394      -0.00000020      19.95723457        4      -0.00176361       0.00275313       0.01080239
Pt       5.61442787      -0.00000008      19.95723465        4      -0.01410513       0.00732724       0.00963278
Pt       1.40360721       2.43111841      19.95723445        4       0.00330052       0.00014329       0.01084897
Pt       4.21082082       2.43111837      19.95723453        4      -0.00153489      -0.00289142       0.01079007
Pt       7.01803480       2.43111844      19.95723439        4      -0.00030272      -0.00258501       0.02366478
Pt       2.80721416       4.86223734      19.95723425        4       0.00068909      -0.01588410       0.00964382
Pt       5.61442796       4.86223739      19.95723443        4      -0.00211848       0.00157687       0.02361910
Pt       8.42164143       4.86223725      19.95723447        4       0.00242385       0.00100057       0.02361970
Pt       1.40360729       0.81037262      22.29206795        3      -0.01993716      -0.01328846      -0.06292859
Pt       4.21082131       0.81037249      22.29206793        3       0.02150578      -0.01070042      -0.06294119
Pt       7.01803470       0.81037255      22.29206785        3       0.00192344      -0.06071237      -0.15863003
Pt       2.80721448       3.24149122      22.29206774        3      -0.00157576       0.02399945      -0.06305652
Pt       5.61442764       3.24149121      22.29206791        3      -0.00879849      -0.00925365      -0.02494661
Pt       8.42164154       3.24149129      22.29206806        3       0.01243295      -0.00298641      -0.02498546
Pt       4.21082091       5.67260997      22.29206741        3      -0.05349838       0.02876861      -0.15857273
Pt       7.01803487       5.67261038      22.29206779        3      -0.00363176       0.01223827      -0.02482697
Pt       9.82524821       5.67261068      22.29206808        3       0.05158209       0.03193671      -0.15863809
Pt      -0.00000053       1.62074567      24.58417372        2       0.07641523       0.05483699       0.11641417
Pt       2.80721436       1.62074552      24.58417391        2      -0.00000296      -0.00000095       0.13543430
Pt       5.61442781       1.62074537      24.58417374        2      -0.08163878       0.05722595       0.11801558
Pt       1.40360639       4.05186438      24.58417385        2      -0.00859849      -0.09927632       0.11781988
Pt       4.21082087       4.05186396      24.58417384        2       0.00916260      -0.09354900       0.11624188
Pt       7.01803504       4.05186408      24.58417403        2      -0.00000162       0.00000534      -0.01608954
Pt       2.80721276       6.48298348      24.58417381        2       0.00000884      -0.00000751      -0.21476752
Pt       5.61442804       6.48298329      24.58417396        2       0.09023141       0.04205266       0.11793771
Pt       8.42164223       6.48298338      24.58417376        2      -0.08558239       0.03871059       0.11625081
Pt      -0.01517933      -0.00992335      26.89738027        1      -0.03555957      -0.01941606      -0.00539509
Pt       2.80775746      -0.01810049      27.01779477        1       0.00088569      -0.01630471      -0.01612214
Pt       5.63060414      -0.00818021      26.89738182        1       0.03462337      -0.02110111      -0.00539653
Pt       1.38766345       2.43969665      27.01779434        1      -0.01458518       0.00738287      -0.01611821
Pt       4.22622581       2.44064100      27.01779341        1       0.01366584       0.00891366      -0.01610919
Pt       7.01876728       2.43481502      26.90937651        1       0.00068954      -0.00939946      -0.00031425
Pt       2.80620834       4.88033916      26.89737878        1       0.00095687       0.04052887      -0.00538716
Pt       5.61726057       4.85975569      26.90937552        1      -0.00847101       0.00410967      -0.00031308
Pt       8.41807339       4.86102407      26.90937916        1       0.00779942       0.00528539      -0.00032572
O        2.80721651       1.62074384      29.55135620        0       0.00000236       0.00000494       0.03785231
C        2.80721693       1.62074537      28.35093646        0      -0.00000412      -0.00000330       0.02758475
