38
Lattice="8.421641763931781 0.0 0.0 4.2108208819658905 7.293355709136913 0.0 0.0 0.0 46.87624170604845" Properties=species:S:1:pos:R:3:tags:I:1:forces:R:3 charge=0 spin=0 energy=-202.9122333490919 free_energy=-202.9122333490919 stress="0.009914901107549667 8.838187959270272e-09 9.051736249432452e-09 8.838187959270272e-09 0.009914916940033436 3.6247971735292595e-08 9.051736249432452e-09 3.6247971735292595e-08 -0.0004491736472118646" pbc="T T T"
Pt      -0.00000010      -0.00000005      19.95723451        4       0.01520886      -0.00863601       0.01065050
Pt       2.80721394      -0.00000020      19.95723457        4      -0.00268247       0.00254244       0.01324638
Pt       5.61442787      -0.00000008      19.95723465        4      -0.01509566      -0.00889256       0.01064266
Pt       1.40360721       2.43111841      19.95723445        4      -0.00072932      -0.00061612       0.01699728
Pt       4.21082082       2.43111837      19.95723453        4       0.00092774      -0.00032933       0.01693568
Pt       7.01803480       2.43111844      19.95723439        4      -0.00011532       0.01753467       0.01061935
Pt       2.80721416       4.86223734      19.95723425        4      -0.00019852       0.00094410       0.01699699
Pt       5.61442796       4.86223739      19.95723443        4      -0.00088442      -0.00359348       0.01321235
Pt       8.42164143       4.86223725      19.95723447        4       0.00356912       0.00104543       0.01326720
Pt       1.40360729       0.81037262      22.29206795        3      -0.03930354      -0.00577142      -0.06577712
Pt       4.21082131       0.81037249      22.29206793        3       0.03378926      -0.01058500      -0.06688454
Pt       7.01803470       0.81037255      22.29206785        3       0.00000034       0.00000101      -0.28188828
Pt       2.80721448       3.24149122      22.29206774        3      -0.00000684       0.00000189      -0.00723445
Pt       5.61442764       3.24149121      22.29206791        3       0.02467610      -0.03125073      -0.06582101
Pt       8.42164154       3.24149129      22.29206806        3      -0.02601690      -0.02403564      -0.06692598
Pt       4.21082091       5.67260997      22.29206741        3      -0.00777328       0.03462692      -0.06681506
Pt       7.01803487       5.67261038      22.29206779        3      -0.00000330      -0.00000198      -0.07233670
Pt       9.82524821       5.67261068      22.29206808        3       0.01463828       0.03701255      -0.06583793
Pt      -0.00000053       1.62074567      24.58417372        2       0.09472404       0.05344280       0.13140467
Pt       2.80721436       1.62074552      24.58417391        2       0.00057889       0.07583704       0.14731687
Pt       5.61442781       1.62074537      24.58417374        2      -0.09374022       0.05537168       0.13137910
Pt       1.40360639       4.05186438      24.58417385        2       0.06542408      -0.03840349       0.14738825
Pt       4.21082087       4.05186396      24.58417384        2      -0.06597070      -0.03740155       0.14743336
Pt       7.01803504       4.05186408      24.58417403        2       0.00294824      -0.02852285      -0.08111099
Pt       2.80721276       6.48298348      24.58417381        2      -0.00098074      -0.10880154       0.13135251
Pt       5.61442804       6.48298329      24.58417396        2      -0.02620243       0.01157087      -0.08120441
Pt       8.42164223       6.48298338      24.58417376        2       0.02321941       0.01691010      -0.08127970
Pt       0.00210388      -0.00068585      26.90727409        1      -0.02845250       0.01451186      -0.00433033
Pt       2.80781475      -0.01796706      26.89432692        1       0.00197137      -0.03844805       0.01697234
Pt       5.61280015      -0.00145822      26.90726336        1       0.02674737       0.01730678      -0.00429931
Pt       1.38322738       2.41676291      27.01638857        1      -0.02167220      -0.00956509       0.00069315
Pt       4.23343665       2.42065959      27.01639365        1       0.01917115      -0.01402782       0.00066055
Pt       7.01757983       2.43327301      26.90728911        1       0.00163743      -0.03185927      -0.00436926
Pt       2.80496578       4.88705822      27.01638923        1       0.00253916       0.02360954       0.00066872
Pt       5.62969325       4.87173226      26.89435395        1       0.03229369       0.02096897       0.01688074
Pt       8.40576978       4.87070859      26.89433477        1      -0.03422562       0.01750260       0.01694384
O        2.80721026       3.24149236      29.54616086        0      -0.00001016      -0.00000168       0.00889105
C        2.80720929       3.24149199      28.34499939        0      -0.00000047       0.00000247      -0.00443859
