38
Lattice="8.421641763931781 0.0 0.0 4.2108208819658905 7.293355709136913 0.0 0.0 0.0 46.87624170604845" Properties=species:S:1:pos:R:3:tags:I:1:forces:R:3 charge=0 spin=0 energy=-202.88632106424083 free_energy=-202.88632106424083 stress="0.0100088594481349 -1.681241812434564e-08 8.051903033212682e-10 -1.681241812434564e-08 0.010008875280618668 -1.0536256311866055e-08 8.051903033212682e-10 -1.0536256311866055e-08 -0.0002951233182102442" pbc="T T T"
Pt      -0.00000010      -0.00000005      19.95723451        4       0.00328758       0.00013701       0.01103267
Pt       2.80721394      -0.00000020      19.95723457        4      -0.00153774      -0.00287491       0.01097749
Pt       5.61442787      -0.00000008      19.95723465        4      -0.00024762      -0.00297298       0.02375863
Pt       1.40360721       2.43111841      19.95723445        4       0.00064499      -0.01587688       0.00966202
Pt       4.21082082       2.43111837      19.95723453        4      -0.00248287       0.00172935       0.02371828
Pt       7.01803480       2.43111844      19.95723439        4       0.00273128       0.00124640       0.02371645
Pt       2.80721416       4.86223734      19.95723425        4       0.01343149       0.00851126       0.00972455
Pt       5.61442796       4.86223739      19.95723443        4      -0.00175078       0.00273978       0.01098818
Pt       8.42164143       4.86223725      19.95723447        4      -0.01407609       0.00736096       0.00965807
Pt       1.40360729       0.81037262      22.29206795        3      -0.00156619       0.02371356      -0.06257021
Pt       4.21082131       0.81037249      22.29206793        3      -0.00878890      -0.00930680      -0.02602238
Pt       7.01803470       0.81037255      22.29206785        3       0.01247261      -0.00294506      -0.02605712
Pt       2.80721448       3.24149122      22.29206774        3      -0.05335825       0.02884129      -0.15749398
Pt       5.61442764       3.24149121      22.29206791        3      -0.00368359       0.01225987      -0.02590453
Pt       8.42164154       3.24149129      22.29206806        3       0.05156457       0.03178532      -0.15754189
Pt       4.21082091       5.67260997      22.29206741        3      -0.01969812      -0.01314185      -0.06243432
Pt       7.01803487       5.67261038      22.29206779        3       0.02125803      -0.01057157      -0.06246062
Pt       9.82524821       5.67261068      22.29206808        3       0.00180040      -0.06063207      -0.15753841
Pt      -0.00000053       1.62074567      24.58417372        2      -0.00959649      -0.10170457       0.12923041
Pt       2.80721436       1.62074552      24.58417391        2       0.01010157      -0.09517868       0.12689646
Pt       5.61442781       1.62074537      24.58417374        2      -0.00000043       0.00000314       0.00366038
Pt       1.40360639       4.05186438      24.58417385        2       0.00000622       0.00000102      -0.23093966
Pt       4.21082087       4.05186396      24.58417384        2       0.09283450       0.04241005       0.12934101
Pt       7.01803504       4.05186408      24.58417403        2      -0.08745605       0.03871179       0.12688966
Pt       2.80721276       6.48298348      24.58417381        2       0.07735820       0.05646191       0.12704165
Pt       5.61442804       6.48298329      24.58417396        2      -0.00000500      -0.00000437       0.14669532
Pt       8.42164223       6.48298338      24.58417376        2      -0.08324195       0.05929241       0.12942450
Pt      -0.01698136       0.00809014      27.01984348        1       0.01090266      -0.00336972      -0.00532107
Pt       2.82271295       0.01065973      27.01984304        1      -0.00837669      -0.00775788      -0.00531240
Pt       5.61477451       0.00154688      26.91395209        1       0.00140698       0.00884554      -0.01662852
Pt       1.40254183       2.45590784      26.89887665        1       0.00087187      -0.01390208      -0.00273682
Pt       4.21198842       2.43004380      26.91394991        1       0.00695824      -0.00564006      -0.01662296
Pt       7.01652069       2.43064434      26.91395100        1      -0.00836247      -0.00320647      -0.01662775
Pt       2.78627697       4.84891842      26.89887552        1       0.01160334       0.00770873      -0.00273808
Pt       5.61591099       4.84348484      27.01984436        1      -0.00252835       0.01113033      -0.00531584
Pt       8.44364392       4.85076244      26.89887684        1      -0.01247781       0.00620140      -0.00273574
O        5.61442922       6.48298590      29.55952819        0       0.00000092      -0.00000357      -0.01318447
C        5.61442871       6.48298436      28.35899589        0      -0.00000001      -0.00000169       0.00377103
