38
Lattice="8.421641763931781 0.0 0.0 4.2108208819658905 7.293355709136913 0.0 0.0 0.0 46.87624170604845" Properties=species:S:1:pos:R:3:tags:I:1:forces:R:3 charge=0 spin=0 energy=-202.91223430276622 free_energy=-202.91223430276622 stress="0.009914906695485115 8.117839733756682e-09 9.402373990496926e-09 8.117839733756682e-09 0.009914918802678585 3.60455452153019e-08 9.402373990496926e-09 3.60455452153019e-08 -0.0004492993757594377" pbc="T T T"
Pt      -0.00000010      -0.00000005      19.95723451        4      -0.01509653      -0.00889199       0.01064083
Pt       2.80721394      -0.00000020      19.95723457        4       0.01520979      -0.00863621       0.01065218
Pt       5.61442787      -0.00000008      19.95723465        4      -0.00268237       0.00254216       0.01324604
Pt       1.40360721       2.43111841      19.95723445        4      -0.00011426       0.01753670       0.01061954
Pt       4.21082082       2.43111837      19.95723453        4      -0.00072763      -0.00061838       0.01699658
Pt       7.01803480       2.43111844      19.95723439        4       0.00092480      -0.00032947       0.01693636
Pt       2.80721416       4.86223734      19.95723425        4       0.00356289       0.00104508       0.01327414
Pt       5.61442796       4.86223739      19.95723443        4      -0.00019519       0.00094313       0.01698679
Pt       8.42164143       4.86223725      19.95723447        4      -0.00088142      -0.00359224       0.01321506
Pt       1.40360729       0.81037262      22.29206795        3      -0.00000088       0.00000083      -0.28188530
Pt       4.21082131       0.81037249      22.29206793        3      -0.03930368      -0.00576756      -0.06578071
Pt       7.01803470       0.81037255      22.29206785        3       0.03379055      -0.01058885      -0.06688355
Pt       2.80721448       3.24149122      22.29206774        3      -0.02602753      -0.02403312      -0.06692658
Pt       5.61442764       3.24149121      22.29206791        3       0.00000221      -0.00000135      -0.00723201
Pt       8.42164154       3.24149129      22.29206806        3       0.02467771      -0.03125030      -0.06582180
Pt       4.21082091       5.67260997      22.29206741        3       0.01462541       0.03702455      -0.06582011
Pt       7.01803487       5.67261038      22.29206779        3      -0.00777287       0.03462296      -0.06682945
Pt       9.82524821       5.67261068      22.29206808        3       0.00000842      -0.00000910      -0.07234116
Pt      -0.00000053       1.62074567      24.58417372        2      -0.09373672       0.05536640       0.13137715
Pt       2.80721436       1.62074552      24.58417391        2       0.09471864       0.05344566       0.13140574
Pt       5.61442781       1.62074537      24.58417374        2       0.00058121       0.07584182       0.14731838
Pt       1.40360639       4.05186438      24.58417385        2       0.00295753      -0.02852409      -0.08111241
Pt       4.21082087       4.05186396      24.58417384        2       0.06541904      -0.03839979       0.14738774
Pt       7.01803504       4.05186408      24.58417403        2      -0.06597463      -0.03740630       0.14743735
Pt       2.80721276       6.48298348      24.58417381        2       0.02323898       0.01690579      -0.08128922
Pt       5.61442804       6.48298329      24.58417396        2      -0.00099706      -0.10879525       0.13134989
Pt       8.42164223       6.48298338      24.58417376        2      -0.02620477       0.01156925      -0.08119783
Pt      -0.00162794      -0.00145827      26.90726158        1       0.02674777       0.01730703      -0.00429505
Pt       2.80931824      -0.00068594      26.90727376        1      -0.02845190       0.01451415      -0.00432927
Pt       5.61502828      -0.01796580      26.89432739        1       0.00197104      -0.03845356       0.01697450
Pt       1.40315192       2.43327303      26.90728873        1       0.00163925      -0.03185793      -0.00436956
Pt       4.19044113       2.41676229      27.01638885        1      -0.02166847      -0.00955802       0.00069377
Pt       7.04065139       2.42065884      27.01639471        1       0.01916460      -0.01402273       0.00065340
Pt       2.79134277       4.87070842      26.89433457        1      -0.03423073       0.01750189       0.01694172
Pt       5.61218027       4.88705951      27.01639045        1       0.00253755       0.02359580       0.00066980
Pt       8.43690587       4.87173162      26.89435441        1       0.03230057       0.02097105       0.01688226
O        5.61442445       3.24149249      29.54616025        0      -0.00001223      -0.00000116       0.00917584
C        5.61442284       3.24149192      28.34500036        0       0.00000108       0.00000321      -0.00472100
