38
Lattice="8.421641763931781 0.0 0.0 4.2108208819658905 7.293355709136913 0.0 0.0 0.0 46.87624170604845" Properties=species:S:1:pos:R:3:tags:I:1:forces:R:3 charge=0 spin=0 energy=-202.81937121988048 free_energy=-202.81937121988048 stress="0.009599268436431885 -8.539450391253922e-08 -6.89564627620598e-09 -8.539450391253922e-08 0.009599273093044758 -4.602474490411623e-08 -6.89564627620598e-09 -4.602474490411623e-08 -0.00037726559094153345" pbc="T T T"
Pt      -0.00000010      -0.00000005      19.95723451        4       0.00897327       0.00290986       0.02002618
Pt       2.80721394      -0.00000020      19.95723457        4       0.00000064       0.00000353      -0.06873865
Pt       5.61442787      -0.00000008      19.95723465        4      -0.00791018       0.00291291       0.01948031
Pt       1.40360721       2.43111841      19.95723445        4       0.00144785      -0.00830392       0.01942128
Pt       4.21082082       2.43111837      19.95723453        4      -0.00197285      -0.00923578       0.02004880
Pt       7.01803480       2.43111844      19.95723439        4      -0.00000112       0.00000007       0.01773078
Pt       2.80721416       4.86223734      19.95723425        4      -0.00000352      -0.00000392       0.02237825
Pt       5.61442796       4.86223739      19.95723443        4       0.00646354       0.00539037       0.01943447
Pt       8.42164143       4.86223725      19.95723447        4      -0.00699706       0.00632577       0.01999657
Pt       1.40360729       0.81037262      22.29206795        3       0.05496594      -0.03008682      -0.11474014
Pt       4.21082131       0.81037249      22.29206793        3      -0.05351847      -0.03250680      -0.11472755
Pt       7.01803470       0.81037255      22.29206785        3      -0.00409526       0.00278602      -0.02735370
Pt       2.80721448       3.24149122      22.29206774        3       0.00581427      -0.00193409      -0.06376462
Pt       5.61442764       3.24149121      22.29206791        3       0.00446126       0.00222668      -0.02758002
Pt       8.42164154       3.24149129      22.29206806        3      -0.00036518      -0.00501229      -0.02760920
Pt       4.21082091       5.67260997      22.29206741        3      -0.00120262       0.00604144      -0.06350324
Pt       7.01803487       5.67261038      22.29206779        3      -0.00145245       0.06260032      -0.11473954
Pt       9.82524821       5.67261068      22.29206808        3      -0.00461029      -0.00411169      -0.06353360
Pt      -0.00000053       1.62074567      24.58417372        2      -0.24148020       0.13794671       0.34257168
Pt       2.80721436       1.62074552      24.58417391        2      -0.00065995      -0.04907148      -0.12490167
Pt       5.61442781       1.62074537      24.58417374        2       0.24014789       0.14028348       0.34261861
Pt       1.40360639       4.05186438      24.58417385        2      -0.00356164       0.00194881      -0.03596600
Pt       4.21082087       4.05186396      24.58417384        2      -0.00003725      -0.00402919      -0.03601956
Pt       7.01803504       4.05186408      24.58417403        2       0.00137683      -0.27820209       0.34261304
Pt       2.80721276       6.48298348      24.58417381        2       0.00356186       0.00207823      -0.03622282
Pt       5.61442804       6.48298329      24.58417396        2       0.04290725       0.02406611      -0.12518264
Pt       8.42164223       6.48298338      24.58417376        2      -0.04225849       0.02497886      -0.12506254
Pt       0.01717669      -0.02463008      26.89839235        1      -0.00284687      -0.00176757      -0.00167184
Pt       2.80721342      -0.00000215      26.92751943        1      -0.00000258       0.00002009      -0.00440533
Pt       5.59739959      -0.02437472      26.89993862        1       0.00271439      -0.00136992      -0.00177955
Pt       1.43322164       2.42857159      26.89993317        1      -0.00013298       0.00304268      -0.00179404
Pt       4.18090033       2.42855216      26.89841486        1      -0.00012705       0.00335648      -0.00167589
Pt       7.01803530       2.43111812      27.07455857        1      -0.00000037       0.00000700      -0.04858528
Pt       2.80721508       4.86224032      26.91800313        1       0.00000406      -0.00002114      -0.00407183
Pt       5.60183957       4.88916185      26.89992358        1      -0.00255814      -0.00166763      -0.00178634
Pt       8.43439070       4.88943820      26.89843475        1       0.00295597      -0.00160063      -0.00165670
O        7.01803478       2.43111831      30.08662151        0       0.00000006       0.00000092       0.02638517
C        7.01803497       2.43111861      28.92432851        0      -0.00000046      -0.00000135       0.02436770
