38
Lattice="8.421641763931781 0.0 0.0 4.2108208819658905 7.293355709136913 0.0 0.0 0.0 46.87624170604845" Properties=species:S:1:pos:R:3:tags:I:1:forces:R:3 charge=0 spin=0 energy=-202.8192729914259 free_energy=-202.8192729914259 stress="0.009581459686160088 -5.8196530261511725e-08 9.653240340412594e-08 -5.8196530261511725e-08 0.009581468999385834 1.5855599144742882e-07 9.653240340412594e-08 1.5855599144742882e-07 -0.0003886256890837103" pbc="T T T"
Pt      -0.00000010      -0.00000005      19.95723451        4       0.00151943      -0.00829895       0.01952153
Pt       2.80721394      -0.00000020      19.95723457        4      -0.00209519      -0.00929186       0.02011674
Pt       5.61442787      -0.00000008      19.95723465        4      -0.00000030       0.00000910       0.01755305
Pt       1.40360721       2.43111841      19.95723445        4       0.00000295       0.00000564       0.02220789
Pt       4.21082082       2.43111837      19.95723453        4       0.00642845       0.00545161       0.01953334
Pt       7.01803480       2.43111844      19.95723439        4      -0.00698974       0.00646084       0.02005993
Pt       2.80721416       4.86223734      19.95723425        4       0.00908294       0.00283305       0.02009761
Pt       5.61442796       4.86223739      19.95723443        4      -0.00000870      -0.00001350      -0.06919434
Pt       8.42164143       4.86223725      19.95723447        4      -0.00793976       0.00285139       0.01958676
Pt       1.40360729       0.81037262      22.29206795        3       0.00574068      -0.00193761      -0.06338224
Pt       4.21082131       0.81037249      22.29206793        3       0.00455364       0.00207960      -0.02838445
Pt       7.01803470       0.81037255      22.29206785        3      -0.00054158      -0.00499859      -0.02841866
Pt       2.80721448       3.24149122      22.29206774        3      -0.00113569       0.00599763      -0.06317631
Pt       5.61442764       3.24149121      22.29206791        3      -0.00138397       0.06275008      -0.11446671
Pt       8.42164154       3.24149129      22.29206806        3      -0.00457587      -0.00399386      -0.06318060
Pt       4.21082091       5.67260997      22.29206741        3       0.05505802      -0.03019172      -0.11443037
Pt       7.01803487       5.67261038      22.29206779        3      -0.05366068      -0.03252434      -0.11440543
Pt       9.82524821       5.67261068      22.29206808        3      -0.00398578       0.00294354      -0.02819239
Pt      -0.00000053       1.62074567      24.58417372        2      -0.00582176       0.00050846      -0.03973062
Pt       2.80721436       1.62074552      24.58417391        2       0.00214668      -0.00540970      -0.03979236
Pt       5.61442781       1.62074537      24.58417374        2       0.00191677      -0.27273253       0.34061950
Pt       1.40360639       4.05186438      24.58417385        2       0.00349323       0.00451905      -0.04006685
Pt       4.21082087       4.05186396      24.58417384        2       0.04153277       0.02367809      -0.12956734
Pt       7.01803504       4.05186408      24.58417403        2      -0.04128848       0.02398658      -0.12945247
Pt       2.80721276       6.48298348      24.58417381        2      -0.23710181       0.13476112       0.34081092
Pt       5.61442804       6.48298329      24.58417396        2      -0.00031331      -0.04770911      -0.12917590
Pt       8.42164223       6.48298338      24.58417376        2       0.23531432       0.13820128       0.34111005
Pt       0.03081818      -0.00225450      26.90057799        1      -0.01005774      -0.00041993      -0.00367497
Pt       2.77562977      -0.00141401      26.89951343        1       0.01083718      -0.00289172      -0.00495989
Pt       5.61436783      -0.00009596      27.06841459        1       0.00030112       0.00049475      -0.01484720
Pt       1.40356359       2.43102296      26.91542358        1       0.00005300       0.00015745       0.00905159
Pt       4.19724470       2.45885147      26.90049280        1       0.00555610      -0.00839679      -0.00342802
Pt       7.03266692       2.45911426      26.89945146        1      -0.00816882      -0.00813518      -0.00473555
Pt       2.82408138       4.83552822      26.89940011        1      -0.00274152       0.01089762      -0.00466123
Pt       5.61437706       4.86217182      26.92445132        1       0.00006988       0.00005670       0.00754124
Pt       8.40432450       4.83663433      26.90051107        1       0.00441798       0.00867318      -0.00337516
O        5.61482758       0.00065392      30.08158952        0       0.00011738       0.00021360       0.01041626
C        5.61470987       0.00047492      28.91915806        0      -0.00033175      -0.00058501       0.02647236
