38
Lattice="8.421641763931781 0.0 0.0 4.2108208819658905 7.293355709136913 0.0 0.0 0.0 46.87624170604845" Properties=species:S:1:pos:R:3:tags:I:1:forces:R:3 charge=0 spin=0 energy=-202.81933307290782 free_energy=-202.81933307290782 stress="0.00962597131729126 -9.21870721981577e-08 3.9684100450188e-09 -9.21870721981577e-08 0.00962598156183958 -8.23353971668439e-08 3.9684100450188e-09 -8.23353971668439e-08 -0.00028533703880384564" pbc="T T T"
Pt      -0.00000010      -0.00000005      19.95723451        4      -0.00200903      -0.00921889       0.02012210
Pt       2.80721394      -0.00000020      19.95723457        4      -0.00000024       0.00000333       0.01771967
Pt       5.61442787      -0.00000008      19.95723465        4       0.00150045      -0.00826742       0.01948290
Pt       1.40360721       2.43111841      19.95723445        4       0.00640628       0.00542552       0.01950313
Pt       4.21082082       2.43111837      19.95723453        4      -0.00697064       0.00635117       0.02007511
Pt       7.01803480       2.43111844      19.95723439        4      -0.00000083      -0.00000068       0.02240471
Pt       2.80721416       4.86223734      19.95723425        4      -0.00000204      -0.00000305      -0.06861039
Pt       5.61442796       4.86223739      19.95723443        4      -0.00790572       0.00284182       0.01954208
Pt       8.42164143       4.86223725      19.95723447        4       0.00898335       0.00286814       0.02010641
Pt       1.40360729       0.81037262      22.29206795        3       0.00458122       0.00220384      -0.02834665
Pt       4.21082131       0.81037249      22.29206793        3      -0.00045052      -0.00510479      -0.02838267
Pt       7.01803470       0.81037255      22.29206785        3       0.00583676      -0.00201625      -0.06332181
Pt       2.80721448       3.24149122      22.29206774        3      -0.00144770       0.06232038      -0.11478174
Pt       5.61442764       3.24149121      22.29206791        3      -0.00469179      -0.00407607      -0.06309466
Pt       8.42164154       3.24149129      22.29206806        3      -0.00113393       0.00609262      -0.06307966
Pt       4.21082091       5.67260997      22.29206741        3      -0.05327583      -0.03236259      -0.11474648
Pt       7.01803487       5.67261038      22.29206779        3      -0.00414023       0.00289732      -0.02812079
Pt       9.82524821       5.67261068      22.29206808        3       0.05472571      -0.02995968      -0.11478312
Pt      -0.00000053       1.62074567      24.58417372        2      -0.00075090      -0.00450727      -0.02866108
Pt       2.80721436       1.62074552      24.58417391        2       0.00171694      -0.27601731       0.35026565
Pt       5.61442781       1.62074537      24.58417374        2      -0.00361380       0.00281726      -0.02861561
Pt       1.40360639       4.05186438      24.58417385        2       0.04007463       0.02276907      -0.12052633
Pt       4.21082087       4.05186396      24.58417384        2      -0.03971574       0.02318253      -0.12043305
Pt       7.01803504       4.05186408      24.58417403        2       0.00432935       0.00170118      -0.02886504
Pt       2.80721276       6.48298348      24.58417381        2      -0.00034946      -0.04598885      -0.12027851
Pt       5.61442804       6.48298329      24.58417396        2       0.23807359       0.13949165       0.35024908
Pt       8.42164223       6.48298338      24.58417376        2      -0.23977220       0.13653718       0.35022476
Pt      -0.03049996      -0.00246517      26.90091261        1       0.00428345       0.00265988      -0.01105056
Pt       2.80721400       0.00000004      27.07492358        1       0.00000077      -0.00000011      -0.00024046
Pt       5.64456382      -0.00162580      26.90176343        1      -0.00444211      -0.00028592      -0.00878628
Pt       1.38996213       2.45803150      26.90176353        1       0.00247292      -0.00370534      -0.00881604
Pt       4.22394783       2.45876233      26.90093244        1       0.00014531      -0.00503109      -0.01103179
Pt       7.01804060       2.43112252      26.92038449        1      -0.00001683      -0.00001227      -0.01126999
Pt       2.80720707       4.86223373      26.92583408        1       0.00001866       0.00001533       0.00055428
Pt       5.59793325       4.83695510      26.90176305        1       0.00198252       0.00399529      -0.00876489
Pt       8.43901902       4.83705762      26.90089970        1      -0.00444349       0.00238421      -0.01108023
O        2.80721409      -0.00000018      30.08953779        0      -0.00000110      -0.00000040       0.00423052
C        2.80721373      -0.00000030      28.92711344        0       0.00000196       0.00000049      -0.00879217
