38
Lattice="8.421641763931781 0.0 0.0 4.2108208819658905 7.293355709136913 0.0 0.0 0.0 46.87624170604845" Properties=species:S:1:pos:R:3:tags:I:1:forces:R:3 charge=0 spin=0 energy=-202.87924003244152 free_energy=-202.87924003244152 stress="0.010156054049730301 1.7431850210414268e-05 5.892729859624524e-06 1.7431850210414268e-05 0.009572017937898636 -2.6050571250380017e-05 5.892729859624524e-06 -2.6050571250380017e-05 -0.0004238852998241782" pbc="T T T"
Pt      -0.00000010      -0.00000005      19.95723451        4      -0.00085483      -0.00828721       0.02534155
Pt       2.80721394      -0.00000020      19.95723457        4       0.00258835      -0.00079172       0.01519243
Pt       5.61442787      -0.00000008      19.95723465        4      -0.00060898      -0.00357125       0.01292477
Pt       1.40360721       2.43111841      19.95723445        4       0.00318114       0.00098549       0.01795218
Pt       4.21082082       2.43111837      19.95723453        4      -0.00047915       0.00115746       0.02175753
Pt       7.01803480       2.43111844      19.95723439        4      -0.00067845      -0.00128730       0.01998892
Pt       2.80721416       4.86223734      19.95723425        4      -0.02059094      -0.00031703      -0.00685823
Pt       5.61442796       4.86223739      19.95723443        4       0.01992168      -0.00146554      -0.00421437
Pt       8.42164143       4.86223725      19.95723447        4      -0.00088106       0.00499039       0.00679820
Pt       1.40360729       0.81037262      22.29206795        3       0.00190322      -0.01110330      -0.01871030
Pt       4.21082131       0.81037249      22.29206793        3       0.00147104       0.01060166      -0.01113888
Pt       7.01803470       0.81037255      22.29206785        3       0.00228411      -0.02134039      -0.02010157
Pt       2.80721448       3.24149122      22.29206774        3       0.01007643       0.05721273      -0.11281398
Pt       5.61442764       3.24149121      22.29206791        3      -0.01074782       0.05394355      -0.11183023
Pt       8.42164154       3.24149129      22.29206806        3      -0.00139840       0.00986743      -0.06903126
Pt       4.21082091       5.67260997      22.29206741        3       0.00200466      -0.07990240      -0.21905747
Pt       7.01803487       5.67261038      22.29206779        3      -0.03321235      -0.01518085      -0.08298056
Pt       9.82524821       5.67261068      22.29206808        3       0.03191150      -0.01427312      -0.08108471
Pt      -0.00000053       1.62074567      24.58417372        2      -0.00438287      -0.00210239      -0.02937100
Pt       2.80721436       1.62074552      24.58417391        2       0.00284055      -0.15174122       0.13915172
Pt       5.61442781       1.62074537      24.58417374        2       0.00255978      -0.14512073       0.13337891
Pt       1.40360639       4.05186438      24.58417385        2       0.03719687      -0.00008952      -0.07006980
Pt       4.21082087       4.05186396      24.58417384        2      -0.00011466       0.05043256      -0.16166817
Pt       7.01803504       4.05186408      24.58417403        2      -0.03655709      -0.00399858      -0.06170482
Pt       2.80721276       6.48298348      24.58417381        2      -0.17388052       0.11783935       0.25721449
Pt       5.61442804       6.48298329      24.58417396        2       0.16510269       0.10905657       0.25942102
Pt       8.42164223       6.48298338      24.58417376        2       0.00151053       0.06234744       0.14011799
Pt       0.00001491      -0.00132963      26.90172064        1       0.00187760      -0.00716856       0.01916678
Pt       2.80237153      -0.01439203      27.05750005        1      -0.01688627       0.00953064       0.00823671
Pt       5.62064579      -0.01334482      27.05904858        1       0.01690703       0.00913695       0.00725754
Pt       1.40405196       2.42005799      26.90958607        1      -0.00629517       0.01842264      -0.01392604
Pt       4.20997158       2.48807105      26.88976324        1       0.00259122      -0.00647485       0.01183823
Pt       7.01676596       2.42044046      26.91157019        1       0.00653932       0.01384393      -0.01365314
Pt       2.80992789       4.87080174      26.91338882        1       0.00521966      -0.02904152      -0.01727593
Pt       5.61307711       4.87037446      26.91369444        1      -0.00741095      -0.02751700      -0.01660746
Pt       8.42338112       4.79946712      26.88911561        1      -0.00375578      -0.00098418       0.01749124
O        4.21126920       0.01006166      29.69754267        0      -0.00090142       0.03891721       0.01379229
C        4.21059416       0.02250384      28.50967802        0       0.00194939      -0.03652727      -0.00492446
