38
Lattice="8.421641763931781 0.0 0.0 4.2108208819658905 7.293355709136913 0.0 0.0 0.0 46.87624170604845" Properties=species:S:1:pos:R:3:tags:I:1:forces:R:3 charge=0 spin=0 energy=-202.8860292399 free_energy=-202.8860292399 stress="0.009942442178726196 -2.2768293916897164e-08 -6.489156434419385e-10 -2.2768293916897164e-08 0.009942451491951942 -1.4220398192321682e-08 -6.489156434419385e-10 -1.4220398192321682e-08 -0.0004227985336910933" pbc="T T T"
Pt      -0.00000010      -0.00000005      19.95723451        4       0.01341169       0.00855929       0.00969177
Pt       2.80721394      -0.00000020      19.95723457        4      -0.00176350       0.00275330       0.01080249
Pt       5.61442787      -0.00000008      19.95723465        4      -0.01410514       0.00732719       0.00963297
Pt       1.40360721       2.43111841      19.95723445        4       0.00330069       0.00014311       0.01084906
Pt       4.21082082       2.43111837      19.95723453        4      -0.00153489      -0.00289173       0.01079000
Pt       7.01803480       2.43111844      19.95723439        4      -0.00030273      -0.00258508       0.02366488
Pt       2.80721416       4.86223734      19.95723425        4       0.00068901      -0.01588393       0.00964357
Pt       5.61442796       4.86223739      19.95723443        4      -0.00211827       0.00157668       0.02361915
Pt       8.42164143       4.86223725      19.95723447        4       0.00242400       0.00100071       0.02361974
Pt       1.40360729       0.81037262      22.29206795        3      -0.01993747      -0.01328861      -0.06292890
Pt       4.21082131       0.81037249      22.29206793        3       0.02150585      -0.01070029      -0.06294174
Pt       7.01803470       0.81037255      22.29206785        3       0.00192315      -0.06071245      -0.15863016
Pt       2.80721448       3.24149122      22.29206774        3      -0.00157586       0.02399968      -0.06305695
Pt       5.61442764       3.24149121      22.29206791        3      -0.00879842      -0.00925385      -0.02494664
Pt       8.42164154       3.24149129      22.29206806        3       0.01243259      -0.00298647      -0.02498544
Pt       4.21082091       5.67260997      22.29206741        3      -0.05349893       0.02876859      -0.15857191
Pt       7.01803487       5.67261038      22.29206779        3      -0.00363181       0.01223828      -0.02482717
Pt       9.82524821       5.67261068      22.29206808        3       0.05158195       0.03193706      -0.15863767
Pt      -0.00000053       1.62074567      24.58417372        2       0.07641485       0.05483706       0.11641378
Pt       2.80721436       1.62074552      24.58417391        2      -0.00000357      -0.00000031       0.13543092
Pt       5.61442781       1.62074537      24.58417374        2      -0.08163714       0.05722561       0.11801299
Pt       1.40360639       4.05186438      24.58417385        2      -0.00859861      -0.09927604       0.11781973
Pt       4.21082087       4.05186396      24.58417384        2       0.00916272      -0.09354749       0.11623976
Pt       7.01803504       4.05186408      24.58417403        2      -0.00000128       0.00000523      -0.01608988
Pt       2.80721276       6.48298348      24.58417381        2       0.00000874      -0.00000732      -0.21476692
Pt       5.61442804       6.48298329      24.58417396        2       0.09023039       0.04205176       0.11793513
Pt       8.42164223       6.48298338      24.58417376        2      -0.08558101       0.03870993       0.11624868
Pt      -0.01517927      -0.00992319      26.89738084        1      -0.03556451      -0.01941662      -0.00539479
Pt       2.80775753      -0.01810039      27.01779391        1       0.00088691      -0.01630292      -0.01611301
Pt       5.63060396      -0.00818013      26.89738190        1       0.03462644      -0.02110345      -0.00539716
Pt       1.38766346       2.43969663      27.01779327        1      -0.01458753       0.00738460      -0.01611833
Pt       4.22622594       2.44064099      27.01779251        1       0.01366531       0.00891411      -0.01610092
Pt       7.01876724       2.43481503      26.90937657        1       0.00069066      -0.00939934      -0.00031423
Pt       2.80620839       4.88033893      26.89737901        1       0.00095651       0.04053093      -0.00538756
Pt       5.61726040       4.85975568      26.90937525        1      -0.00847106       0.00410908      -0.00031283
Pt       8.41807342       4.86102423      26.90937935        1       0.00780003       0.00528274      -0.00032617
O        2.80721657       1.62074376      29.55135540        0       0.00000384       0.00000365       0.03770723
C        2.80721691       1.62074525      28.35093588        0      -0.00000360      -0.00000283       0.02772654
