38
Lattice="8.421641763931781 0.0 0.0 4.2108208819658905 7.293355709136913 0.0 0.0 0.0 46.87624170604845" Properties=species:S:1:pos:R:3:tags:I:1:forces:R:3 charge=0 spin=0 energy=-202.81937121988048 free_energy=-202.81937121988048 stress="0.00959926936775446 -8.530808770501608e-08 -4.829363131619857e-09 -8.530808770501608e-08 0.009599289856851101 -4.702722122829073e-08 -4.829363131619857e-09 -4.702722122829073e-08 -0.00037732667988166213" pbc="T T T"
Pt      -0.00000010      -0.00000005      19.95723451        4      -0.00700151       0.00633217       0.01999403
Pt       2.80721394      -0.00000020      19.95723457        4      -0.00000078       0.00000275       0.02237036
Pt       5.61442787      -0.00000008      19.95723465        4       0.00646320       0.00539795       0.01943623
Pt       1.40360721       2.43111841      19.95723445        4      -0.00790991       0.00291219       0.01948294
Pt       4.21082082       2.43111837      19.95723453        4       0.00897630       0.00290643       0.02002993
Pt       7.01803480       2.43111844      19.95723439        4      -0.00000023      -0.00000029      -0.06873564
Pt       2.80721416       4.86223734      19.95723425        4      -0.00000286      -0.00000288       0.01773632
Pt       5.61442796       4.86223739      19.95723443        4       0.00144782      -0.00831042       0.01941657
Pt       8.42164143       4.86223725      19.95723447        4      -0.00197151      -0.00923874       0.02004808
Pt       1.40360729       0.81037262      22.29206795        3      -0.00461996      -0.00410014      -0.06353164
Pt       4.21082131       0.81037249      22.29206793        3      -0.00119973       0.00604524      -0.06352299
Pt       7.01803470       0.81037255      22.29206785        3      -0.00144836       0.06260521      -0.11474337
Pt       2.80721448       3.24149122      22.29206774        3      -0.00410176       0.00278817      -0.02735437
Pt       5.61442764       3.24149121      22.29206791        3       0.05496978      -0.03008768      -0.11474151
Pt       8.42164154       3.24149129      22.29206806        3      -0.05351363      -0.03251119      -0.11472587
Pt       4.21082091       5.67260997      22.29206741        3      -0.00037262      -0.00501228      -0.02759040
Pt       7.01803487       5.67261038      22.29206779        3       0.00581802      -0.00194122      -0.06376018
Pt       9.82524821       5.67261068      22.29206808        3       0.00446833       0.00221592      -0.02758155
Pt      -0.00000053       1.62074567      24.58417372        2      -0.04224945       0.02498223      -0.12506741
Pt       2.80721436       1.62074552      24.58417391        2       0.00354830       0.00208901      -0.03621828
Pt       5.61442781       1.62074537      24.58417374        2       0.04290807       0.02407381      -0.12517290
Pt       1.40360639       4.05186438      24.58417385        2       0.24015801       0.14028287       0.34261501
Pt       4.21082087       4.05186396      24.58417384        2      -0.24148466       0.13795532       0.34257293
Pt       7.01803504       4.05186408      24.58417403        2      -0.00066143      -0.04906867      -0.12490337
Pt       2.80721276       6.48298348      24.58417381        2       0.00139305      -0.27821678       0.34261376
Pt       5.61442804       6.48298329      24.58417396        2      -0.00357415       0.00194207      -0.03596605
Pt       8.42164223       6.48298338      24.58417376        2      -0.00004370      -0.00403973      -0.03600984
Pt       0.01274934       0.02720167      26.89843483        1       0.00295017      -0.00161056      -0.00165867
Pt       2.80721530       0.00000360      26.91800377        1       0.00000642      -0.00002566      -0.00407085
Pt       5.60183906       0.02692547      26.89992506        1      -0.00255595      -0.00167342      -0.00179073
Pt       1.38657866       2.40674305      26.89993730        1       0.00271543      -0.00136454      -0.00177461
Pt       4.22799779       2.40648780      26.89839304        1      -0.00284680      -0.00176319      -0.00167642
Pt       7.01803417       2.43111640      26.92751919        1      -0.00000302       0.00001920      -0.00440342
Pt       2.80721390       4.86223601      27.07456108        1       0.00000317       0.00001208      -0.04859995
Pt       5.64404315       4.85969006      26.89993319        1      -0.00014144       0.00304453      -0.00179531
Pt       8.39172028       4.85967087      26.89841487        1      -0.00012169       0.00335989      -0.00167591
O        2.80721396       4.86223676      30.08662262        0       0.00000056       0.00000006       0.02657753
C        2.80721381       4.86223710      28.92432908        0      -0.00000127       0.00000042       0.02417771
