38
Lattice="8.421641763931781 0.0 0.0 4.2108208819658905 7.293355709136913 0.0 0.0 0.0 46.87624170604845" Properties=species:S:1:pos:R:3:tags:I:1:forces:R:3 charge=0 spin=0 energy=-202.87961864114513 free_energy=-202.87961864114513 stress="0.009741525165736675 0.0002570232027210295 -1.4364196431415621e-05 0.0002570232027210295 0.010073963552713394 9.450920970266452e-07 -1.4364196431415621e-05 9.450920970266452e-07 -0.00035314509295858443" pbc="T T T"
Pt      -0.00000010      -0.00000005      19.95723451        4       0.00438935      -0.00153919       0.00697040
Pt       2.80721394      -0.00000020      19.95723457        4      -0.00243696      -0.00136373       0.01530185
Pt       5.61442787      -0.00000008      19.95723465        4      -0.00113594      -0.00322836       0.01803447
Pt       1.40360721       2.43111841      19.95723445        4      -0.01116126      -0.01618269      -0.00400648
Pt       4.21082082       2.43111837      19.95723453        4      -0.00715317       0.00509140       0.02538384
Pt       7.01803480       2.43111844      19.95723439        4      -0.00097108       0.00149757       0.01999581
Pt       2.80721416       4.86223734      19.95723425        4       0.00964311       0.01758791      -0.00640399
Pt       5.61442796       4.86223739      19.95723443        4      -0.00345003       0.00244888       0.01311896
Pt       8.42164143       4.86223725      19.95723447        4       0.00056213       0.00004611       0.02182078
Pt       1.40360729       0.81037262      22.29206795        3       0.00180407       0.03714214      -0.08353081
Pt       4.21082131       0.81037249      22.29206793        3      -0.01194824       0.00465346      -0.01849520
Pt       7.01803470       0.81037255      22.29206785        3       0.00795560      -0.00285810      -0.06890140
Pt       2.80721448       3.24149122      22.29206774        3      -0.07064728       0.03883589      -0.21872620
Pt       5.61442764       3.24149121      22.29206791        3      -0.02105278       0.00946877      -0.02002472
Pt       8.42164154       3.24149129      22.29206806        3       0.05102018      -0.01645190      -0.11205482
Pt       4.21082091       5.67260997      22.29206741        3      -0.02949541      -0.01933683      -0.08154711
Pt       7.01803487       5.67261038      22.29206779        3       0.00641376      -0.00537916      -0.00991876
Pt       9.82524821       5.67261068      22.29206808        3       0.04302527      -0.03699449      -0.11290984
Pt      -0.00000053       1.62074567      24.58417372        2       0.02050565       0.02580570      -0.06295680
Pt       2.80721436       1.62074552      24.58417391        2       0.01943027      -0.20082992       0.26632521
Pt       5.61442781       1.62074537      24.58417374        2      -0.00032511       0.00456978      -0.02681586
Pt       1.40360639       4.05186438      24.58417385        2       0.04061156      -0.02323374      -0.16415675
Pt       4.21082087       4.05186396      24.58417384        2       0.19500136       0.08632142       0.26457566
Pt       7.01803504       4.05186408      24.58417403        2      -0.11987770       0.07145973       0.14859349
Pt       2.80721276       6.48298348      24.58417381        2      -0.00930802      -0.03249061      -0.07120527
Pt       5.61442804       6.48298329      24.58417396        2       0.06198421      -0.03731574       0.15613891
Pt       8.42164223       6.48298338      24.58417376        2      -0.13071802       0.06727124       0.15643960
Pt      -0.04584594       0.02461557      26.89128037        1       0.01065625      -0.00319071       0.00992140
Pt       2.80862917       0.01020691      27.06353025        1      -0.01870213      -0.01050271      -0.00674782
Pt       5.61554129       0.00258449      26.90951750        1      -0.00800643      -0.00781681      -0.01211562
Pt       1.41415381       2.42794441      26.91154184        1      -0.00300604      -0.00272173      -0.00721781
Pt       4.21397124       2.42895084      26.90548309        1      -0.00376692       0.00167989       0.00483572
Pt       7.01637328       2.42907754      26.91115544        1       0.00049735       0.01212240      -0.01050177
Pt       2.81505358       4.85360849      26.91109675        1       0.00106062       0.00577137      -0.00778106
Pt       5.60767599       4.85407463      27.06454691        1      -0.00634119       0.02222368      -0.00662805
Pt       8.47802980       4.83023129      26.89662827        1      -0.02567624       0.01413852      -0.01136570
O        6.34043456       6.06304373      29.70043789        0       0.01726926      -0.00876697      -0.00941259
C        6.34239788       6.06284556      28.51217361        0      -0.00665002       0.00206728       0.00596822
