38
Lattice="8.421641763931781 0.0 0.0 4.2108208819658905 7.293355709136913 0.0 0.0 0.0 46.87624170604845" Properties=species:S:1:pos:R:3:tags:I:1:forces:R:3 charge=0 spin=0 energy=-202.88602542520275 free_energy=-202.88602542520275 stress="0.009942448697984219 -1.858762743722764e-08 7.665169610149292e-10 -1.858762743722764e-08 0.009942453354597092 -1.6416311865441457e-08 7.665169610149292e-10 -1.6416311865441457e-08 -0.00042280342313461006" pbc="T T T"
Pt      -0.00000010      -0.00000005      19.95723451        4       0.00069091      -0.01587756       0.00963437
Pt       2.80721394      -0.00000020      19.95723457        4      -0.00211909       0.00158423       0.02362101
Pt       5.61442787      -0.00000008      19.95723465        4       0.00242072       0.00100656       0.02361866
Pt       1.40360721       2.43111841      19.95723445        4       0.01341309       0.00855813       0.00969609
Pt       4.21082082       2.43111837      19.95723453        4      -0.00176147       0.00274985       0.01080400
Pt       7.01803480       2.43111844      19.95723439        4      -0.01410601       0.00732410       0.00963562
Pt       2.80721416       4.86223734      19.95723425        4       0.00329758       0.00013782       0.01085404
Pt       5.61442796       4.86223739      19.95723443        4      -0.00153639      -0.00289572       0.01078608
Pt       8.42164143       4.86223725      19.95723447        4      -0.00029851      -0.00258795       0.02366334
Pt       1.40360729       0.81037262      22.29206795        3      -0.05349632       0.02876922      -0.15858787
Pt       4.21082131       0.81037249      22.29206793        3      -0.00362956       0.01224653      -0.02483105
Pt       7.01803470       0.81037255      22.29206785        3       0.05157317       0.03194842      -0.15863758
Pt       2.80721448       3.24149122      22.29206774        3      -0.01994353      -0.01328652      -0.06293146
Pt       5.61442764       3.24149121      22.29206791        3       0.02150931      -0.01070537      -0.06293959
Pt       8.42164154       3.24149129      22.29206806        3       0.00192752      -0.06071291      -0.15863086
Pt       4.21082091       5.67260997      22.29206741        3      -0.00157341       0.02399716      -0.06303839
Pt       7.01803487       5.67261038      22.29206779        3      -0.00880432      -0.00925751      -0.02494387
Pt       9.82524821       5.67261068      22.29206808        3       0.01243777      -0.00299747      -0.02498565
Pt      -0.00000053       1.62074567      24.58417372        2      -0.00000064      -0.00000060      -0.21476574
Pt       2.80721436       1.62074552      24.58417391        2       0.09023423       0.04205757       0.11794057
Pt       5.61442781       1.62074537      24.58417374        2      -0.08557756       0.03871958       0.11624850
Pt       1.40360639       4.05186438      24.58417385        2       0.07641887       0.05484037       0.11641151
Pt       4.21082087       4.05186396      24.58417384        2      -0.00000063       0.00000409       0.13542970
Pt       7.01803504       4.05186408      24.58417403        2      -0.08164017       0.05722689       0.11801323
Pt       2.80721276       6.48298348      24.58417381        2      -0.00859180      -0.09928680       0.11781721
Pt       5.61442804       6.48298329      24.58417396        2       0.00915868      -0.09355947       0.11624267
Pt       8.42164223       6.48298338      24.58417376        2      -0.00000637      -0.00000295      -0.01608797
Pt      -0.00100535       0.01810206      26.89737877        1       0.00095717       0.04052670      -0.00538709
Pt       2.81004637      -0.00248118      26.90937573        1      -0.00847101       0.00410713      -0.00031302
Pt       5.61085919      -0.00121283      26.90937976        1       0.00780175       0.00528537      -0.00032421
Pt       1.38842781       2.42119527      26.89738078        1      -0.03556357      -0.01941601      -0.00539331
Pt       4.21136464       2.41301813      27.01779510        1       0.00088623      -0.01630903      -0.01612355
Pt       7.03421174       2.42293799      26.89738146        1       0.03462294      -0.02110125      -0.00539256
Pt       2.79127030       4.87081528      27.01779354        1      -0.01458569       0.00738585      -0.01612033
Pt       5.62983250       4.87175950      27.01779324        1       0.01367227       0.00891823      -0.01611292
Pt       8.42237436       4.86593388      26.90937631        1       0.00068601      -0.00939965      -0.00031444
O        4.21082337       4.05186259      29.55135509        0       0.00000088       0.00000414       0.03771542
C        4.21082371       4.05186365      28.35093495        0      -0.00000313      -0.00000127       0.02772952
