38
Lattice="8.421641763931781 0.0 0.0 4.2108208819658905 7.293355709136913 0.0 0.0 0.0 46.87624170604845" Properties=species:S:1:pos:R:3:tags:I:1:forces:R:3 charge=0 spin=0 energy=-202.9126806223463 free_energy=-202.9126806223463 stress="0.009917943738400936 7.3137194078753964e-09 2.9156754788317585e-10 7.3137194078753964e-09 0.009917967021465302 4.1042373055688586e-08 2.9156754788317585e-10 4.1042373055688586e-08 -0.00043635923066176474" pbc="T T T"
Pt      -0.00000010      -0.00000005      19.95723451        4      -0.00086908      -0.00082218       0.01723780
Pt       2.80721394      -0.00000020      19.95723457        4       0.00117395      -0.00034296       0.01717932
Pt       5.61442787      -0.00000008      19.95723465        4      -0.00011350       0.01755088       0.01072139
Pt       1.40360721       2.43111841      19.95723445        4      -0.00030645       0.00117359       0.01723661
Pt       4.21082082       2.43111837      19.95723453        4      -0.00100694      -0.00366140       0.01329118
Pt       7.01803480       2.43111844      19.95723439        4       0.00368938       0.00097786       0.01334282
Pt       2.80721416       4.86223734      19.95723425        4       0.01521790      -0.00865050       0.01076259
Pt       5.61442796       4.86223739      19.95723443        4      -0.00268100       0.00267802       0.01331725
Pt       8.42164143       4.86223725      19.95723447        4      -0.01510390      -0.00890379       0.01074707
Pt       1.40360729       0.81037262      22.29206795        3      -0.00000120       0.00000055      -0.00960490
Pt       4.21082131       0.81037249      22.29206793        3       0.02397927      -0.03095572      -0.06543026
Pt       7.01803470       0.81037255      22.29206785        3      -0.02549563      -0.02363736      -0.06682550
Pt       2.80721448       3.24149122      22.29206774        3      -0.00769610       0.03397475      -0.06673757
Pt       5.61442764       3.24149121      22.29206791        3       0.00000153       0.00000108      -0.07411756
Pt       8.42164154       3.24149129      22.29206806        3       0.01472855       0.03627726      -0.06543253
Pt       4.21082091       5.67260997      22.29206741        3      -0.03871022      -0.00531469      -0.06536064
Pt       7.01803487       5.67261038      22.29206779        3       0.03318067      -0.01033507      -0.06678367
Pt       9.82524821       5.67261068      22.29206808        3       0.00000860      -0.00001068      -0.28143764
Pt      -0.00000053       1.62074567      24.58417372        2       0.06132663      -0.03575068       0.15462925
Pt       2.80721436       1.62074552      24.58417391        2      -0.06163443      -0.03519387       0.15467708
Pt       5.61442781       1.62074537      24.58417374        2       0.00228957      -0.02609253      -0.06615658
Pt       1.40360639       4.05186438      24.58417385        2      -0.00141647      -0.10812154       0.12025748
Pt       4.21082087       4.05186396      24.58417384        2      -0.02375041       0.01097998      -0.06625675
Pt       7.01803504       4.05186408      24.58417403        2       0.02146539       0.01510835      -0.06630912
Pt       2.80721276       6.48298348      24.58417381        2       0.09437558       0.05275137       0.12029122
Pt       5.61442804       6.48298329      24.58417396        2       0.00032081       0.07095036       0.15455773
Pt       8.42164223       6.48298338      24.58417376        2      -0.09296959       0.05536868       0.12028616
Pt      -0.02400952      -0.01592061      27.01570308        1       0.00651186       0.00373538      -0.00287752
Pt       2.83299751      -0.01282467      27.01570404        1      -0.00645259       0.00374916      -0.00288553
Pt       5.61387794      -0.00338540      26.90698542        1       0.00083621       0.00590180       0.00030165
Pt       1.40182294       2.45986601      27.01570397        1      -0.00001590      -0.00748310      -0.00288386
Pt       4.22685525       2.44199910      26.89884914        1       0.02960086       0.01575740      -0.00265353
Pt       7.00060370       2.43955883      26.89885111        1      -0.02847626       0.01776850      -0.00265822
Pt       2.80455422       4.86439929      26.90696987        1       0.00469841      -0.00364728       0.00034680
Pt       5.61584328       4.84291766      26.89883898        1      -0.00117930      -0.03353124      -0.00261770
Pt       8.42484975       4.86346261      26.90697795        1      -0.00552281      -0.00224869       0.00032214
O        1.40360446       0.81037440      29.53989879        0      -0.00000442      -0.00000358       0.01431084
C        1.40360325       0.81037307      28.33849794        0       0.00000115       0.00000198       0.01321259
