38
Lattice="8.421641763931781 0.0 0.0 4.2108208819658905 7.293355709136913 0.0 0.0 0.0 46.87624170604845" Properties=species:S:1:pos:R:3:tags:I:1:forces:R:3 charge=0 spin=0 energy=-202.91278648019542 free_energy=-202.91278648019542 stress="0.009971517138183117 2.7660904677873077e-09 5.189003005057202e-09 2.7660904677873077e-09 0.00997153203934431 3.5002610587753225e-08 5.189003005057202e-09 3.5002610587753225e-08 -0.0003317038353998214" pbc="T T T"
Pt      -0.00000010      -0.00000005      19.95723451        4      -0.01513635      -0.00893811       0.01086134
Pt       2.80721394      -0.00000020      19.95723457        4       0.01527052      -0.00864755       0.01087240
Pt       5.61442787      -0.00000008      19.95723465        4      -0.00261688       0.00265536       0.01326705
Pt       1.40360721       2.43111841      19.95723445        4      -0.00013537       0.01759340       0.01084191
Pt       4.21082082       2.43111837      19.95723453        4      -0.00120536      -0.00103990       0.01745195
Pt       7.01803480       2.43111844      19.95723439        4       0.00152723      -0.00053373       0.01739242
Pt       2.80721416       4.86223734      19.95723425        4       0.00362838       0.00093321       0.01329627
Pt       5.61442796       4.86223739      19.95723443        4      -0.00032035       0.00156760       0.01744253
Pt       8.42164143       4.86223725      19.95723447        4      -0.00101145      -0.00359227       0.01323820
Pt       1.40360729       0.81037262      22.29206795        3      -0.00000061       0.00000044      -0.28044304
Pt       4.21082131       0.81037249      22.29206793        3      -0.03856299      -0.00521723      -0.06506779
Pt       7.01803470       0.81037255      22.29206785        3       0.03311386      -0.01021022      -0.06619371
Pt       2.80721448       3.24149122      22.29206774        3      -0.02536168      -0.02363418      -0.06623147
Pt       5.61442764       3.24149121      22.29206791        3       0.00000264       0.00000042      -0.01226878
Pt       8.42164154       3.24149129      22.29206806        3       0.02383272      -0.03088327      -0.06511459
Pt       4.21082091       5.67260997      22.29206741        3       0.01473045       0.03610653      -0.06510464
Pt       7.01803487       5.67261038      22.29206779        3      -0.00776126       0.03384525      -0.06614267
Pt       9.82524821       5.67261068      22.29206808        3       0.00000859      -0.00001056      -0.07464029
Pt      -0.00000053       1.62074567      24.58417372        2      -0.09317639       0.05522765       0.13473089
Pt       2.80721436       1.62074552      24.58417391        2       0.09435469       0.05301076       0.13474768
Pt       5.61442781       1.62074537      24.58417374        2       0.00011203       0.06976056       0.16784510
Pt       1.40360639       4.05186438      24.58417385        2       0.00247759      -0.03167387      -0.06475366
Pt       4.21082087       4.05186396      24.58417384        2       0.06040268      -0.03496379       0.16789164
Pt       7.01803504       4.05186408      24.58417403        2      -0.06050139      -0.03478909       0.16793893
Pt       2.80721276       6.48298348      24.58417381        2       0.02620433       0.01806509      -0.06487913
Pt       5.61442804       6.48298329      24.58417396        2      -0.00119538      -0.10823617       0.13471714
Pt       8.42164223       6.48298338      24.58417376        2      -0.02868001       0.01360835      -0.06481017
Pt       0.00282642       0.00033114      26.91103712        1       0.00140001       0.00372719      -0.01239808
Pt       2.80551621       0.00228430      26.91103553        1      -0.00393226      -0.00065500      -0.01239229
Pt       5.61544260      -0.02615262      26.90106724        1      -0.00007238       0.01723055      -0.00425003
Pt       1.40247970       2.42850786      26.91103802        1       0.00252419      -0.00307549      -0.01239920
Pt       4.18688011       2.41619207      27.01816836        1       0.01180410       0.00460826      -0.00611017
Pt       7.04293261       2.41785120      27.01816942        1      -0.00988619       0.00791234      -0.00611970
Pt       2.78405404       4.87443916      26.90105836        1       0.01496478      -0.00855606      -0.00422628
Pt       5.61346988       4.89043214      27.01816452        1      -0.00191212      -0.01251394      -0.00610192
Pt       8.44378539       4.87619737      26.90105775        1      -0.01488843      -0.00868812      -0.00422467
O        5.61442762       3.24149260      29.54575371        0      -0.00000206       0.00000114      -0.01642701
C        5.61442779       3.24149040      28.34420422        0      -0.00000008       0.00000429       0.00776365
