38
Lattice="8.421641763931781 0.0 0.0 4.2108208819658905 7.293355709136913 0.0 0.0 0.0 46.87624170604845" Properties=species:S:1:pos:R:3:tags:I:1:forces:R:3 charge=0 spin=0 energy=-202.91268539071788 free_energy=-202.91268539071788 stress="0.009917954914271832 8.230609971349168e-09 3.240467894016774e-09 8.230609971349168e-09 0.009917959570884705 4.0310595750270295e-08 3.240467894016774e-09 4.0310595750270295e-08 -0.0004364270134828985" pbc="T T T"
Pt      -0.00000010      -0.00000005      19.95723451        4      -0.00011467       0.01755111       0.01071946
Pt       2.80721394      -0.00000020      19.95723457        4      -0.00086827      -0.00082246       0.01723969
Pt       5.61442787      -0.00000008      19.95723465        4       0.00117404      -0.00034314       0.01717932
Pt       1.40360721       2.43111841      19.95723445        4       0.00369050       0.00098031       0.01334301
Pt       4.21082082       2.43111837      19.95723453        4      -0.00030483       0.00117144       0.01723579
Pt       7.01803480       2.43111844      19.95723439        4      -0.00100981      -0.00366126       0.01329186
Pt       2.80721416       4.86223734      19.95723425        4      -0.01511033      -0.00890412       0.01075368
Pt       5.61442796       4.86223739      19.95723443        4       0.01522141      -0.00865143       0.01075290
Pt       8.42164143       4.86223725      19.95723447        4      -0.00267854       0.00267935       0.01332026
Pt       1.40360729       0.81037262      22.29206795        3      -0.02549620      -0.02363788      -0.06682340
Pt       4.21082131       0.81037249      22.29206793        3      -0.00000114       0.00000448      -0.00960727
Pt       7.01803470       0.81037255      22.29206785        3       0.02398080      -0.03095940      -0.06542951
Pt       2.80721448       3.24149122      22.29206774        3       0.01471841       0.03628028      -0.06543391
Pt       5.61442764       3.24149121      22.29206791        3      -0.00768736       0.03397119      -0.06673523
Pt       8.42164154       3.24149129      22.29206806        3       0.00000322       0.00000142      -0.07411943
Pt       4.21082091       5.67260997      22.29206741        3      -0.00000401       0.00000107      -0.28141764
Pt       7.01803487       5.67261038      22.29206779        3      -0.03871010      -0.00531913      -0.06537440
Pt       9.82524821       5.67261068      22.29206808        3       0.03319325      -0.01034204      -0.06678749
Pt      -0.00000053       1.62074567      24.58417372        2       0.00229320      -0.02609785      -0.06615926
Pt       2.80721436       1.62074552      24.58417391        2       0.06132255      -0.03574892       0.15463281
Pt       5.61442781       1.62074537      24.58417374        2      -0.06163428      -0.03519112       0.15468219
Pt       1.40360639       4.05186438      24.58417385        2       0.02147212       0.01510731      -0.06631138
Pt       4.21082087       4.05186396      24.58417384        2      -0.00142012      -0.10811757       0.12025847
Pt       7.01803504       4.05186408      24.58417403        2      -0.02375411       0.01097920      -0.06624837
Pt       2.80721276       6.48298348      24.58417381        2      -0.09295131       0.05536523       0.12027891
Pt       5.61442804       6.48298329      24.58417396        2       0.09435955       0.05275499       0.12029452
Pt       8.42164223       6.48298338      24.58417376        2       0.00031823       0.07094907       0.15456904
Pt      -0.00054990      -0.00338566      26.90698491        1       0.00083647       0.00590236       0.00030403
Pt       2.78320532      -0.01592037      27.01570425        1       0.00649625       0.00372774      -0.00289350
Pt       5.64021055      -0.01282437      27.01570636        1      -0.00643448       0.00373957      -0.00290932
Pt       1.38617548       2.43955869      26.89885050        1      -0.02847545       0.01776779      -0.00265960
Pt       4.20903694       2.45986564      27.01570513        1      -0.00001639      -0.00746779      -0.00290014
Pt       7.03406912       2.44199942      26.89884923        1       0.02959870       0.01575798      -0.00265375
Pt       2.81042220       4.86346251      26.90697726        1      -0.00552207      -0.00224866       0.00032672
Pt       5.61176840       4.86439948      26.90697024        1       0.00470189      -0.00364754       0.00034082
Pt       8.42305724       4.84291748      26.89883918        1      -0.00118198      -0.03353091      -0.00262321
O        4.21081805       0.81037434      29.53989659        0      -0.00000650      -0.00000178       0.01447890
C        4.21081696       0.81037312      28.33849644        0       0.00000118       0.00000127       0.01308422
