38
Lattice="8.421641763931781 0.0 0.0 4.2108208819658905 7.293355709136913 0.0 0.0 0.0 46.87624170604845" Properties=species:S:1:pos:R:3:tags:I:1:forces:R:3 charge=0 spin=0 energy=-202.8796224558424 free_energy=-202.8796224558424 stress="0.009768674150109291 -0.00027259785565547645 7.86934015195584e-06 -0.00027259785565547645 0.01004683505743742 1.1856408491439652e-05 7.86934015195584e-06 1.1856408491439652e-05 -0.0003531884285621345" pbc="T T T"
Pt      -0.00000010      -0.00000005      19.95723451        4      -0.00841788       0.01775391      -0.00403769
Pt       2.80721394      -0.00000020      19.95723457        4      -0.00022507      -0.00049198       0.02187999
Pt       5.61442787      -0.00000008      19.95723465        4       0.00001634       0.00277271       0.01525712
Pt       1.40360721       2.43111841      19.95723445        4       0.00181343       0.00009172       0.02004990
Pt       4.21082082       2.43111837      19.95723453        4       0.00384147       0.00174845       0.01313391
Pt       7.01803480       2.43111844      19.95723439        4      -0.00354078      -0.00300140       0.00691756
Pt       2.80721416       4.86223734      19.95723425        4       0.00798088       0.00360394       0.02538659
Pt       5.61442796       4.86223739      19.95723443        4       0.01039893      -0.01712842      -0.00642433
Pt       8.42164143       4.86223725      19.95723447        4      -0.00223576       0.00261693       0.01805101
Pt       1.40360729       0.81037262      22.29206795        3      -0.03974491      -0.03600867      -0.11204861
Pt       4.21082131       0.81037249      22.29206793        3      -0.00780781      -0.00288730      -0.00994314
Pt       7.01803470       0.81037255      22.29206785        3       0.03117157      -0.02023121      -0.08353952
Pt       2.80721448       3.24149122      22.29206774        3       0.01875722       0.01358380      -0.02008542
Pt       5.61442764       3.24149121      22.29206791        3      -0.00196839       0.03524919      -0.08155630
Pt       8.42164154       3.24149129      22.29206806        3      -0.00643503      -0.00542327      -0.06886955
Pt       4.21082091       5.67260997      22.29206741        3       0.06887292       0.04174779      -0.21871684
Pt       7.01803487       5.67261038      22.29206779        3      -0.05348495      -0.01874597      -0.11284193
Pt       9.82524821       5.67261068      22.29206808        3       0.00996528       0.00802776      -0.01850611
Pt      -0.00000053       1.62074567      24.58417372        2       0.01204471      -0.03056683      -0.06285497
Pt       2.80721436       1.62074552      24.58417391        2       0.12184379       0.06820291       0.14866243
Pt       5.61442781       1.62074537      24.58417374        2      -0.06325436      -0.03505965       0.15605783
Pt       1.40360639       4.05186438      24.58417385        2       0.00416138      -0.00185616      -0.02680537
Pt       4.21082087       4.05186396      24.58417384        2      -0.02260804      -0.21221583       0.26455286
Pt       7.01803504       4.05186408      24.58417403        2      -0.02357093       0.02429058      -0.07123543
Pt       2.80721276       6.48298348      24.58417381        2      -0.18355641       0.08348642       0.26628900
Pt       5.61442804       6.48298329      24.58417396        2      -0.04052460      -0.02365866      -0.16408634
Pt       8.42164223       6.48298338      24.58417376        2       0.12352434       0.07964886       0.15636094
Pt      -0.00802394      -0.00754730      26.91154180        1      -0.00084813       0.00396289      -0.00721868
Pt       2.75130108      -0.03282984      26.89662674        1       0.02508341       0.01516413      -0.01136662
Pt       5.62255892      -0.00632850      27.06352950        1       0.00025219       0.02145205      -0.00673518
Pt       1.40266980       2.43357812      26.91115570        1       0.01025516      -0.00649377      -0.01050061
Pt       4.20712856       2.44104701      27.06454591        1       0.02242120      -0.00562965      -0.00660793
Pt       7.06227649       2.45851452      26.89127965        1      -0.00809739      -0.00762939       0.00993029
Pt       2.80376229       4.86059209      26.90548501        1       0.00333724       0.00242695       0.00482785
Pt       5.60303628       4.85976364      26.91109582        1       0.00446572      -0.00381012      -0.00778225
Pt       8.42332550       4.85997987      26.90951744        1      -0.00277570       0.01084646      -0.01211882
O        4.88774670       1.20197406      29.70043870        0      -0.01622762      -0.01057109      -0.00926325
C        4.88659272       1.20037291      28.51217563        0       0.00511644       0.00473184       0.00578730
