38
Lattice="8.421641763931781 0.0 0.0 4.2108208819658905 7.293355709136913 0.0 0.0 0.0 46.87624170604845" Properties=species:S:1:pos:R:3:tags:I:1:forces:R:3 charge=0 spin=0 energy=-202.91267966867198 free_energy=-202.91267966867198 stress="0.00991793442517519 4.90642237949146e-09 2.3135680038421924e-09 4.90642237949146e-09 0.009917945601046085 4.212949988868786e-08 2.3135680038421924e-09 4.212949988868786e-08 -0.0004363134503364563" pbc="T T T"
Pt      -0.00000010      -0.00000005      19.95723451        4      -0.00268240       0.00268552       0.01331746
Pt       2.80721394      -0.00000020      19.95723457        4      -0.01510742      -0.00889768       0.01074626
Pt       5.61442787      -0.00000008      19.95723465        4       0.01522090      -0.00864430       0.01075464
Pt       1.40360721       2.43111841      19.95723445        4       0.00117407      -0.00034411       0.01718201
Pt       4.21082082       2.43111837      19.95723453        4      -0.00011163       0.01754759       0.01072355
Pt       7.01803480       2.43111844      19.95723439        4      -0.00086908      -0.00082582       0.01724211
Pt       2.80721416       4.86223734      19.95723425        4      -0.00101166      -0.00366457       0.01329731
Pt       5.61442796       4.86223739      19.95723443        4       0.00369078       0.00097381       0.01333849
Pt       8.42164143       4.86223725      19.95723447        4      -0.00030352       0.00116847       0.01723509
Pt       1.40360729       0.81037262      22.29206795        3       0.03318344      -0.01033024      -0.06678448
Pt       4.21082131       0.81037249      22.29206793        3      -0.00000136       0.00000521      -0.28143841
Pt       7.01803470       0.81037255      22.29206785        3      -0.03870690      -0.00531438      -0.06537817
Pt       2.80721448       3.24149122      22.29206774        3       0.02397407      -0.03095714      -0.06543002
Pt       5.61442764       3.24149121      22.29206791        3      -0.02549274      -0.02363838      -0.06682394
Pt       8.42164154       3.24149129      22.29206806        3       0.00000411       0.00000058      -0.00960666
Pt       4.21082091       5.67260997      22.29206741        3      -0.00000474       0.00000160      -0.07410167
Pt       7.01803487       5.67261038      22.29206779        3       0.01472129       0.03627331      -0.06542893
Pt       9.82524821       5.67261068      22.29206808        3      -0.00768059       0.03396085      -0.06673793
Pt      -0.00000053       1.62074567      24.58417372        2       0.00032713       0.07095215       0.15455975
Pt       2.80721436       1.62074552      24.58417391        2      -0.09296601       0.05537359       0.12028269
Pt       5.61442781       1.62074537      24.58417374        2       0.09436242       0.05276298       0.12029746
Pt       1.40360639       4.05186438      24.58417385        2      -0.06162777      -0.03519348       0.15467073
Pt       4.21082087       4.05186396      24.58417384        2       0.00229242      -0.02609008      -0.06616537
Pt       7.01803504       4.05186408      24.58417403        2       0.06132128      -0.03574563       0.15462820
Pt       2.80721276       6.48298348      24.58417381        2      -0.02373832       0.01096730      -0.06625661
Pt       5.61442804       6.48298329      24.58417396        2       0.02146390       0.01510141      -0.06631241
Pt       8.42164223       6.48298338      24.58417376        2      -0.00142850      -0.10812777       0.12026360
Pt       0.00141533      -0.01931890      26.89883879        1      -0.00117958      -0.03353896      -0.00261827
Pt       2.81042214       0.00122520      26.90697802        1      -0.00552365      -0.00224927       0.00032341
Pt       5.61176814       0.00216209      26.90697165        1       0.00470043      -0.00364564       0.00034347
Pt       1.42939025       2.41829403      27.01570400        1      -0.00644091       0.00374223      -0.00288924
Pt       4.21027106       2.42773300      26.90698513        1       0.00083813       0.00590100       0.00030507
Pt       6.99402606       2.41519808      27.01570236        1       0.00650028       0.00373176      -0.00287858
Pt       2.82324767       4.87311760      26.89884853        1       0.02960596       0.01576232      -0.00265008
Pt       5.59699715       4.87067712      26.89885096        1      -0.02848000       0.01777182      -0.00266019
Pt       8.41985755       4.89098438      27.01570385        1      -0.00002015      -0.00747506      -0.00288633
O        8.42163932       3.24149307      29.53989833        0      -0.00000571      -0.00000304       0.01417621
C        8.42163767       3.24149157      28.33849589        0       0.00000203       0.00000208       0.01335968
