38
Lattice="8.421641763931781 0.0 0.0 4.2108208819658905 7.293355709136913 0.0 0.0 0.0 46.87624170604845" Properties=species:S:1:pos:R:3:tags:I:1:forces:R:3 charge=0 spin=0 energy=-202.91206073404064 free_energy=-202.91206073404064 stress="0.009984035044908524 4.984670898267041e-09 -1.6820983494980624e-09 4.984670898267041e-09 0.009984060190618038 4.0322557737226816e-08 -1.6820983494980624e-09 4.0322557737226816e-08 -0.000300876097753644" pbc="T T T"
Pt      -0.00000010      -0.00000005      19.95723451        4      -0.01525588      -0.00890148       0.01066473
Pt       2.80721394      -0.00000020      19.95723457        4       0.01529812      -0.00876955       0.01067512
Pt       5.61442787      -0.00000008      19.95723465        4      -0.00267922       0.00279337       0.01343491
Pt       1.40360721       2.43111841      19.95723445        4      -0.00004354       0.01767946       0.01064520
Pt       4.21082082       2.43111837      19.95723453        4      -0.00094475      -0.00092047       0.01727188
Pt       7.01803480       2.43111844      19.95723439        4       0.00129398      -0.00036689       0.01721342
Pt       2.80721416       4.86223734      19.95723425        4       0.00377887       0.00091782       0.01346640
Pt       5.61442796       4.86223739      19.95723443        4      -0.00034823       0.00128204       0.01726486
Pt       8.42164143       4.86223725      19.95723447        4      -0.00109982      -0.00371527       0.01340857
Pt       1.40360729       0.81037262      22.29206795        3      -0.00000149       0.00000080      -0.27931505
Pt       4.21082131       0.81037249      22.29206793        3      -0.03834818      -0.00538037      -0.06507617
Pt       7.01803470       0.81037255      22.29206785        3       0.03302846      -0.01040993      -0.06642464
Pt       2.80721448       3.24149122      22.29206774        3      -0.02549299      -0.02346163      -0.06646073
Pt       5.61442764       3.24149121      22.29206791        3       0.00000308      -0.00000029      -0.01061146
Pt       8.42164154       3.24149129      22.29206806        3       0.02386483      -0.03061037      -0.06512468
Pt       4.21082091       5.67260997      22.29206741        3       0.01448219       0.03599820      -0.06511072
Pt       7.01803487       5.67261038      22.29206779        3      -0.00754601       0.03387414      -0.06636521
Pt       9.82524821       5.67261068      22.29206808        3       0.00000870      -0.00000951      -0.07606395
Pt      -0.00000053       1.62074567      24.58417372        2      -0.09206451       0.05484534       0.12830694
Pt       2.80721436       1.62074552      24.58417391        2       0.09346265       0.05225103       0.12831424
Pt       5.61442781       1.62074537      24.58417374        2       0.00036007       0.06672588       0.15599066
Pt       1.40360639       4.05186438      24.58417385        2       0.00225007      -0.02790593      -0.05021271
Pt       4.21082087       4.05186396      24.58417384        2       0.05764371      -0.03366392       0.15602931
Pt       7.01803504       4.05186408      24.58417403        2      -0.05799117      -0.03305175       0.15607944
Pt       2.80721276       6.48298348      24.58417381        2       0.02305790       0.01596754      -0.05034484
Pt       5.61442804       6.48298329      24.58417396        2      -0.00141287      -0.10708589       0.12827291
Pt       8.42164223       6.48298338      24.58417376        2      -0.02530112       0.01191800      -0.05028025
Pt       0.00654123       0.00254021      26.91239734        1      -0.02384494      -0.01069337      -0.01477210
Pt       2.80174363       0.00439501      26.91239548        1       0.02119342      -0.01530039      -0.01476533
Pt       5.61607307      -0.01968586      26.90198502        1      -0.00171081      -0.03629961      -0.01518661
Pt       1.40253877       2.42418468      26.91240831        1       0.00264324       0.02600129      -0.01480322
Pt       4.18761576       2.41598992      27.01293333        1       0.02510523       0.01400253       0.03318918
Pt       7.04273967       2.41859028      27.01293397        1      -0.02467911       0.01472455       0.03318829
Pt       2.78934327       4.87065693      26.90198649        1      -0.03059145       0.01963099      -0.01519499
Pt       5.61292696       4.88989543      27.01292589        1      -0.00041149      -0.02873580       0.03321013
Pt       8.43787094       4.87350514      26.90198488        1       0.03228745       0.01666815      -0.01519001
O        5.61442586       3.24149522      29.54890628        0       0.00000022      -0.00000057      -0.04375100
C        5.61442495       3.24149137      28.34771414        0       0.00000515       0.00000182      -0.03157251
