38
Lattice="8.421641763931781 0.0 0.0 4.2108208819658905 7.293355709136913 0.0 0.0 0.0 46.87624170604845" Properties=species:S:1:pos:R:3:tags:I:1:forces:R:3 charge=0 spin=0 energy=-202.87921142221202 free_energy=-202.87921142221202 stress="0.010221925564110279 1.3780434528598562e-05 9.214854799211025e-06 1.3780434528598562e-05 0.009590739384293556 6.7277392190590035e-06 9.214854799211025e-06 6.7277392190590035e-06 -0.0003527963999658823" pbc="T T T"
Pt      -0.00000010      -0.00000005      19.95723451        4      -0.00072468      -0.00918750       0.02554987
Pt       2.80721394      -0.00000020      19.95723457        4       0.00252253      -0.00161832       0.01510783
Pt       5.61442787      -0.00000008      19.95723465        4      -0.00029427      -0.00435806       0.01301396
Pt       1.40360721       2.43111841      19.95723445        4       0.00341682       0.00007434       0.01775778
Pt       4.21082082       2.43111837      19.95723453        4      -0.00019958       0.00011334       0.02179345
Pt       7.01803480       2.43111844      19.95723439        4      -0.00061979      -0.00222105       0.01975735
Pt       2.80721416       4.86223734      19.95723425        4      -0.01978995      -0.00101475      -0.00631557
Pt       5.61442796       4.86223739      19.95723443        4       0.01951027      -0.00210565      -0.00384713
Pt       8.42164143       4.86223725      19.95723447        4      -0.00069415       0.00417845       0.00724419
Pt       1.40360729       0.81037262      22.29206795        3       0.00168061      -0.01475985      -0.01903873
Pt       4.21082131       0.81037249      22.29206793        3       0.00150076       0.00656981      -0.00831699
Pt       7.01803470       0.81037255      22.29206785        3       0.00303044      -0.02508316      -0.02035412
Pt       2.80721448       3.24149122      22.29206774        3       0.00995170       0.05453298      -0.11212198
Pt       5.61442764       3.24149121      22.29206791        3      -0.01053383       0.05164513      -0.11149239
Pt       8.42164154       3.24149129      22.29206806        3      -0.00133027       0.00670340      -0.06886152
Pt       4.21082091       5.67260997      22.29206741        3       0.00175723      -0.08153557      -0.21877253
Pt       7.01803487       5.67261038      22.29206779        3      -0.03277181      -0.01837138      -0.08527745
Pt       9.82524821       5.67261068      22.29206808        3       0.03126831      -0.01760144      -0.08298973
Pt      -0.00000053       1.62074567      24.58417372        2      -0.00486543      -0.00312487      -0.02959873
Pt       2.80721436       1.62074552      24.58417391        2       0.01397916      -0.13930131       0.15459339
Pt       5.61442781       1.62074537      24.58417374        2      -0.00941733      -0.13336170       0.14779897
Pt       1.40360639       4.05186438      24.58417385        2       0.03286784       0.01248873      -0.07672371
Pt       4.21082087       4.05186396      24.58417384        2      -0.00089337       0.04936578      -0.16025464
Pt       7.01803504       4.05186408      24.58417403        2      -0.03379557       0.00860831      -0.06889796
Pt       2.80721276       6.48298348      24.58417381        2      -0.16923882       0.13590753       0.27081591
Pt       5.61442804       6.48298329      24.58417396        2       0.15875380       0.12669367       0.27104917
Pt       8.42164223       6.48298338      24.58417376        2       0.00133782       0.07740339       0.16149236
Pt      -0.00036183       0.01354499      26.91243127        1      -0.00128908      -0.02670801      -0.01708541
Pt       2.79653510       0.00569121      27.06267873        1       0.02714784      -0.03385900      -0.00199307
Pt       5.62367578       0.00744952      27.06507427        1      -0.01413340      -0.03868916      -0.01250751
Pt       1.40159514       2.43452692      26.90697181        1       0.00294064       0.01116555      -0.00210483
Pt       4.20988552       2.50603876      26.90186201        1      -0.00044653      -0.03727449      -0.02578545
Pt       7.01799882       2.43448310      26.90872752        1      -0.00149287       0.00712647      -0.00048821
Pt       2.80813775       4.88135912      26.90868043        1       0.00304504      -0.00129443      -0.00051722
Pt       5.61319260       4.88106628      26.90931239        1      -0.00463728      -0.00109347      -0.00018999
Pt       8.42245388       4.81290167      26.89056003        1      -0.00165199       0.03283106       0.01071431
O        4.21047326       0.07944197      29.69932335        0      -0.00212325       0.00644287      -0.00925358
C        4.21011510       0.06291987      28.51111322        0      -0.00376765       0.00071244       0.00609994
