38
Lattice="8.421641763931781 0.0 0.0 4.2108208819658905 7.293355709136913 0.0 0.0 0.0 46.87624170604845" Properties=species:S:1:pos:R:3:tags:I:1:forces:R:3 charge=0 spin=0 energy=-202.88632106424083 free_energy=-202.88632106424083 stress="0.010008854791522026 -2.0169286685245424e-08 8.579422727805763e-10 -2.0169286685245424e-08 0.010008870624005795 -1.1171535696519186e-08 8.579422727805763e-10 -1.1171535696519186e-08 -0.0002951303031295538" pbc="T T T"
Pt      -0.00000010      -0.00000005      19.95723451        4      -0.01408034       0.00736735       0.00965534
Pt       2.80721394      -0.00000020      19.95723457        4       0.01343399       0.00851778       0.00971675
Pt       5.61442787      -0.00000008      19.95723465        4      -0.00175110       0.00274725       0.01099015
Pt       1.40360721       2.43111841      19.95723445        4      -0.00024727      -0.00297374       0.02376136
Pt       4.21082082       2.43111837      19.95723453        4       0.00329053       0.00013363       0.01103648
Pt       7.01803480       2.43111844      19.95723439        4      -0.00153863      -0.00287847       0.01097985
Pt       2.80721416       4.86223734      19.95723425        4       0.00272930       0.00124316       0.02372159
Pt       5.61442796       4.86223739      19.95723443        4       0.00064527      -0.01588295       0.00965712
Pt       8.42164143       4.86223725      19.95723447        4      -0.00248169       0.00172639       0.02371745
Pt       1.40360729       0.81037262      22.29206795        3       0.00179058      -0.06062004      -0.15753525
Pt       4.21082131       0.81037249      22.29206793        3      -0.01969556      -0.01313798      -0.06245270
Pt       7.01803470       0.81037255      22.29206785        3       0.02126116      -0.01056733      -0.06246358
Pt       2.80721448       3.24149122      22.29206774        3       0.01246599      -0.00294315      -0.02605808
Pt       5.61442764       3.24149121      22.29206791        3      -0.00156326       0.02371259      -0.06257054
Pt       8.42164154       3.24149129      22.29206806        3      -0.00878386      -0.00931111      -0.02602185
Pt       4.21082091       5.67260997      22.29206741        3       0.05155579       0.03178549      -0.15752384
Pt       7.01803487       5.67261038      22.29206779        3      -0.05335464       0.02883456      -0.15748900
Pt       9.82524821       5.67261068      22.29206808        3      -0.00367711       0.01224944      -0.02590679
Pt      -0.00000053       1.62074567      24.58417372        2      -0.08323155       0.05929492       0.12942123
Pt       2.80721436       1.62074552      24.58417391        2       0.07734305       0.05647165       0.12704729
Pt       5.61442781       1.62074537      24.58417374        2      -0.00000221       0.00000297       0.14669923
Pt       1.40360639       4.05186438      24.58417385        2       0.00000618      -0.00000041       0.00365538
Pt       4.21082087       4.05186396      24.58417384        2      -0.00959773      -0.10169694       0.12922524
Pt       7.01803504       4.05186408      24.58417403        2       0.01010139      -0.09517609       0.12689382
Pt       2.80721276       6.48298348      24.58417381        2      -0.08743823       0.03870112       0.12688370
Pt       5.61442804       6.48298329      24.58417396        2      -0.00000457      -0.00000461      -0.23094141
Pt       8.42164223       6.48298338      24.58417376        2       0.09282575       0.04239870       0.12934582
Pt       0.02200234      -0.01147475      26.89887671        1      -0.01248022       0.00620063      -0.00273661
Pt       2.78627719      -0.01331888      26.89887587        1       0.01160648       0.00770943      -0.00273583
Pt       5.61591076      -0.01875222      27.01984472        1      -0.00252725       0.01112942      -0.00531330
Pt       1.40395340       2.43266522      26.91395114        1       0.00141078       0.00884722      -0.01663064
Pt       4.19384028       2.43920860      27.01984362        1       0.01089584      -0.00336720      -0.00532157
Pt       7.03353363       2.44177815      27.01984262        1      -0.00837485      -0.00775787      -0.00531226
Pt       2.80569966       4.86176296      26.91395070        1      -0.00836385      -0.00320820      -0.01662512
Pt       5.61336304       4.88702646      26.89887650        1       0.00087003      -0.01390169      -0.00273670
Pt       8.42280883       4.86116227      26.91395003        1       0.00696081      -0.00563939      -0.01662362
O        5.61442925       1.62074907      29.55952882        0       0.00000007      -0.00000497      -0.01318175
C        5.61442847       1.62074702      28.35899462        0       0.00000082      -0.00000143       0.00377246
