38
Lattice="8.421641763931781 0.0 0.0 4.2108208819658905 7.293355709136913 0.0 0.0 0.0 46.87624170604845" Properties=species:S:1:pos:R:3:tags:I:1:forces:R:3 charge=0 spin=0 energy=-202.81940269113292 free_energy=-202.81940269113292 stress="0.009595594368875027 -8.564708764424722e-08 -5.408379966098664e-09 -8.564708764424722e-08 0.00959561113268137 -4.45917329727763e-08 -5.408379966098664e-09 -4.45917329727763e-08 -0.0003314991481602192" pbc="T T T"
Pt      -0.00000010      -0.00000005      19.95723451        4      -0.00701334       0.00637197       0.01996296
Pt       2.80721394      -0.00000020      19.95723457        4      -0.00000075       0.00000270       0.02237049
Pt       5.61442787      -0.00000008      19.95723465        4       0.00647550       0.00543869       0.01939664
Pt       1.40360721       2.43111841      19.95723445        4      -0.00795149       0.00290212       0.01944352
Pt       4.21082082       2.43111837      19.95723453        4       0.00901695       0.00289699       0.01999861
Pt       7.01803480       2.43111844      19.95723439        4      -0.00000017       0.00000005      -0.06854500
Pt       2.80721416       4.86223734      19.95723425        4      -0.00000290      -0.00000296       0.01783301
Pt       5.61442796       4.86223739      19.95723443        4       0.00147701      -0.00834142       0.01937683
Pt       8.42164143       4.86223725      19.95723447        4      -0.00199977      -0.00926894       0.02001693
Pt       1.40360729       0.81037262      22.29206795        3      -0.00463960      -0.00411568      -0.06331562
Pt       4.21082131       0.81037249      22.29206793        3      -0.00120289       0.00607046      -0.06330783
Pt       7.01803470       0.81037255      22.29206785        3      -0.00146036       0.06240125      -0.11424723
Pt       2.80721448       3.24149122      22.29206774        3      -0.00414847       0.00279295      -0.02747052
Pt       5.61442764       3.24149121      22.29206791        3       0.05479944      -0.02997630      -0.11424658
Pt       8.42164154       3.24149129      22.29206806        3      -0.05333174      -0.03241915      -0.11423036
Pt       4.21082091       5.67260997      22.29206741        3      -0.00035323      -0.00505504      -0.02770463
Pt       7.01803487       5.67261038      22.29206779        3       0.00584099      -0.00195096      -0.06354402
Pt       9.82524821       5.67261068      22.29206808        3       0.00449522       0.00225394      -0.02769495
Pt      -0.00000053       1.62074567      24.58417372        2      -0.04300218       0.02552399      -0.12852632
Pt       2.80721436       1.62074552      24.58417391        2       0.00351614       0.00194214      -0.03879260
Pt       5.61442781       1.62074537      24.58417374        2       0.04375811       0.02445484      -0.12864105
Pt       1.40360639       4.05186438      24.58417385        2       0.24209982       0.14131312       0.34524184
Pt       4.21082087       4.05186396      24.58417384        2      -0.24335022       0.13912140       0.34519458
Pt       7.01803504       4.05186408      24.58417403        2      -0.00075406      -0.04999775      -0.12838131
Pt       2.80721276       6.48298348      24.58417381        2       0.00131667      -0.28041402       0.34523910
Pt       5.61442804       6.48298329      24.58417396        2      -0.00343550       0.00199479      -0.03854665
Pt       8.42164223       6.48298338      24.58417376        2      -0.00015499      -0.00394033      -0.03859317
Pt       0.01325935       0.02769429      26.89773508        1      -0.00224506      -0.00790664       0.00183984
Pt       2.80721583       0.00000023      26.91822445        1      -0.00000080       0.00000103      -0.00345898
Pt       5.60121092       0.02739146      26.89925549        1       0.00300419      -0.00788066       0.00156465
Pt       1.38648746       2.40596753      26.89926916        1       0.00532422       0.00654284       0.00156664
Pt       4.22817139       2.40579774      26.89769148        1      -0.00572300       0.00589500       0.00183159
Pt       7.01803330       2.43111879      26.92724716        1       0.00000067       0.00000004      -0.00283984
Pt       2.80721390       4.86223692      27.07653871        1       0.00000233       0.00000232      -0.00620342
Pt       5.64476368       4.86000004      26.89926208        1      -0.00832604       0.00133991       0.00156989
Pt       8.39103300       4.85986641      26.89771340        1       0.00796976       0.00200698       0.00183861
O        2.80721411       4.86223687      30.09112820        0       0.00000034      -0.00000042      -0.00738336
C        2.80721364       4.86223716      28.92857385        0      -0.00000062       0.00000040       0.00138804
