38
Lattice="8.421641763931781 0.0 0.0 4.2108208819658905 7.293355709136913 0.0 0.0 0.0 46.87624170604845" Properties=species:S:1:pos:R:3:tags:I:1:forces:R:3 charge=0 spin=0 energy=-202.81937121988048 free_energy=-202.81937121988048 stress="0.009599286131560802 -8.421928043844673e-08 -5.2299848896097956e-09 -8.421928043844673e-08 0.0095992935821414 -4.836714850853241e-08 -5.2299848896097956e-09 -4.836714850853241e-08 -0.00037730648182332516" pbc="T T T"
Pt      -0.00000010      -0.00000005      19.95723451        4       0.00646210       0.00539837       0.01943483
Pt       2.80721394      -0.00000020      19.95723457        4      -0.00700063       0.00633211       0.01999583
Pt       5.61442787      -0.00000008      19.95723465        4      -0.00000076       0.00000255       0.02237036
Pt       1.40360721       2.43111841      19.95723445        4       0.00000094       0.00000221      -0.06873567
Pt       4.21082082       2.43111837      19.95723453        4      -0.00790806       0.00291002       0.01948201
Pt       7.01803480       2.43111844      19.95723439        4       0.00897340       0.00290624       0.02003059
Pt       2.80721416       4.86223734      19.95723425        4      -0.00197760      -0.00923879       0.02005482
Pt       5.61442796       4.86223739      19.95723443        4       0.00000028      -0.00000408       0.01772622
Pt       8.42164143       4.86223725      19.95723447        4       0.00145064      -0.00830904       0.01941945
Pt       1.40360729       0.81037262      22.29206795        3      -0.00144948       0.06260461      -0.11474138
Pt       4.21082131       0.81037249      22.29206793        3      -0.00462001      -0.00409670      -0.06353363
Pt       7.01803470       0.81037255      22.29206785        3      -0.00119852       0.00604181      -0.06352080
Pt       2.80721448       3.24149122      22.29206774        3      -0.05352453      -0.03250914      -0.11472744
Pt       5.61442764       3.24149121      22.29206791        3      -0.00409276       0.00278450      -0.02735341
Pt       8.42164154       3.24149129      22.29206806        3       0.05497162      -0.03008754      -0.11474408
Pt       4.21082091       5.67260997      22.29206741        3       0.00445561       0.00222728      -0.02756271
Pt       7.01803487       5.67261038      22.29206779        3      -0.00037187      -0.00501702      -0.02760464
Pt       9.82524821       5.67261068      22.29206808        3       0.00583008      -0.00194863      -0.06376438
Pt      -0.00000053       1.62074567      24.58417372        2       0.04291189       0.02406586      -0.12517655
Pt       2.80721436       1.62074552      24.58417391        2      -0.04225308       0.02498572      -0.12506780
Pt       5.61442781       1.62074537      24.58417374        2       0.00354764       0.00209368      -0.03621364
Pt       1.40360639       4.05186438      24.58417385        2      -0.00065105      -0.04906734      -0.12490306
Pt       4.21082087       4.05186396      24.58417384        2       0.24015124       0.14028804       0.34262076
Pt       7.01803504       4.05186408      24.58417403        2      -0.24148966       0.13795410       0.34258112
Pt       2.80721276       6.48298348      24.58417381        2      -0.00002191      -0.00404538      -0.03601616
Pt       5.61442804       6.48298329      24.58417396        2       0.00137364      -0.27821264       0.34261683
Pt       8.42164223       6.48298338      24.58417376        2      -0.00357629       0.00193957      -0.03595790
Pt      -0.01258862       0.02692497      26.89992482        1      -0.00255633      -0.00167218      -0.00179317
Pt       2.81996365       0.02720168      26.89843576        1       0.00295065      -0.00161039      -0.00165623
Pt       5.61442892       0.00000343      26.91800338        1       0.00000596      -0.00002245      -0.00406829
Pt       1.40360640       2.43111622      26.92751645        1      -0.00000314       0.00001974      -0.00439878
Pt       4.19379238       2.40674304      26.89993890        1       0.00272148      -0.00136172      -0.00178112
Pt       7.03521147       2.40648784      26.89839391        1      -0.00284982      -0.00176322      -0.00167616
Pt       2.77729224       4.85967092      26.89841577        1      -0.00012027       0.00335683      -0.00168390
Pt       5.61442828       4.86223657      27.07456137        1      -0.00000005       0.00000876      -0.04860483
Pt       8.45125698       4.85969028      26.89993472        1      -0.00014167       0.00304491      -0.00180019
O        5.61442807       4.86223681      30.08662467        0      -0.00000075       0.00000111       0.02657652
C        5.61442780       4.86223723      28.92433242        0       0.00000111      -0.00000171       0.02417635
