38
Lattice="8.421641763931781 0.0 0.0 4.2108208819658905 7.293355709136913 0.0 0.0 0.0 46.87624170604845" Properties=species:S:1:pos:R:3:tags:I:1:forces:R:3 charge=0 spin=0 energy=-202.81927585244884 free_energy=-202.81927585244884 stress="0.009581483900547028 -5.733050301159892e-08 9.201860251550897e-08 -5.733050301159892e-08 0.009581493213772774 1.576167676375917e-07 9.201860251550897e-08 1.576167676375917e-07 -0.0003885873011313379" pbc="T T T"
Pt      -0.00000010      -0.00000005      19.95723451        4       0.00151929      -0.00829898       0.01952193
Pt       2.80721394      -0.00000020      19.95723457        4      -0.00209530      -0.00929188       0.02011648
Pt       5.61442787      -0.00000008      19.95723465        4      -0.00000022       0.00000896       0.01755309
Pt       1.40360721       2.43111841      19.95723445        4       0.00000284       0.00000590       0.02220783
Pt       4.21082082       2.43111837      19.95723453        4       0.00642842       0.00545164       0.01953360
Pt       7.01803480       2.43111844      19.95723439        4      -0.00698991       0.00646113       0.02005995
Pt       2.80721416       4.86223734      19.95723425        4       0.00908304       0.00283318       0.02009785
Pt       5.61442796       4.86223739      19.95723443        4      -0.00000851      -0.00001358      -0.06919451
Pt       8.42164143       4.86223725      19.95723447        4      -0.00793984       0.00285142       0.01958699
Pt       1.40360729       0.81037262      22.29206795        3       0.00574016      -0.00193734      -0.06338303
Pt       4.21082131       0.81037249      22.29206793        3       0.00455357       0.00207972      -0.02838480
Pt       7.01803470       0.81037255      22.29206785        3      -0.00054171      -0.00499839      -0.02841868
Pt       2.80721448       3.24149122      22.29206774        3      -0.00113575       0.00599693      -0.06317635
Pt       5.61442764       3.24149121      22.29206791        3      -0.00138442       0.06274996      -0.11446711
Pt       8.42164154       3.24149129      22.29206806        3      -0.00457567      -0.00399382      -0.06318094
Pt       4.21082091       5.67260997      22.29206741        3       0.05505807      -0.03019247      -0.11443052
Pt       7.01803487       5.67261038      22.29206779        3      -0.05366034      -0.03252476      -0.11440599
Pt       9.82524821       5.67261068      22.29206808        3      -0.00398600       0.00294325      -0.02819272
Pt      -0.00000053       1.62074567      24.58417372        2      -0.00582568       0.00050533      -0.03972584
Pt       2.80721436       1.62074552      24.58417391        2       0.00215259      -0.00541375      -0.03978915
Pt       5.61442781       1.62074537      24.58417374        2       0.00191949      -0.27272868       0.34062579
Pt       1.40360639       4.05186438      24.58417385        2       0.00349377       0.00452541      -0.04006156
Pt       4.21082087       4.05186396      24.58417384        2       0.04153034       0.02367922      -0.12956473
Pt       7.01803504       4.05186408      24.58417403        2      -0.04128452       0.02398457      -0.12944549
Pt       2.80721276       6.48298348      24.58417381        2      -0.23709984       0.13475989       0.34082437
Pt       5.61442804       6.48298329      24.58417396        2      -0.00031337      -0.04770530      -0.12916940
Pt       8.42164223       6.48298338      24.58417376        2       0.23530722       0.13819751       0.34111491
Pt       0.03081935      -0.00225541      26.90058208        1      -0.01006212      -0.00041950      -0.00368809
Pt       2.77562857      -0.00141381      26.89951750        1       0.01085103      -0.00289390      -0.00497562
Pt       5.61436981      -0.00009600      27.06841270        1       0.00029074       0.00049468      -0.01484699
Pt       1.40356509       2.43102284      26.91542141        1       0.00005158       0.00015745       0.00906554
Pt       4.19724639       2.45885349      26.90049648        1       0.00555567      -0.00840848      -0.00343568
Pt       7.03266928       2.45911478      26.89945592        1      -0.00817473      -0.00814034      -0.00474920
Pt       2.82408285       4.83552744      26.89940451        1      -0.00274604       0.01090633      -0.00467552
Pt       5.61437860       4.86217171      26.92444914        1       0.00006907       0.00005867       0.00754900
Pt       8.40432422       4.83663331      26.90051507        1       0.00442407       0.00868118      -0.00338918
O        5.61481492       0.00065447      30.08158638        0       0.00011424       0.00021362       0.01041151
C        5.61470064       0.00047516      28.91915787        0      -0.00032103      -0.00058485       0.02648203
