38
Lattice="8.421641763931781 0.0 0.0 4.2108208819658905 7.293355709136913 0.0 0.0 0.0 46.87624170604845" Properties=species:S:1:pos:R:3:tags:I:1:forces:R:3 charge=0 spin=0 energy=-202.87962150216808 free_energy=-202.87962150216808 stress="0.0097415242344141 0.00025702815037220716 -1.4362218280439265e-05 0.00025702815037220716 0.010073963552713394 9.427805593986704e-07 -1.4362218280439265e-05 9.427805593986704e-07 -0.00035322312032803893" pbc="T T T"
Pt      -0.00000010      -0.00000005      19.95723451        4      -0.00113714      -0.00322817       0.01803282
Pt       2.80721394      -0.00000020      19.95723457        4       0.00439030      -0.00153934       0.00697199
Pt       5.61442787      -0.00000008      19.95723465        4      -0.00243685      -0.00136407       0.01530161
Pt       1.40360721       2.43111841      19.95723445        4      -0.00096991       0.00149983       0.01999600
Pt       4.21082082       2.43111837      19.95723453        4      -0.01115911      -0.01618488      -0.00400716
Pt       7.01803480       2.43111844      19.95723439        4      -0.00715630       0.00509115       0.02538445
Pt       2.80721416       4.86223734      19.95723425        4       0.00055601       0.00004604       0.02182803
Pt       5.61442796       4.86223739      19.95723443        4       0.00964610       0.01758690      -0.00641406
Pt       8.42164143       4.86223725      19.95723447        4      -0.00344728       0.00245047       0.01312223
Pt       1.40360729       0.81037262      22.29206795        3       0.00795494      -0.00285834      -0.06889956
Pt       4.21082131       0.81037249      22.29206793        3       0.00180403       0.03714713      -0.08353528
Pt       7.01803470       0.81037255      22.29206785        3      -0.01194711       0.00464961      -0.01849456
Pt       2.80721448       3.24149122      22.29206774        3       0.05100925      -0.01644893      -0.11205573
Pt       5.61442764       3.24149121      22.29206791        3      -0.07063782       0.03883272      -0.21872264
Pt       8.42164154       3.24149129      22.29206806        3      -0.02105119       0.00946925      -0.02002606
Pt       4.21082091       5.67260997      22.29206741        3       0.04301200      -0.03698239      -0.11289034
Pt       7.01803487       5.67261038      22.29206779        3      -0.02949494      -0.01934101      -0.08156154
Pt       9.82524821       5.67261068      22.29206808        3       0.00642650      -0.00538654      -0.00992179
Pt      -0.00000053       1.62074567      24.58417372        2      -0.00032251       0.00456386      -0.02682138
Pt       2.80721436       1.62074552      24.58417391        2       0.02050129       0.02580817      -0.06295834
Pt       5.61442781       1.62074537      24.58417374        2       0.01943131      -0.20082672       0.26632699
Pt       1.40360639       4.05186438      24.58417385        2      -0.11986856       0.07146019       0.14858973
Pt       4.21082087       4.05186396      24.58417384        2       0.04060562      -0.02322894      -0.16415571
Pt       7.01803504       4.05186408      24.58417403        2       0.19499810       0.08631838       0.26457959
Pt       2.80721276       6.48298348      24.58417381        2      -0.13069808       0.06726570       0.15643148
Pt       5.61442804       6.48298329      24.58417396        2      -0.00932514      -0.03248610      -0.07120561
Pt       8.42164223       6.48298338      24.58417376        2       0.06198260      -0.03731736       0.15614702
Pt       0.00111351       0.00258394      26.90951569        1      -0.00800656      -0.00781551      -0.01211373
Pt       2.76136852       0.02461574      26.89128079        1       0.01065466      -0.00319234       0.00992240
Pt       5.61584319       0.01020684      27.06353124        1      -0.01870202      -0.01050106      -0.00675611
Pt       1.40194561       2.42907797      26.91115457        1       0.00049722       0.01212091      -0.01049567
Pt       4.22136776       2.42794423      26.91154192        1      -0.00300327      -0.00272161      -0.00721858
Pt       7.02118491       2.42895098      26.90548336        1      -0.00376689       0.00167836       0.00483606
Pt       2.86360227       4.83023108      26.89662749        1      -0.02567171       0.01413808      -0.01136843
Pt       5.62226758       4.85360850      26.91109618        1       0.00105915       0.00577120      -0.00778070
Pt       8.41488993       4.85407451      27.06454801        1      -0.00634444       0.02222172      -0.00663542
O        9.14764737       6.06304444      29.70043839        0       0.01726818      -0.00876447      -0.00924565
C        9.14961067       6.06284630      28.51217480        0      -0.00665045       0.00206815       0.00581381
