38
Lattice="8.421641763931781 0.0 0.0 4.2108208819658905 7.293355709136913 0.0 0.0 0.0 46.87624170604845" Properties=species:S:1:pos:R:3:tags:I:1:forces:R:3 charge=0 spin=0 energy=-202.88632106424083 free_energy=-202.88632106424083 stress="0.010008849203586578 -1.758178669319932e-08 4.835581934869992e-10 -1.758178669319932e-08 0.010008865036070347 -7.355723585789065e-09 4.835581934869992e-10 -7.355723585789065e-09 -0.0002950687485281378" pbc="T T T"
Pt      -0.00000010      -0.00000005      19.95723451        4      -0.00248588       0.00173272       0.02371474
Pt       2.80721394      -0.00000020      19.95723457        4       0.00273199       0.00124968       0.02371397
Pt       5.61442787      -0.00000008      19.95723465        4       0.00064471      -0.01587600       0.00965911
Pt       1.40360721       2.43111841      19.95723445        4      -0.00175071       0.00274625       0.01099291
Pt       4.21082082       2.43111837      19.95723453        4      -0.01407736       0.00736381       0.00965894
Pt       7.01803480       2.43111844      19.95723439        4       0.01343312       0.00851424       0.00971940
Pt       2.80721416       4.86223734      19.95723425        4      -0.00154045      -0.00288168       0.01098536
Pt       5.61442796       4.86223739      19.95723443        4      -0.00024712      -0.00298041       0.02375661
Pt       8.42164143       4.86223725      19.95723447        4       0.00329195       0.00013080       0.01103551
Pt       1.40360729       0.81037262      22.29206795        3      -0.00368695       0.01226089      -0.02590355
Pt       4.21082131       0.81037249      22.29206793        3       0.05155911       0.03178953      -0.15754312
Pt       7.01803470       0.81037255      22.29206785        3      -0.05335143       0.02883929      -0.15749349
Pt       2.80721448       3.24149122      22.29206774        3       0.02125449      -0.01056418      -0.06246500
Pt       5.61442764       3.24149121      22.29206791        3       0.00179421      -0.06062072      -0.15753670
Pt       8.42164154       3.24149129      22.29206806        3      -0.01969040      -0.01314139      -0.06245160
Pt       4.21082091       5.67260997      22.29206741        3      -0.00879203      -0.00931088      -0.02600334
Pt       7.01803487       5.67261038      22.29206779        3       0.01246905      -0.00294969      -0.02605393
Pt       9.82524821       5.67261068      22.29206808        3      -0.00155680       0.02370220      -0.06257260
Pt      -0.00000053       1.62074567      24.58417372        2       0.09283689       0.04240267       0.12934519
Pt       2.80721436       1.62074552      24.58417391        2      -0.08745460       0.03870958       0.12689155
Pt       5.61442781       1.62074537      24.58417374        2      -0.00000143       0.00000276      -0.23093404
Pt       1.40360639       4.05186438      24.58417385        2       0.00000387       0.00000037       0.14669518
Pt       4.21082087       4.05186396      24.58417384        2      -0.08323517       0.05930239       0.12941612
Pt       7.01803504       4.05186408      24.58417403        2       0.07734399       0.05647358       0.12704434
Pt       2.80721276       6.48298348      24.58417381        2       0.01011541      -0.09518789       0.12689295
Pt       5.61442804       6.48298329      24.58417396        2      -0.00000339      -0.00000369       0.00365307
Pt       8.42164223       6.48298338      24.58417376        2      -0.00960491      -0.10170729       0.12923442
Pt       0.00116762      -0.00107498      26.91394916        1       0.00695754      -0.00563802      -0.01662451
Pt       2.80569939      -0.00047412      26.91395093        1      -0.00835995      -0.00320534      -0.01662911
Pt       5.61336288       0.02478950      26.89887770        1       0.00087043      -0.01390182      -0.00274037
Pt       1.40509015       2.41236633      27.01984476        1      -0.00252678       0.01112459      -0.00531762
Pt       4.23282318       2.41964393      26.89887708        1      -0.01247974       0.00619939      -0.00273627
Pt       6.99709797       2.41779978      26.89887593        1       0.01160542       0.00770929      -0.00273562
Pt       2.82271298       4.87289716      27.01984292        1      -0.00837226      -0.00775615      -0.00531522
Pt       5.61477446       4.86378472      26.91395074        1       0.00141150       0.00884331      -0.01662572
Pt       8.40466074       4.87032767      27.01984374        1       0.01089304      -0.00336633      -0.00532393
O        9.82525010       4.05186731      29.55952805        0       0.00000166      -0.00000450      -0.01332171
C        9.82524952       4.05186581      28.35899322        0      -0.00000116      -0.00000139       0.00391786
