38
Lattice="8.421641763931781 0.0 0.0 4.2108208819658905 7.293355709136913 0.0 0.0 0.0 46.87624170604845" Properties=species:S:1:pos:R:3:tags:I:1:forces:R:3 charge=0 spin=0 energy=-202.8798150980543 free_energy=-202.8798150980543 stress="0.010148715227842331 1.7170174032798968e-05 6.284240043896716e-06 1.7170174032798968e-05 0.009566964581608772 -2.518491783121135e-05 6.284240043896716e-06 -2.518491783121135e-05 -0.000437986571341753" pbc="T T T"
Pt      -0.00000010      -0.00000005      19.95723451        4      -0.00091738       0.00521092       0.00689491
Pt       2.80721394      -0.00000020      19.95723457        4      -0.02037404       0.00014522      -0.00680496
Pt       5.61442787      -0.00000008      19.95723465        4       0.01982802      -0.00100364      -0.00436373
Pt       1.40360721       2.43111841      19.95723445        4      -0.00056478      -0.00373135       0.01293001
Pt       4.21082082       2.43111837      19.95723453        4      -0.00093778      -0.00809876       0.02545341
Pt       7.01803480       2.43111844      19.95723439        4       0.00247922      -0.00092244       0.01514366
Pt       2.80721416       4.86223734      19.95723425        4      -0.00075462      -0.00099511       0.01984780
Pt       5.61442796       4.86223739      19.95723443        4       0.00333470       0.00112799       0.01791216
Pt       8.42164143       4.86223725      19.95723447        4      -0.00030154       0.00108446       0.02187223
Pt       1.40360729       0.81037262      22.29206795        3       0.03181053      -0.01441133      -0.08086310
Pt       4.21082131       0.81037249      22.29206793        3       0.00208955      -0.08004037      -0.21953063
Pt       7.01803470       0.81037255      22.29206785        3      -0.03296213      -0.01526983      -0.08303397
Pt       2.80721448       3.24149122      22.29206774        3       0.00210438      -0.02074677      -0.01830466
Pt       5.61442764       3.24149121      22.29206791        3       0.00262619      -0.01052183      -0.01683010
Pt       8.42164154       3.24149129      22.29206806        3       0.00171831       0.01041734      -0.01011164
Pt       4.21082091       5.67260997      22.29206741        3      -0.00146727       0.01078469      -0.06869794
Pt       7.01803487       5.67261038      22.29206779        3       0.01076162       0.05829936      -0.11344296
Pt       9.82524821       5.67261068      22.29206808        3      -0.01141705       0.05485310      -0.11218807
Pt      -0.00000053       1.62074567      24.58417372        2       0.00114193       0.06694280       0.14908777
Pt       2.80721436       1.62074552      24.58417391        2      -0.17100045       0.12562940       0.26351109
Pt       5.61442781       1.62074537      24.58417374        2       0.16243616       0.11687601       0.26495636
Pt       1.40360639       4.05186438      24.58417385        2       0.00225087      -0.15619197       0.12954231
Pt       4.21082087       4.05186396      24.58417384        2      -0.00463811      -0.01695890      -0.03456742
Pt       7.01803504       4.05186408      24.58417403        2       0.00272493      -0.16284344       0.13629641
Pt       2.80721276       6.48298348      24.58417381        2      -0.03169967      -0.00046826      -0.08025657
Pt       5.61442804       6.48298329      24.58417396        2       0.03052106       0.00441670      -0.08890390
Pt       8.42164223       6.48298338      24.58417376        2       0.00005286       0.04517051      -0.18823166
Pt       0.00020996      -0.06138313      26.88950688        1       0.00038698       0.01239392       0.02188403
Pt       2.81077966       0.00239258      26.90605710        1      -0.00392103       0.00390510       0.01042981
Pt       5.61101478       0.00240800      26.90671641        1       0.00316038       0.00424845       0.01036708
Pt       1.41227303       2.41724974      27.06405428        1      -0.00293852      -0.00353583      -0.00060095
Pt       4.21116569       2.42752361      26.90889311        1      -0.00005297      -0.00397015      -0.00853861
Pt       7.01080792       2.41695693      27.06280193        1       0.00192498      -0.00360636       0.00021586
Pt       2.80728042       4.85327322      26.90578808        1      -0.00118372      -0.01043513       0.00937835
Pt       5.61254783       4.85433793      26.90360062        1       0.00367562      -0.01107926       0.01047658
Pt       8.42089423       4.91486416      26.88766515        1       0.00029294      -0.01517473       0.01922418
O        8.42201415       2.44140493      29.70210224        0       0.00006329       0.01247079      -0.01743640
C        8.42193949       2.44221963      28.51385276        0      -0.00025386       0.00602890       0.00728319
