38
Lattice="8.421641763931781 0.0 0.0 4.2108208819658905 7.293355709136913 0.0 0.0 0.0 46.87624170604845" Properties=species:S:1:pos:R:3:tags:I:1:forces:R:3 charge=0 spin=0 energy=-202.9126806223463 free_energy=-202.9126806223463 stress="0.009917945601046085 3.647308899346058e-09 1.6430162785852076e-09 3.647308899346058e-09 0.009917950257658958 4.265990583007806e-08 1.6430162785852076e-09 4.265990583007806e-08 -0.0004363122279755771" pbc="T T T"
Pt      -0.00000010      -0.00000005      19.95723451        4       0.00117307      -0.00034288       0.01717739
Pt       2.80721394      -0.00000020      19.95723457        4      -0.00011390       0.01755122       0.01072154
Pt       5.61442787      -0.00000008      19.95723465        4      -0.00086810      -0.00082285       0.01723950
Pt       1.40360721       2.43111841      19.95723445        4      -0.00100876      -0.00365922       0.01329188
Pt       4.21082082       2.43111837      19.95723453        4       0.00369237       0.00097811       0.01334212
Pt       7.01803480       2.43111844      19.95723439        4      -0.00030753       0.00117135       0.01723664
Pt       2.80721416       4.86223734      19.95723425        4      -0.00268440       0.00267918       0.01332704
Pt       5.61442796       4.86223739      19.95723443        4      -0.01510698      -0.00890522       0.01074397
Pt       8.42164143       4.86223725      19.95723447        4       0.01522414      -0.00865026       0.01075576
Pt       1.40360729       0.81037262      22.29206795        3       0.02398005      -0.03095965      -0.06542750
Pt       4.21082131       0.81037249      22.29206793        3      -0.02549635      -0.02363412      -0.06682589
Pt       7.01803470       0.81037255      22.29206785        3      -0.00000040       0.00000113      -0.00960648
Pt       2.80721448       3.24149122      22.29206774        3      -0.00000749       0.00000431      -0.07412019
Pt       5.61442764       3.24149121      22.29206791        3       0.01472740       0.03627701      -0.06543199
Pt       8.42164154       3.24149129      22.29206806        3      -0.00768557       0.03397177      -0.06673574
Pt       4.21082091       5.67260997      22.29206741        3       0.03318053      -0.01033063      -0.06676941
Pt       7.01803487       5.67261038      22.29206779        3      -0.00000317      -0.00000327      -0.28143367
Pt       9.82524821       5.67261068      22.29206808        3      -0.03869776      -0.00532567      -0.06537831
Pt      -0.00000053       1.62074567      24.58417372        2      -0.06163010      -0.03519636       0.15467937
Pt       2.80721436       1.62074552      24.58417391        2       0.00228776      -0.02609516      -0.06615821
Pt       5.61442781       1.62074537      24.58417374        2       0.06132374      -0.03574521       0.15463312
Pt       1.40360639       4.05186438      24.58417385        2      -0.02374637       0.01097658      -0.06625243
Pt       4.21082087       4.05186396      24.58417384        2       0.02146805       0.01511046      -0.06631423
Pt       7.01803504       4.05186408      24.58417403        2      -0.00142358      -0.10812114       0.12026142
Pt       2.80721276       6.48298348      24.58417381        2       0.00033638       0.07094612       0.15455878
Pt       5.61442804       6.48298329      24.58417396        2      -0.09296768       0.05537070       0.12027836
Pt       8.42164223       6.48298338      24.58417376        2       0.09435706       0.05275361       0.12029933
Pt       0.02578317      -0.01282457      27.01570515        1      -0.00643828       0.00374394      -0.00290098
Pt       2.80666426      -0.00338558      26.90698518        1       0.00083539       0.00590252       0.00030479
Pt       5.59041894      -0.01592022      27.01570416        1       0.00649665       0.00372923      -0.00288717
Pt       1.41964138       2.44199912      26.89884884        1       0.02960186       0.01575862      -0.00265574
Pt       4.19338982       2.43955867      26.89885106        1      -0.02847650       0.01776831      -0.00265924
Pt       7.01625068       2.45986556      27.01570460        1      -0.00001637      -0.00746843      -0.00289590
Pt       2.80862953       4.84291773      26.89883856        1      -0.00118093      -0.03353498      -0.00261833
Pt       5.61763588       4.86346247      26.90697739        1      -0.00552386      -0.00224969       0.00032837
Pt       8.41898196       4.86439966      26.90697074        1       0.00470287      -0.00364730       0.00034177
O        7.01803245       0.81037423      29.53989734        0      -0.00000497      -0.00000330       0.01418739
C        7.01803053       0.81037313      28.33849615        0       0.00000171       0.00000119       0.01336283
