38
Lattice="8.421641763931781 0.0 0.0 4.2108208819658905 7.293355709136913 0.0 0.0 0.0 46.87624170604845" Properties=species:S:1:pos:R:3:tags:I:1:forces:R:3 charge=0 spin=0 energy=-202.87924098611583 free_energy=-202.87924098611583 stress="0.010156048461794853 1.743172833812423e-05 5.8962514231097884e-06 1.743172833812423e-05 0.009572021663188934 -2.605058762128465e-05 5.8962514231097884e-06 -2.605058762128465e-05 -0.0004238891997374594" pbc="T T T"
Pt      -0.00000010      -0.00000005      19.95723451        4      -0.02058914      -0.00031047      -0.00686750
Pt       2.80721394      -0.00000020      19.95723457        4       0.01992093      -0.00145765      -0.00421216
Pt       5.61442787      -0.00000008      19.95723465        4      -0.00088451       0.00499656       0.00679712
Pt       1.40360721       2.43111841      19.95723445        4      -0.00085343      -0.00828852       0.02534609
Pt       4.21082082       2.43111837      19.95723453        4       0.00259051      -0.00079552       0.01519398
Pt       7.01803480       2.43111844      19.95723439        4      -0.00060972      -0.00357436       0.01292749
Pt       2.80721416       4.86223734      19.95723425        4       0.00317816       0.00098016       0.01795765
Pt       5.61442796       4.86223739      19.95723443        4      -0.00048073       0.00115306       0.02175325
Pt       8.42164143       4.86223725      19.95723447        4      -0.00067418      -0.00129015       0.01998724
Pt       1.40360729       0.81037262      22.29206795        3       0.00200789      -0.07990280      -0.21907477
Pt       4.21082131       0.81037249      22.29206793        3      -0.03321031      -0.01517268      -0.08298574
Pt       7.01803470       0.81037255      22.29206785        3       0.03190224      -0.01426194      -0.08108360
Pt       2.80721448       3.24149122      22.29206774        3       0.00189736      -0.01110098      -0.01871276
Pt       5.61442764       3.24149121      22.29206791        3       0.00147413       0.01059667      -0.01113725
Pt       8.42164154       3.24149129      22.29206806        3       0.00228823      -0.02134103      -0.02010175
Pt       4.21082091       5.67260997      22.29206741        3       0.01007917       0.05721026      -0.11279535
Pt       7.01803487       5.67261038      22.29206779        3      -0.01075339       0.05394058      -0.11182891
Pt       9.82524821       5.67261068      22.29206808        3      -0.00139371       0.00985630      -0.06903140
Pt      -0.00000053       1.62074567      24.58417372        2      -0.17389213       0.11784976       0.25722438
Pt       2.80721436       1.62074552      24.58417391        2       0.16510485       0.10906336       0.25942919
Pt       5.61442781       1.62074537      24.58417374        2       0.00151733       0.06235721       0.14011763
Pt       1.40360639       4.05186438      24.58417385        2      -0.00437970      -0.00210110      -0.02937095
Pt       4.21082087       4.05186396      24.58417384        2       0.00284321      -0.15173545       0.13914743
Pt       7.01803504       4.05186408      24.58417403        2       0.00255858      -0.14512390       0.13338003
Pt       2.80721276       6.48298348      24.58417381        2       0.03720431      -0.00010002      -0.07007126
Pt       5.61442804       6.48298329      24.58417396        2      -0.00011979       0.05042216      -0.16166903
Pt       8.42164223       6.48298338      24.58417376        2      -0.03656128      -0.00400661      -0.06170380
Pt       0.00271387       0.00856473      26.91338887        1       0.00521862      -0.02903887      -0.01727588
Pt       2.80586315       0.00813729      26.91369460        1      -0.00741041      -0.02751333      -0.01660589
Pt       5.61616665      -0.06277006      26.88911663        1      -0.00375313      -0.00098312       0.01749360
Pt       1.40362213       2.42978874      26.90172144        1       0.00187694      -0.00716691       0.01915957
Pt       4.20597915       2.41672638      27.05750056        1      -0.01689861       0.00953038       0.00823165
Pt       7.02425256       2.41777355      27.05904878        1       0.01692503       0.00913794       0.00723852
Pt       2.80765891       4.85117682      26.90958533        1      -0.00629566       0.01842057      -0.01392865
Pt       5.61357831       4.91919019      26.88976259        1       0.00259084      -0.00647833       0.01183656
Pt       8.42037295       4.85155963      26.91157028        1       0.00653889       0.01383875      -0.01365229
O        5.61487673       2.44118000      29.69754157        0      -0.00090545       0.03891680       0.01380140
C        5.61420107       2.45362211      28.50967812        0       0.00194812      -0.03652669      -0.00491398
