38
Lattice="8.421641763931781 0.0 0.0 4.2108208819658905 7.293355709136913 0.0 0.0 0.0 46.87624170604845" Properties=species:S:1:pos:R:3:tags:I:1:forces:R:3 charge=0 spin=0 energy=-202.91205978036632 free_energy=-202.91205978036632 stress="0.009984037838876247 3.0199385214757513e-09 -9.032544157072664e-10 3.0199385214757513e-09 0.009984048083424568 4.004221665354635e-08 -9.032544157072664e-10 4.004221665354635e-08 -0.00030094728572294116" pbc="T T T"
Pt      -0.00000010      -0.00000005      19.95723451        4       0.00378084       0.00092436       0.01345700
Pt       2.80721394      -0.00000020      19.95723457        4      -0.00034900       0.00128967       0.01726685
Pt       5.61442787      -0.00000008      19.95723465        4      -0.00110292      -0.00370912       0.01340755
Pt       1.40360721       2.43111841      19.95723445        4      -0.01525467      -0.00890271       0.01066922
Pt       4.21082082       2.43111837      19.95723453        4       0.01530003      -0.00877261       0.01067701
Pt       7.01803480       2.43111844      19.95723439        4      -0.00267979       0.00279015       0.01343766
Pt       2.80721416       4.86223734      19.95723425        4      -0.00004634       0.01767395       0.01065044
Pt       5.61442796       4.86223739      19.95723443        4      -0.00094646      -0.00092471       0.01726798
Pt       8.42164143       4.86223725      19.95723447        4       0.00129838      -0.00036977       0.01721170
Pt       1.40360729       0.81037262      22.29206795        3       0.01448512       0.03599848      -0.06512649
Pt       4.21082131       0.81037249      22.29206793        3      -0.00754343       0.03388215      -0.06637040
Pt       7.01803470       0.81037255      22.29206785        3      -0.00000064       0.00000280      -0.07606284
Pt       2.80721448       3.24149122      22.29206774        3      -0.00000727       0.00000316      -0.27931747
Pt       5.61442764       3.24149121      22.29206791        3      -0.03834500      -0.00538490      -0.06507409
Pt       8.42164154       3.24149129      22.29206806        3       0.03303256      -0.01041068      -0.06642546
Pt       4.21082091       5.67260997      22.29206741        3      -0.02549051      -0.02346417      -0.06644237
Pt       7.01803487       5.67261038      22.29206779        3      -0.00000264      -0.00000390      -0.01060943
Pt       9.82524821       5.67261068      22.29206808        3       0.02386966      -0.03062161      -0.06512488
Pt      -0.00000053       1.62074567      24.58417372        2       0.02304740       0.01597483      -0.05033948
Pt       2.80721436       1.62074552      24.58417391        2      -0.00141154      -0.10708010       0.12827528
Pt       5.61442781       1.62074537      24.58417374        2      -0.02529470       0.01192748      -0.05028226
Pt       1.40360639       4.05186438      24.58417385        2      -0.09206148       0.05484888       0.12830427
Pt       4.21082087       4.05186396      24.58417384        2       0.09346410       0.05225539       0.12830845
Pt       7.01803504       4.05186408      24.58417403        2       0.00035903       0.06672338       0.15598798
Pt       2.80721276       6.48298348      24.58417381        2       0.00225708      -0.02791664      -0.05021489
Pt       5.61442804       6.48298329      24.58417396        2       0.05763826      -0.03367266       0.15602599
Pt       8.42164223       6.48298338      24.58417376        2      -0.05799386      -0.03305974       0.15607968
Pt      -0.01787055       0.00841964      26.90198666        1      -0.03059182       0.01963153      -0.01519431
Pt       2.80571310       0.02765812      27.01292506        1      -0.00041208      -0.02873616       0.03321589
Pt       5.63065716       0.01126799      26.90198602        1       0.03228702       0.01666735      -0.01518761
Pt       1.41014802       2.43365873      26.91239755        1      -0.02384550      -0.01069169      -0.01477108
Pt       4.20535070       2.43551365      26.91239564        1       0.02119254      -0.01530042      -0.01476548
Pt       7.01968043       2.41143229      26.90198477        1      -0.00171093      -0.03629758      -0.01518857
Pt       2.80614553       4.85530332      26.91240854        1       0.00264177       0.02600040      -0.01480477
Pt       5.59122251       4.84710875      27.01293174        1       0.02510784       0.01400177       0.03319390
Pt       8.44634634       4.84970916      27.01293310        1      -0.02467559       0.01472252       0.03318430
O        7.01803259       5.67261344      29.54890469        0      -0.00000255       0.00000093      -0.04360878
C        7.01803164       5.67261026      28.34771385        0       0.00000694       0.00000013      -0.03171050
