38
Lattice="8.421641763931781 0.0 0.0 4.2108208819658905 7.293355709136913 0.0 0.0 0.0 46.87624170604845" Properties=species:S:1:pos:R:3:tags:I:1:forces:R:3 charge=0 spin=0 energy=-202.8792104685377 free_energy=-202.8792104685377 stress="0.010221905075013638 1.3782046153210104e-05 9.207695256918669e-06 1.3782046153210104e-05 0.009590724483132362 6.724781087541487e-06 9.207695256918669e-06 6.724781087541487e-06 -0.0003528208762872964" pbc="T T T"
Pt      -0.00000010      -0.00000005      19.95723451        4      -0.00020241       0.00011673       0.02178982
Pt       2.80721394      -0.00000020      19.95723457        4      -0.00061891      -0.00221756       0.01975476
Pt       5.61442787      -0.00000008      19.95723465        4       0.00341645       0.00007541       0.01775491
Pt       1.40360721       2.43111841      19.95723445        4       0.01951015      -0.00209941      -0.00384202
Pt       4.21082082       2.43111837      19.95723453        4      -0.00069526       0.00418145       0.00724502
Pt       7.01803480       2.43111844      19.95723439        4      -0.01978843      -0.00101167      -0.00632087
Pt       2.80721416       4.86223734      19.95723425        4       0.00251990      -0.00162493       0.01511556
Pt       5.61442796       4.86223739      19.95723443        4      -0.00029376      -0.00436573       0.01301188
Pt       8.42164143       4.86223725      19.95723447        4      -0.00072044      -0.00919395       0.02555235
Pt       1.40360729       0.81037262      22.29206795        3      -0.01053735       0.05164631      -0.11149193
Pt       4.21082131       0.81037249      22.29206793        3      -0.00133577       0.00670752      -0.06886242
Pt       7.01803470       0.81037255      22.29206785        3       0.00995848       0.05453144      -0.11212185
Pt       2.80721448       3.24149122      22.29206774        3      -0.03277509      -0.01836457      -0.08528145
Pt       5.61442764       3.24149121      22.29206791        3       0.03126236      -0.01759051      -0.08298787
Pt       8.42164154       3.24149129      22.29206806        3       0.00176516      -0.08153649      -0.21879329
Pt       4.21082091       5.67260997      22.29206741        3       0.00149792       0.00656663      -0.00829859
Pt       7.01803487       5.67261038      22.29206779        3       0.00302733      -0.02508828      -0.02035137
Pt       9.82524821       5.67261068      22.29206808        3       0.00169052      -0.01477086      -0.01904136
Pt      -0.00000053       1.62074567      24.58417372        2      -0.00089222       0.04935675      -0.16024707
Pt       2.80721436       1.62074552      24.58417391        2      -0.03379412       0.00860791      -0.06889950
Pt       5.61442781       1.62074537      24.58417374        2       0.03286120       0.01249058      -0.07671592
Pt       1.40360639       4.05186438      24.58417385        2       0.15876880       0.12669981       0.27105150
Pt       4.21082087       4.05186396      24.58417384        2       0.00134371       0.07741339       0.16148347
Pt       7.01803504       4.05186408      24.58417403        2      -0.16925782       0.13591895       0.27081811
Pt       2.80721276       6.48298348      24.58417381        2       0.01399259      -0.13931189       0.15458876
Pt       5.61442804       6.48298329      24.58417396        2      -0.00942137      -0.13337061       0.14779033
Pt       8.42164223       6.48298338      24.58417376        2      -0.00487219      -0.00312665      -0.02959649
Pt      -0.00093576       0.07491906      26.90186178        1      -0.00044445      -0.03726620      -0.02578899
Pt       2.80717777       0.00336411      26.90872643        1      -0.00148921       0.00712741      -0.00048246
Pt       5.61241661       0.00340869      26.90697225        1       0.00293728       0.01116210      -0.00211043
Pt       1.40237198       2.44994715      26.90931226        1      -0.00464133      -0.00109093      -0.00018935
Pt       4.21163310       2.38178261      26.89056023        1      -0.00165107       0.03282835       0.01071663
Pt       7.01895820       2.45024050      26.90868092        1       0.00304822      -0.00129789      -0.00052226
Pt       2.79653602       4.86792836      27.06267935        1       0.02711555      -0.03386158      -0.00201458
Pt       5.62367510       4.86968692      27.06507342        1      -0.01412050      -0.03869173      -0.01250820
Pt       8.42127935       4.87578263      26.91243049        1      -0.00128427      -0.02670869      -0.01707849
O        4.21047195       4.94167927      29.69932244        0      -0.00211889       0.00644217      -0.00924351
C        4.21011406       4.92515621      28.51111188        0      -0.00376063       0.00071718       0.00611695
