38
Lattice="8.421641763931781 0.0 0.0 4.2108208819658905 7.293355709136913 0.0 0.0 0.0 46.87624170604845" Properties=species:S:1:pos:R:3:tags:I:1:forces:R:3 charge=0 spin=0 energy=-202.91268252969493 free_energy=-202.91268252969493 stress="0.009917950257658958 8.509314142202129e-09 7.09785841213062e-10 8.509314142202129e-09 0.00991796888411045 4.1798589478503345e-08 7.09785841213062e-10 4.1798589478503345e-08 -0.000436417234595865" pbc="T T T"
Pt      -0.00000010      -0.00000005      19.95723451        4      -0.00086915      -0.00082235       0.01723759
Pt       2.80721394      -0.00000020      19.95723457        4       0.00117397      -0.00034287       0.01717934
Pt       5.61442787      -0.00000008      19.95723465        4      -0.00011372       0.01755078       0.01072132
Pt       1.40360721       2.43111841      19.95723445        4      -0.00030646       0.00117358       0.01723651
Pt       4.21082082       2.43111837      19.95723453        4      -0.00100696      -0.00366136       0.01329133
Pt       7.01803480       2.43111844      19.95723439        4       0.00368941       0.00097798       0.01334303
Pt       2.80721416       4.86223734      19.95723425        4       0.01521809      -0.00865056       0.01076263
Pt       5.61442796       4.86223739      19.95723443        4      -0.00268111       0.00267805       0.01331741
Pt       8.42164143       4.86223725      19.95723447        4      -0.01510407      -0.00890376       0.01074700
Pt       1.40360729       0.81037262      22.29206795        3      -0.00000084       0.00000076      -0.00960508
Pt       4.21082131       0.81037249      22.29206793        3       0.02397965      -0.03095566      -0.06542973
Pt       7.01803470       0.81037255      22.29206785        3      -0.02549581      -0.02363735      -0.06682554
Pt       2.80721448       3.24149122      22.29206774        3      -0.00769609       0.03397480      -0.06673762
Pt       5.61442764       3.24149121      22.29206791        3       0.00000147       0.00000099      -0.07411771
Pt       8.42164154       3.24149129      22.29206806        3       0.01472863       0.03627747      -0.06543262
Pt       4.21082091       5.67260997      22.29206741        3      -0.03871032      -0.00531488      -0.06536075
Pt       7.01803487       5.67261038      22.29206779        3       0.03318087      -0.01033496      -0.06678350
Pt       9.82524821       5.67261068      22.29206808        3       0.00000846      -0.00001056      -0.28143758
Pt      -0.00000053       1.62074567      24.58417372        2       0.06132653      -0.03575094       0.15462871
Pt       2.80721436       1.62074552      24.58417391        2      -0.06163463      -0.03519402       0.15467665
Pt       5.61442781       1.62074537      24.58417374        2       0.00228960      -0.02609269      -0.06615737
Pt       1.40360639       4.05186438      24.58417385        2      -0.00141653      -0.10812212       0.12025817
Pt       4.21082087       4.05186396      24.58417384        2      -0.02375036       0.01098002      -0.06625712
Pt       7.01803504       4.05186408      24.58417403        2       0.02146540       0.01510842      -0.06630877
Pt       2.80721276       6.48298348      24.58417381        2       0.09437607       0.05275184       0.12029205
Pt       5.61442804       6.48298329      24.58417396        2       0.00032082       0.07095040       0.15455692
Pt       8.42164223       6.48298338      24.58417376        2      -0.09297019       0.05536887       0.12028671
Pt      -0.02400905      -0.01592049      27.01570272        1       0.00650564       0.00373466      -0.00287836
Pt       2.83299728      -0.01282474      27.01570402        1      -0.00644835       0.00374874      -0.00288529
Pt       5.61387785      -0.00338547      26.90698559        1       0.00083666       0.00590093       0.00030172
Pt       1.40182241       2.45986586      27.01570414        1      -0.00001578      -0.00748049      -0.00288388
Pt       4.22685514       2.44199895      26.89884939        1       0.02960143       0.01575868      -0.00265341
Pt       7.00060389       2.43955862      26.89885114        1      -0.02847629       0.01776943      -0.00265803
Pt       2.80455438       4.86439950      26.90696991        1       0.00469841      -0.00364696       0.00034680
Pt       5.61584339       4.84291806      26.89883845        1      -0.00117920      -0.03353446      -0.00261694
Pt       8.42484962       4.86346257      26.90697789        1      -0.00552249      -0.00224870       0.00032260
O        1.40360449       0.81037430      29.53989823        0      -0.00000372      -0.00000332       0.01444856
C        1.40360345       0.81037318      28.33849847        0       0.00000088       0.00000171       0.01307420
