38
Lattice="8.421641763931781 0.0 0.0 4.2108208819658905 7.293355709136913 0.0 0.0 0.0 46.87624170604845" Properties=species:S:1:pos:R:3:tags:I:1:forces:R:3 charge=0 spin=0 energy=-202.81940364480724 free_energy=-202.81940364480724 stress="0.00959560927003622 -8.347845437128854e-08 -5.3231463681413516e-09 -8.347845437128854e-08 0.009595622308552265 -4.468583369998669e-08 -5.3231463681413516e-09 -4.468583369998669e-08 -0.0003314970526844263" pbc="T T T"
Pt      -0.00000010      -0.00000005      19.95723451        4       0.00147539      -0.00833369       0.01937736
Pt       2.80721394      -0.00000020      19.95723457        4      -0.00200321      -0.00926269       0.02001589
Pt       5.61442787      -0.00000008      19.95723465        4      -0.00000021       0.00000334       0.01782537
Pt       1.40360721       2.43111841      19.95723445        4      -0.00000043       0.00000148       0.02237335
Pt       4.21082082       2.43111837      19.95723453        4       0.00647744       0.00543559       0.01939880
Pt       7.01803480       2.43111844      19.95723439        4      -0.00701334       0.00636852       0.01996742
Pt       2.80721416       4.86223734      19.95723425        4       0.00901223       0.00289385       0.02000476
Pt       5.61442796       4.86223739      19.95723443        4       0.00000128      -0.00000430      -0.06854916
Pt       8.42164143       4.86223725      19.95723447        4      -0.00794883       0.00289701       0.01944195
Pt       1.40360729       0.81037262      22.29206795        3       0.00584347      -0.00194621      -0.06354590
Pt       4.21082131       0.81037249      22.29206793        3       0.00448530       0.00226944      -0.02769479
Pt       7.01803470       0.81037255      22.29206785        3      -0.00034960      -0.00505484      -0.02772338
Pt       2.80721448       3.24149122      22.29206774        3      -0.00120832       0.00606888      -0.06330766
Pt       5.61442764       3.24149121      22.29206791        3      -0.00145830       0.06239893      -0.11424442
Pt       8.42164154       3.24149129      22.29206806        3      -0.00463451      -0.00411559      -0.06331821
Pt       4.21082091       5.67260997      22.29206741        3       0.05479206      -0.02997465      -0.11422877
Pt       7.01803487       5.67261038      22.29206779        3      -0.05333816      -0.03242242      -0.11422549
Pt       9.82524821       5.67261068      22.29206808        3      -0.00413273       0.00277910      -0.02746972
Pt      -0.00000053       1.62074567      24.58417372        2      -0.00342536       0.00199864      -0.03853649
Pt       2.80721436       1.62074552      24.58417391        2      -0.00015370      -0.00393383      -0.03859257
Pt       5.61442781       1.62074537      24.58417374        2       0.00130146      -0.28039706       0.34524521
Pt       1.40360639       4.05186438      24.58417385        2       0.00352372       0.00193949      -0.03879358
Pt       4.21082087       4.05186396      24.58417384        2       0.04376266       0.02445742      -0.12864918
Pt       7.01803504       4.05186408      24.58417403        2      -0.04300966       0.02552942      -0.12852342
Pt       2.80721276       6.48298348      24.58417381        2      -0.24333444       0.13910505       0.34519359
Pt       5.61442804       6.48298329      24.58417396        2      -0.00075457      -0.05000661      -0.12838216
Pt       8.42164223       6.48298338      24.58417376        2       0.24208382       0.14130446       0.34524834
Pt       0.03033610      -0.00223715      26.89926210        1      -0.00832675       0.00134136       0.00156914
Pt       2.77660567      -0.00237072      26.89771246        1       0.00796737       0.00200806       0.00183759
Pt       5.61442772       0.00000011      27.07653943        1       0.00000284       0.00000077      -0.00624561
Pt       1.40360899       2.43111893      26.91822745        1      -0.00000238       0.00000018      -0.00347433
Pt       4.19760407       2.45850980      26.89925414        1       0.00300519      -0.00787984       0.00156912
Pt       7.03129414       2.45881301      26.89773540        1      -0.00224314      -0.00790623       0.00184022
Pt       2.82456443       4.83691632      26.89769065        1      -0.00572503       0.00589524       0.00183602
Pt       5.61442646       4.86223735      26.92724979        1       0.00000198      -0.00000047      -0.00284813
Pt       8.40452220       4.83708622      26.89926860        1       0.00532628       0.00654240       0.00156634
O        5.61442790      -0.00000040      30.09112752        0      -0.00000051      -0.00000006      -0.00737352
C        5.61442755       0.00000003      28.92857393        0       0.00000077      -0.00000029       0.00141552
