38
Lattice="8.421641763931781 0.0 0.0 4.2108208819658905 7.293355709136913 0.0 0.0 0.0 46.87624170604845" Properties=species:S:1:pos:R:3:tags:I:1:forces:R:3 charge=0 spin=0 energy=-202.87962150216808 free_energy=-202.87962150216808 stress="0.010213029570877552 1.570699350850191e-05 6.504761586256791e-06 1.570699350850191e-05 0.009602471254765987 -1.2825410522054881e-05 6.504761586256791e-06 -1.2825410522054881e-05 -0.0003532075497787446" pbc="T T T"
Pt      -0.00000010      -0.00000005      19.95723451        4       0.01957726      -0.00156217      -0.00393120
Pt       2.80721394      -0.00000020      19.95723457        4      -0.00085258       0.00454701       0.00693787
Pt       5.61442787      -0.00000008      19.95723465        4      -0.02004433      -0.00046465      -0.00638618
Pt       1.40360721       2.43111841      19.95723445        4       0.00242129      -0.00140114       0.01529743
Pt       4.21082082       2.43111837      19.95723453        4      -0.00038623      -0.00420227       0.01307725
Pt       7.01803480       2.43111844      19.95723439        4      -0.00082934      -0.00869882       0.02541123
Pt       2.80721416       4.86223734      19.95723425        4      -0.00033661       0.00044267       0.02183491
Pt       5.61442796       4.86223739      19.95723443        4      -0.00084288      -0.00159177       0.01997232
Pt       8.42164143       4.86223725      19.95723447        4       0.00337698       0.00060722       0.01800156
Pt       1.40360729       0.81037262      22.29206795        3      -0.03297839      -0.01690656      -0.08341276
Pt       4.21082131       0.81037249      22.29206793        3       0.03146374      -0.01590785      -0.08148448
Pt       7.01803470       0.81037255      22.29206785        3       0.00176417      -0.08057803      -0.21869549
Pt       2.80721448       3.24149122      22.29206774        3       0.00138433       0.00827191      -0.01013752
Pt       5.61442764       3.24149121      22.29206791        3       0.00229550      -0.02304693      -0.02016345
Pt       8.42164154       3.24149129      22.29206806        3       0.00199752      -0.01268231      -0.01866876
Pt       4.21082091       5.67260997      22.29206741        3      -0.01127906       0.05246500      -0.11194543
Pt       7.01803487       5.67261038      22.29206779        3      -0.00151937       0.00828162      -0.06871314
Pt       9.82524821       5.67261068      22.29206808        3       0.01047452       0.05571542      -0.11288955
Pt      -0.00000053       1.62074567      24.58417372        2       0.16417964       0.11731702       0.26636717
Pt       2.80721436       1.62074552      24.58417391        2       0.00128256       0.07238280       0.15617767
Pt       5.61442781       1.62074537      24.58417374        2      -0.17241324       0.12592725       0.26462269
Pt       1.40360639       4.05186438      24.58417385        2       0.00721101      -0.14693619       0.15632816
Pt       4.21082087       4.05186396      24.58417384        2      -0.00200271      -0.13965473       0.14863481
Pt       7.01803504       4.05186408      24.58417403        2      -0.00386821      -0.00272222      -0.02677612
Pt       2.80721276       6.48298348      24.58417381        2      -0.00006348       0.04689702      -0.16422884
Pt       5.61442804       6.48298329      24.58417396        2      -0.03255266       0.00473990      -0.06289773
Pt       8.42164223       6.48298338      24.58417376        2       0.03286814       0.00819917      -0.07127763
Pt      -0.00249573       0.01071879      26.91155394        1       0.00387828      -0.00126217      -0.00724322
Pt       2.80882005      -0.05201226      26.89128015        1      -0.00255405       0.01083165       0.00991381
Pt       5.61799029       0.01110303      26.91108619        1      -0.00551853      -0.00195860      -0.00779525
Pt       1.39405938       2.42724367      27.06353175        1       0.01845344      -0.01093930      -0.00674845
Pt       4.22126667       2.42934791      27.06454910        1      -0.01607147      -0.01659232      -0.00663615
Pt       7.01834778       2.43492538      26.90549275        1       0.00037286      -0.00410908       0.00479984
Pt       2.80672171       4.92707301      26.89662041        1       0.00063573      -0.02929279      -0.01132440
Pt       5.61701315       4.86181488      26.91116522        1      -0.01075904      -0.00563486      -0.01049200
Pt       8.41881553       4.86190714      26.90950475        1       0.01073660      -0.00302548      -0.01208701
O        2.80788814       2.45945848      29.70043773        0      -0.00104099       0.01934133      -0.00925284
C        2.80707962       2.46125680      28.51217505        0       0.00153964      -0.00679684       0.00581097
