38
Lattice="8.421641763931781 0.0 0.0 4.2108208819658905 7.293355709136913 0.0 0.0 0.0 46.87624170604845" Properties=species:S:1:pos:R:3:tags:I:1:forces:R:3 charge=0 spin=0 energy=-202.81940364480724 free_energy=-202.81940364480724 stress="0.009595608338713646 -8.468612833212319e-08 -4.568310174590806e-09 -8.468612833212319e-08 0.009595622308552265 -4.726528146647979e-08 -4.568310174590806e-09 -4.726528146647979e-08 -0.00033152042306028306" pbc="T T T"
Pt      -0.00000010      -0.00000005      19.95723451        4       0.00901387       0.00290064       0.01999503
Pt       2.80721394      -0.00000020      19.95723457        4       0.00000073       0.00000354      -0.06854733
Pt       5.61442787      -0.00000008      19.95723465        4      -0.00795200       0.00290311       0.01944064
Pt       1.40360721       2.43111841      19.95723445        4       0.00147687      -0.00833479       0.01938184
Pt       4.21082082       2.43111837      19.95723453        4      -0.00200108      -0.00926623       0.02001769
Pt       7.01803480       2.43111844      19.95723439        4      -0.00000107       0.00000025       0.01782783
Pt       2.80721416       4.86223734      19.95723425        4      -0.00000364      -0.00000396       0.02237846
Pt       5.61442796       4.86223739      19.95723443        4       0.00647597       0.00543128       0.01939460
Pt       8.42164143       4.86223725      19.95723447        4      -0.00700909       0.00636543       0.01996553
Pt       1.40360729       0.81037262      22.29206795        3       0.05479547      -0.02997483      -0.11424490
Pt       4.21082131       0.81037249      22.29206793        3      -0.05333628      -0.03241438      -0.11423061
Pt       7.01803470       0.81037255      22.29206785        3      -0.00414167       0.00279114      -0.02746963
Pt       2.80721448       3.24149122      22.29206774        3       0.00583765      -0.00194374      -0.06354930
Pt       5.61442764       3.24149121      22.29206791        3       0.00448872       0.00226470      -0.02769342
Pt       8.42164154       3.24149129      22.29206806        3      -0.00034538      -0.00505557      -0.02772328
Pt       4.21082091       5.67260997      22.29206741        3      -0.00120599       0.00606648      -0.06328855
Pt       7.01803487       5.67261038      22.29206779        3      -0.00146402       0.06239583      -0.11424239
Pt       9.82524821       5.67261068      22.29206808        3      -0.00462951      -0.00412726      -0.06331930
Pt      -0.00000053       1.62074567      24.58417372        2      -0.24334769       0.13911453       0.34520179
Pt       2.80721436       1.62074552      24.58417391        2      -0.00075265      -0.05000393      -0.12837589
Pt       5.61442781       1.62074537      24.58417374        2       0.24209195       0.14131664       0.34525055
Pt       1.40360639       4.05186438      24.58417385        2      -0.00342248       0.00200182      -0.03853996
Pt       4.21082087       4.05186396      24.58417384        2      -0.00015043      -0.00392944      -0.03859721
Pt       7.01803504       4.05186408      24.58417403        2       0.00129945      -0.28040138       0.34524751
Pt       2.80721276       6.48298348      24.58417381        2       0.00353185       0.00192835      -0.03879691
Pt       5.61442804       6.48298329      24.58417396        2       0.04375977       0.02444809      -0.12864818
Pt       8.42164223       6.48298338      24.58417376        2      -0.04301597       0.02552158      -0.12852025
Pt       0.01735051      -0.02532136      26.89769021        1      -0.00572552       0.00590024       0.00183725
Pt       2.80721278      -0.00000001      26.92725102        1       0.00000272       0.00000303      -0.00285203
Pt       5.59730799      -0.02515141      26.89926921        1       0.00532513       0.00654850       0.00157006
Pt       1.43394371       2.42888144      26.89926191        1      -0.00833158       0.00134131       0.00157020
Pt       4.18021203       2.42874752      26.89771279        1       0.00797484       0.00200873       0.00183818
Pt       7.01803494       2.43111854      27.07654042        1      -0.00000014       0.00000261      -0.00617619
Pt       2.80721572       4.86223776      26.91822727        1      -0.00000174      -0.00000242      -0.00347446
Pt       5.60121068       4.88962903      26.89925357        1       0.00300764      -0.00788634       0.00156885
Pt       8.43490126       4.88993243      26.89773515        1      -0.00224481      -0.00791404       0.00184075
O        7.01803510       2.43111829      30.09112875        0      -0.00000119      -0.00000034      -0.00720185
C        7.01803464       2.43111834      28.92857662        0       0.00000128       0.00000090       0.00116505
