38
Lattice="8.421641763931781 0.0 0.0 4.2108208819658905 7.293355709136913 0.0 0.0 0.0 46.87624170604845" Properties=species:S:1:pos:R:3:tags:I:1:forces:R:3 charge=0 spin=0 energy=-202.81927203775157 free_energy=-202.81927203775157 stress="0.009581443853676319 -7.263203372076532e-08 2.2102375041299638e-08 -7.263203372076532e-08 0.00958146620541811 7.261845524908495e-08 2.2102375041299638e-08 7.261845524908495e-08 -0.00038856620085425675" pbc="T T T"
Pt      -0.00000010      -0.00000005      19.95723451        4       0.00151734      -0.00829962       0.01952090
Pt       2.80721394      -0.00000020      19.95723457        4      -0.00209554      -0.00929116       0.02011419
Pt       5.61442787      -0.00000008      19.95723465        4      -0.00000095       0.00000682       0.01755315
Pt       1.40360721       2.43111841      19.95723445        4       0.00000107       0.00000313       0.02220791
Pt       4.21082082       2.43111837      19.95723453        4       0.00642810       0.00545212       0.01953652
Pt       7.01803480       2.43111844      19.95723439        4      -0.00699068       0.00646034       0.02006050
Pt       2.80721416       4.86223734      19.95723425        4       0.00908324       0.00283236       0.02009929
Pt       5.61442796       4.86223739      19.95723443        4      -0.00000318      -0.00000996      -0.06919438
Pt       8.42164143       4.86223725      19.95723447        4      -0.00793996       0.00284992       0.01958442
Pt       1.40360729       0.81037262      22.29206795        3       0.00573483      -0.00194407      -0.06338286
Pt       4.21082131       0.81037249      22.29206793        3       0.00454977       0.00207583      -0.02838609
Pt       7.01803470       0.81037255      22.29206785        3      -0.00054800      -0.00500451      -0.02841486
Pt       2.80721448       3.24149122      22.29206774        3      -0.00114238       0.00599134      -0.06317504
Pt       5.61442764       3.24149121      22.29206791        3      -0.00138997       0.06274689      -0.11445588
Pt       8.42164154       3.24149129      22.29206806        3      -0.00458218      -0.00399883      -0.06318135
Pt       4.21082091       5.67260997      22.29206741        3       0.05505276      -0.03019914      -0.11442763
Pt       7.01803487       5.67261038      22.29206779        3      -0.05366245      -0.03252947      -0.11441874
Pt       9.82524821       5.67261068      22.29206808        3      -0.00399035       0.00293697      -0.02819457
Pt      -0.00000053       1.62074567      24.58417372        2      -0.00578341       0.00053736      -0.03973371
Pt       2.80721436       1.62074552      24.58417391        2       0.00216890      -0.00539575      -0.03979587
Pt       5.61442781       1.62074537      24.58417374        2       0.00194228      -0.27278554       0.34069222
Pt       1.40360639       4.05186438      24.58417385        2       0.00350978       0.00455188      -0.04007336
Pt       4.21082087       4.05186396      24.58417384        2       0.04156177       0.02369415      -0.12958463
Pt       7.01803504       4.05186408      24.58417403        2      -0.04127765       0.02398809      -0.12944835
Pt       2.80721276       6.48298348      24.58417381        2      -0.23710616       0.13480392       0.34084785
Pt       5.61442804       6.48298329      24.58417396        2      -0.00030961      -0.04768801      -0.12916738
Pt       8.42164223       6.48298338      24.58417376        2       0.23524375       0.13816805       0.34099966
Pt       0.03082379      -0.00222314      26.90058066        1      -0.00999617      -0.00046176      -0.00367520
Pt       2.77563262      -0.00138550      26.89951151        1       0.01091142      -0.00292603      -0.00496642
Pt       5.61440529      -0.00005890      27.06841528        1       0.00011240       0.00031233      -0.01484008
Pt       1.40359482       2.43105386      26.91542346        1       0.00001003       0.00011603       0.00905299
Pt       4.19727802       2.45887198      26.90049103        1       0.00550966      -0.00839098      -0.00341261
Pt       7.03268107       2.45911367      26.89945436        1      -0.00813993      -0.00804851      -0.00472335
Pt       2.82411513       4.83555187      26.89939722        1      -0.00278754       0.01089334      -0.00465253
Pt       5.61440764       4.86220189      26.92445140        1       0.00003273       0.00001899       0.00754052
Pt       8.40433771       4.83663341      26.90050832        1       0.00444816       0.00876492      -0.00338587
O        5.61457090       0.00040744      30.08158993        0       0.00003804       0.00013336       0.01022593
C        5.61452613       0.00029656      28.91915902        0      -0.00011013      -0.00036474       0.02665523
