38
Lattice="8.421641763931781 0.0 0.0 4.2108208819658905 7.293355709136913 0.0 0.0 0.0 46.87624170604845" Properties=species:S:1:pos:R:3:tags:I:1:forces:R:3 charge=0 spin=0 energy=-202.87920856118907 free_energy=-202.87920856118907 stress="0.009760410524904728 -0.00028030466637574136 -1.0180457138631027e-05 -0.00028030466637574136 0.01005223486572504 4.456525402929401e-06 -1.0180457138631027e-05 4.456525402929401e-06 -0.0003528025990817696" pbc="T T T"
Pt      -0.00000010      -0.00000005      19.95723451        4      -0.00792015       0.01796353      -0.00395423
Pt       2.80721394      -0.00000020      19.95723457        4      -0.00000371      -0.00021219       0.02184477
Pt       5.61442787      -0.00000008      19.95723465        4       0.00015512       0.00297117       0.01507017
Pt       1.40360721       2.43111841      19.95723445        4       0.00224969       0.00060194       0.01983027
Pt       4.21082082       2.43111837      19.95723453        4       0.00393173       0.00190794       0.01307422
Pt       7.01803480       2.43111844      19.95723439        4      -0.00330427      -0.00268711       0.00722320
Pt       2.80721416       4.86223734      19.95723425        4       0.00835421       0.00394144       0.02552864
Pt       5.61442796       4.86223739      19.95723443        4       0.01074089      -0.01663356      -0.00636063
Pt       8.42164143       4.86223725      19.95723447        4      -0.00178990       0.00292296       0.01780546
Pt       1.40360729       0.81037262      22.29206795        3      -0.03940276      -0.03496047      -0.11157440
Pt       4.21082131       0.81037249      22.29206793        3      -0.00638832      -0.00193800      -0.00812345
Pt       7.01803470       0.81037255      22.29206785        3       0.03232917      -0.01932045      -0.08541170
Pt       2.80721448       3.24149122      22.29206774        3       0.02014975       0.01524472      -0.02027204
Pt       5.61442764       3.24149121      22.29206791        3      -0.00041250       0.03590720      -0.08306030
Pt       8.42164154       3.24149129      22.29206806        3      -0.00515608      -0.00447465      -0.06900883
Pt       4.21082091       5.67260997      22.29206741        3       0.06970212       0.04222348      -0.21881816
Pt       7.01803487       5.67261038      22.29206779        3      -0.05219181      -0.01859157      -0.11207177
Pt       9.82524821       5.67261068      22.29206808        3       0.01191600       0.00879854      -0.01888457
Pt      -0.00000053       1.62074567      24.58417372        2       0.00933117      -0.03356646      -0.06884860
Pt       2.80721436       1.62074552      24.58417391        2       0.12009852       0.05863945       0.14781772
Pt       5.61442781       1.62074537      24.58417374        2      -0.06763730      -0.03751849       0.16136856
Pt       1.40360639       4.05186438      24.58417385        2       0.00501973      -0.00253920      -0.02962377
Pt       4.21082087       4.05186396      24.58417384        2      -0.03285927      -0.21447486       0.27075693
Pt       7.01803504       4.05186408      24.58417403        2      -0.02727157       0.02212730      -0.07668374
Pt       2.80721276       6.48298348      24.58417381        2      -0.18896066       0.07411180       0.27098429
Pt       5.61442804       6.48298329      24.58417396        2      -0.04225476      -0.02558100      -0.16010833
Pt       8.42164223       6.48298338      24.58417376        2       0.11353003       0.08169977       0.15459493
Pt      -0.01568295      -0.01049338      26.90930790        1       0.00331615      -0.00355603      -0.00021760
Pt       2.74280195      -0.03826886      26.90186249        1       0.03248768       0.01825889      -0.02578629
Pt       5.61483812      -0.01209385      27.06267694        1       0.01576664       0.04046401      -0.00198294
Pt       1.40071252       2.42940463      26.90872630        1      -0.00546404      -0.00481565      -0.00049357
Pt       4.19974346       2.43540483      27.06507278        1       0.04059295       0.00709377      -0.01249500
Pt       7.06035471       2.45649119      26.89056091        1      -0.02758788      -0.01784658       0.01070657
Pt       2.79566345       4.85515157      26.91242965        1       0.02376356       0.01223332      -0.01707852
Pt       5.59740572       4.85347534      26.90868088        1      -0.00037939       0.00325762      -0.00050831
Pt       8.41968992       4.85880493      26.90697580        1      -0.01120034      -0.00297691      -0.00207926
O        4.84399750       1.17553574      29.69932253        0      -0.00451312      -0.00505163      -0.00925852
C        4.85848736       1.18348933      28.51111229        0       0.00126263      -0.00362388       0.00609867
