38
Lattice="8.421641763931781 0.0 0.0 4.2108208819658905 7.293355709136913 0.0 0.0 0.0 46.87624170604845" Properties=species:S:1:pos:R:3:tags:I:1:forces:R:3 charge=0 spin=0 energy=-202.81927489877452 free_energy=-202.81927489877452 stress="0.009581418707966805 -6.0848933003399e-08 2.725751073739957e-07 -6.0848933003399e-08 0.009581520222127438 -1.2625734768789698e-07 2.725751073739957e-07 -1.2625734768789698e-07 -0.0003885851183440536" pbc="T T T"
Pt      -0.00000010      -0.00000005      19.95723451        4      -0.00001591       0.00001370      -0.06919371
Pt       2.80721394      -0.00000020      19.95723457        4      -0.00794405       0.00285239       0.01958998
Pt       5.61442787      -0.00000008      19.95723465        4       0.00908566       0.00283649       0.02008627
Pt       1.40360721       2.43111841      19.95723445        4      -0.00209245      -0.00929376       0.02011593
Pt       4.21082082       2.43111837      19.95723453        4       0.00000704       0.00000187       0.01755491
Pt       7.01803480       2.43111844      19.95723439        4       0.00151940      -0.00830178       0.01951636
Pt       2.80721416       4.86223734      19.95723425        4       0.00642837       0.00544521       0.01954534
Pt       5.61442796       4.86223739      19.95723443        4      -0.00698897       0.00645663       0.02006239
Pt       8.42164143       4.86223725      19.95723447        4       0.00001144      -0.00000758       0.02220613
Pt       1.40360729       0.81037262      22.29206795        3      -0.05364645      -0.03254350      -0.11440645
Pt       4.21082131       0.81037249      22.29206793        3      -0.00398770       0.00293596      -0.02820587
Pt       7.01803470       0.81037255      22.29206785        3       0.05506454      -0.03020620      -0.11448572
Pt       2.80721448       3.24149122      22.29206774        3       0.00456475       0.00205832      -0.02837426
Pt       5.61442764       3.24149121      22.29206791        3      -0.00052901      -0.00501432      -0.02841430
Pt       8.42164154       3.24149129      22.29206806        3       0.00575657      -0.00196289      -0.06338694
Pt       4.21082091       5.67260997      22.29206741        3      -0.00137596       0.06273966      -0.11441319
Pt       7.01803487       5.67261038      22.29206779        3      -0.00456906      -0.00401956      -0.06317497
Pt       9.82524821       5.67261068      22.29206808        3      -0.00110980       0.00596207      -0.06317618
Pt      -0.00000053       1.62074567      24.58417372        2      -0.00031159      -0.04761939      -0.12912886
Pt       2.80721436       1.62074552      24.58417391        2       0.23524901       0.13828723       0.34107506
Pt       5.61442781       1.62074537      24.58417374        2      -0.23691879       0.13473478       0.34055540
Pt       1.40360639       4.05186438      24.58417385        2       0.00206382      -0.00531874      -0.03979978
Pt       4.21082087       4.05186396      24.58417384        2       0.00187798      -0.27294603       0.34091479
Pt       7.01803504       4.05186408      24.58417403        2      -0.00585925       0.00057526      -0.03972854
Pt       2.80721276       6.48298348      24.58417381        2       0.04154303       0.02368052      -0.12956901
Pt       5.61442804       6.48298329      24.58417396        2      -0.04135242       0.02402874      -0.12948658
Pt       8.42164223       6.48298338      24.58417376        2       0.00344452       0.00464075      -0.04006090
Pt      -0.00011077       0.00004683      26.92445181        1       0.00014856      -0.00008767       0.00753872
Pt       2.78981036      -0.02553718      26.90050179        1       0.00458734       0.00872065      -0.00336655
Pt       5.63129329      -0.02668916      26.89939267        1      -0.00289288       0.01114227      -0.00468905
Pt       1.37200961       2.42981659      26.89952232        1       0.01071883      -0.00302225      -0.00496192
Pt       4.21068812       2.43116039      27.06841447        1       0.00066272      -0.00020803      -0.01480903
Pt       7.04884935       2.42897377      26.90058302        1      -0.01021863      -0.00054422      -0.00372565
Pt       2.79362757       4.88998353      26.90049852        1       0.00542548      -0.00813222      -0.00339092
Pt       5.62897175       4.89028730      26.89945133        1      -0.00797908      -0.00803699      -0.00471273
Pt       8.42153629       4.86225769      26.91542358        1       0.00012585      -0.00000028       0.00905222
O        4.21170106       2.43083374      30.08159092        0       0.00027866      -0.00008648       0.01040455
C        4.21145343       2.43091843      28.91916037        0      -0.00077128       0.00023945       0.02644335
