38
Lattice="8.421641763931781 0.0 0.0 4.2108208819658905 7.293355709136913 0.0 0.0 0.0 46.87624170604845" Properties=species:S:1:pos:R:3:tags:I:1:forces:R:3 charge=0 spin=0 energy=-202.88632106424083 free_energy=-202.88632106424083 stress="0.010008840821683407 -1.9368618708881513e-08 -8.998404243953928e-10 -1.9368618708881513e-08 0.010008860379457474 -1.0034229447342113e-08 -8.998404243953928e-10 -1.0034229447342113e-08 -0.0002950862981379032" pbc="T T T"
Pt      -0.00000010      -0.00000005      19.95723451        4       0.00064379      -0.01587561       0.00965744
Pt       2.80721394      -0.00000020      19.95723457        4      -0.00248490       0.00173270       0.02371641
Pt       5.61442787      -0.00000008      19.95723465        4       0.00273209       0.00124937       0.02371374
Pt       1.40360721       2.43111841      19.95723445        4       0.01343428       0.00851670       0.00971914
Pt       4.21082082       2.43111837      19.95723453        4      -0.00174911       0.00274417       0.01099208
Pt       7.01803480       2.43111844      19.95723439        4      -0.01408002       0.00736386       0.00965939
Pt       2.80721416       4.86223734      19.95723425        4       0.00328565       0.00013039       0.01104229
Pt       5.61442796       4.86223739      19.95723443        4      -0.00153719      -0.00288254       0.01097508
Pt       8.42164143       4.86223725      19.95723447        4      -0.00024440      -0.00297893       0.02375954
Pt       1.40360729       0.81037262      22.29206795        3      -0.05335208       0.02883893      -0.15749121
Pt       4.21082131       0.81037249      22.29206793        3      -0.00368686       0.01226488      -0.02590678
Pt       7.01803470       0.81037255      22.29206785        3       0.05156010       0.03178606      -0.15754214
Pt       2.80721448       3.24149122      22.29206774        3      -0.01970081      -0.01313923      -0.06245301
Pt       5.61442764       3.24149121      22.29206791        3       0.02126316      -0.01056805      -0.06246347
Pt       8.42164154       3.24149129      22.29206806        3       0.00179545      -0.06062015      -0.15753780
Pt       4.21082091       5.67260997      22.29206741        3      -0.00156960       0.02371353      -0.06255537
Pt       7.01803487       5.67261038      22.29206779        3      -0.00879110      -0.00931534      -0.02601734
Pt       9.82524821       5.67261068      22.29206808        3       0.01248145      -0.00295710      -0.02605837
Pt      -0.00000053       1.62074567      24.58417372        2       0.00000170      -0.00000174      -0.23093434
Pt       2.80721436       1.62074552      24.58417391        2       0.09283105       0.04240481       0.12934494
Pt       5.61442781       1.62074537      24.58417374        2      -0.08745156       0.03871315       0.12689382
Pt       1.40360639       4.05186438      24.58417385        2       0.07735065       0.05647236       0.12704279
Pt       4.21082087       4.05186396      24.58417384        2      -0.00000102       0.00000451       0.14669551
Pt       7.01803504       4.05186408      24.58417403        2      -0.08323751       0.05929870       0.12942356
Pt       2.80721276       6.48298348      24.58417381        2      -0.00958607      -0.10171087       0.12922695
Pt       5.61442804       6.48298329      24.58417396        2       0.01009980      -0.09518272       0.12689155
Pt       8.42164223       6.48298338      24.58417376        2      -0.00000629      -0.00000655       0.00365880
Pt      -0.00106487       0.02478925      26.89887700        1       0.00086835      -0.01390230      -0.00273755
Pt       2.80838219      -0.00107495      26.91395029        1       0.00695371      -0.00563837      -0.01662190
Pt       5.61291277      -0.00047454      26.91395225        1      -0.00835546      -0.00320310      -0.01662733
Pt       1.38266987       2.41779962      26.89887614        1       0.01160451       0.00770871      -0.00273653
Pt       4.21230420       2.41236579      27.01984447        1      -0.00252624       0.01112643      -0.00532003
Pt       7.04003712       2.41964369      26.89887715        1      -0.01247943       0.00619988      -0.00274249
Pt       2.79023267       4.87032734      27.01984312        1       0.01089806      -0.00336657      -0.00532809
Pt       5.62992697       4.87289715      27.01984206        1      -0.00837339      -0.00775597      -0.00531957
Pt       8.42198870       4.86378493      26.91395149        1       0.00140846       0.00884087      -0.01662860
O        4.21082228       4.05186746      29.55952711        0       0.00000103      -0.00000412      -0.01331063
C        4.21082182       4.05186570      28.35899228        0      -0.00000012      -0.00000071       0.00391962
