38
Lattice="8.421641763931781 0.0 0.0 4.2108208819658905 7.293355709136913 0.0 0.0 0.0 46.87624170604845" Properties=species:S:1:pos:R:3:tags:I:1:forces:R:3 charge=0 spin=0 energy=-202.9122390711378 free_energy=-202.9122390711378 stress="0.009914897382259369 8.533018736045506e-09 9.111653653803842e-09 8.533018736045506e-09 0.009914904832839966 3.6662630265027474e-08 9.111653653803842e-09 3.6662630265027474e-08 -0.0004492594162002206" pbc="T T T"
Pt      -0.00000010      -0.00000005      19.95723451        4       0.00356469       0.00105157       0.01326462
Pt       2.80721394      -0.00000020      19.95723457        4      -0.00019551       0.00095049       0.01698884
Pt       5.61442787      -0.00000008      19.95723465        4      -0.00088479      -0.00358601       0.01321426
Pt       1.40360721       2.43111841      19.95723445        4      -0.01509540      -0.00889317       0.01064531
Pt       4.21082082       2.43111837      19.95723453        4       0.01521186      -0.00863933       0.01065391
Pt       7.01803480       2.43111844      19.95723439        4      -0.00268346       0.00253889       0.01324856
Pt       2.80721416       4.86223734      19.95723425        4      -0.00011713       0.01753127       0.01062487
Pt       5.61442796       4.86223739      19.95723443        4      -0.00072912      -0.00062261       0.01699251
Pt       8.42164143       4.86223725      19.95723447        4       0.00092915      -0.00033244       0.01693475
Pt       1.40360729       0.81037262      22.29206795        3       0.01462845       0.03702448      -0.06583649
Pt       4.21082131       0.81037249      22.29206793        3      -0.00777062       0.03463086      -0.06683350
Pt       7.01803470       0.81037255      22.29206785        3      -0.00000066       0.00000298      -0.07234001
Pt       2.80721448       3.24149122      22.29206774        3      -0.00000643       0.00000319      -0.28188947
Pt       5.61442764       3.24149121      22.29206791        3      -0.03930049      -0.00577243      -0.06577838
Pt       8.42164154       3.24149129      22.29206806        3       0.03379481      -0.01058895      -0.06688335
Pt       4.21082091       5.67260997      22.29206741        3      -0.02602500      -0.02403510      -0.06690859
Pt       7.01803487       5.67261038      22.29206779        3      -0.00000338      -0.00000489      -0.00722904
Pt       9.82524821       5.67261068      22.29206808        3       0.02468222      -0.03126149      -0.06582190
Pt      -0.00000053       1.62074567      24.58417372        2       0.02322756       0.01691298      -0.08128145
Pt       2.80721436       1.62074552      24.58417391        2      -0.00099510      -0.10879022       0.13135384
Pt       5.61442781       1.62074537      24.58417374        2      -0.02619828       0.01157729      -0.08119696
Pt       1.40360639       4.05186438      24.58417385        2      -0.09373392       0.05536948       0.13137266
Pt       4.21082087       4.05186396      24.58417384        2       0.09472293       0.05345009       0.13140072
Pt       7.01803504       4.05186408      24.58417403        2       0.00057849       0.07584067       0.14731738
Pt       2.80721276       6.48298348      24.58417381        2       0.00296304      -0.02853274      -0.08111311
Pt       5.61442804       6.48298329      24.58417396        2       0.06541461      -0.03840976       0.14738874
Pt       8.42164223       6.48298338      24.58417376        2      -0.06597712      -0.03741350       0.14744079
Pt      -0.01587111       0.00847077      26.89433518        1      -0.03423300       0.01750474       0.01694108
Pt       2.80496664       0.02482225      27.01639041        1       0.00253580       0.02360736       0.00066307
Pt       5.62969153       0.00949454      26.89435524        1       0.03230387       0.02097237       0.01687623
Pt       1.40197924       2.42966025      26.90726181        1       0.02674669       0.01730575      -0.00429585
Pt       4.21292541       2.43043257      26.90727409        1      -0.02845143       0.01451313      -0.00432847
Pt       7.01863543       2.41315296      26.89432701        1       0.00197316      -0.03845948       0.01697193
Pt       2.80675896       4.86439183      26.90728835        1       0.00163663      -0.03185731      -0.00436627
Pt       5.59404803       4.84788065      27.01638893        1      -0.02168007      -0.00956338       0.00067619
Pt       8.44425797       4.85177761      27.01639485        1       0.01917802      -0.01402833       0.00064427
O        7.01803086       5.67261064      29.54615820        0      -0.00000951       0.00000080       0.00905659
C        7.01802996       5.67261076      28.34499826        0      -0.00000160       0.00000269      -0.00456825
