38
Lattice="8.421641763931781 0.0 0.0 4.2108208819658905 7.293355709136913 0.0 0.0 0.0 46.87624170604845" Properties=species:S:1:pos:R:3:tags:I:1:forces:R:3 charge=0 spin=0 energy=-202.81927775979747 free_energy=-202.81927775979747 stress="0.009581408463418484 -7.451621542031717e-08 1.3088460093513277e-07 -7.451621542031717e-08 0.009581493213772774 -9.256352484499075e-08 1.3088460093513277e-07 -9.256352484499075e-08 -0.00038870092248544097" pbc="T T T"
Pt      -0.00000010      -0.00000005      19.95723451        4      -0.00209503      -0.00929191       0.02011053
Pt       2.80721394      -0.00000020      19.95723457        4       0.00000210       0.00000480       0.01755315
Pt       5.61442787      -0.00000008      19.95723465        4       0.00151848      -0.00829949       0.01951685
Pt       1.40360721       2.43111841      19.95723445        4       0.00642937       0.00545249       0.01954079
Pt       4.21082082       2.43111837      19.95723453        4      -0.00698808       0.00646052       0.02006392
Pt       7.01803480       2.43111844      19.95723439        4       0.00000293      -0.00000397       0.02220776
Pt       2.80721416       4.86223734      19.95723425        4      -0.00000991       0.00000283      -0.06918346
Pt       5.61442796       4.86223739      19.95723443        4      -0.00794341       0.00284525       0.01958385
Pt       8.42164143       4.86223725      19.95723447        4       0.00908926       0.00283093       0.02009049
Pt       1.40360729       0.81037262      22.29206795        3       0.00455953       0.00206049      -0.02837744
Pt       4.21082131       0.81037249      22.29206793        3      -0.00054292      -0.00500905      -0.02841408
Pt       7.01803470       0.81037255      22.29206785        3       0.00574265      -0.00195859      -0.06338626
Pt       2.80721448       3.24149122      22.29206774        3      -0.00139031       0.06274457      -0.11443619
Pt       5.61442764       3.24149121      22.29206791        3      -0.00457525      -0.00401189      -0.06317831
Pt       8.42164154       3.24149129      22.29206806        3      -0.00112553       0.00597619      -0.06317454
Pt       4.21082091       5.67260997      22.29206741        3      -0.05365551      -0.03253868      -0.11440273
Pt       7.01803487       5.67261038      22.29206779        3      -0.00399742       0.00293034      -0.02819798
Pt       9.82524821       5.67261068      22.29206808        3       0.05506800      -0.03021958      -0.11446966
Pt      -0.00000053       1.62074567      24.58417372        2       0.00211878      -0.00534581      -0.03980032
Pt       2.80721436       1.62074552      24.58417391        2       0.00191756      -0.27291879       0.34086868
Pt       5.61442781       1.62074537      24.58417374        2      -0.00580764       0.00058108      -0.03973391
Pt       1.40360639       4.05186438      24.58417385        2       0.04156610       0.02370082      -0.12958837
Pt       4.21082087       4.05186396      24.58417384        2      -0.04131205       0.02402100      -0.12947446
Pt       7.01803504       4.05186408      24.58417403        2       0.00347743       0.00463116      -0.04007018
Pt       2.80721276       6.48298348      24.58417381        2      -0.00029348      -0.04764233      -0.12914617
Pt       5.61442804       6.48298329      24.58417396        2       0.23520727       0.13821708       0.34097716
Pt       8.42164223       6.48298338      24.58417376        2      -0.23701158       0.13478294       0.34069419
Pt      -0.03159062      -0.00131935      26.89951645        1       0.01084569      -0.00300411      -0.00496686
Pt       2.80714648       0.00002235      27.06841521        1       0.00033230      -0.00010521      -0.01482044
Pt       5.64524894      -0.00215801      26.90058322        1      -0.01009596      -0.00053596      -0.00369751
Pt       1.39005808       2.45887943      26.90049338        1       0.00542893      -0.00823618      -0.00338502
Pt       4.22541459       2.45914636      26.89945378        1      -0.00803063      -0.00799669      -0.00470713
Pt       7.01798488       2.43112249      26.91542396        1       0.00005594       0.00002255       0.00905513
Pt       2.80715683       4.86226817      26.92445161        1       0.00007821      -0.00006528       0.00753957
Pt       5.59707046       4.83667186      26.90050236        1       0.00455719       0.00879614      -0.00338110
Pt       8.43854135       4.83556208      26.89939181        1      -0.00288137       0.01104303      -0.00466581
O        2.80765161      -0.00014935      30.08158941        0       0.00013414      -0.00004359       0.01059726
C        2.80752631      -0.00010369      28.91916017        0      -0.00037570       0.00012304       0.02625871
