38
Lattice="8.421641763931781 0.0 0.0 4.2108208819658905 7.293355709136913 0.0 0.0 0.0 46.87624170604845" Properties=species:S:1:pos:R:3:tags:I:1:forces:R:3 charge=0 spin=0 energy=-202.91267966867198 free_energy=-202.91267966867198 stress="0.009917954914271832 6.841926580847257e-09 4.78821382543515e-09 6.841926580847257e-09 0.009917962364852428 4.260038011238976e-08 4.78821382543515e-09 4.260038011238976e-08 -0.0004364150809124112" pbc="T T T"
Pt      -0.00000010      -0.00000005      19.95723451        4       0.01521983      -0.00864413       0.01075296
Pt       2.80721394      -0.00000020      19.95723457        4      -0.00268164       0.00268565       0.01331958
Pt       5.61442787      -0.00000008      19.95723465        4      -0.01510734      -0.00889785       0.01074579
Pt       1.40360721       2.43111841      19.95723445        4      -0.00086793      -0.00082363       0.01724209
Pt       4.21082082       2.43111837      19.95723453        4       0.00117587      -0.00034618       0.01718119
Pt       7.01803480       2.43111844      19.95723439        4      -0.00011478       0.01754756       0.01072408
Pt       2.80721416       4.86223734      19.95723425        4      -0.00030936       0.00116810       0.01724194
Pt       5.61442796       4.86223739      19.95723443        4      -0.00100862      -0.00366542       0.01328728
Pt       8.42164143       4.86223725      19.95723447        4       0.00369335       0.00097513       0.01334121
Pt       1.40360729       0.81037262      22.29206795        3      -0.03870726      -0.00531444      -0.06537564
Pt       4.21082131       0.81037249      22.29206793        3       0.03318316      -0.01032650      -0.06678714
Pt       7.01803470       0.81037255      22.29206785        3      -0.00000000       0.00000166      -0.28143665
Pt       2.80721448       3.24149122      22.29206774        3      -0.00000646       0.00000309      -0.00960739
Pt       5.61442764       3.24149121      22.29206791        3       0.02398338      -0.03096062      -0.06542858
Pt       8.42164154       3.24149129      22.29206806        3      -0.02549124      -0.02363784      -0.06682543
Pt       4.21082091       5.67260997      22.29206741        3      -0.00769281       0.03397201      -0.06671976
Pt       7.01803487       5.67261038      22.29206779        3      -0.00000412      -0.00000261      -0.07411521
Pt       9.82524821       5.67261068      22.29206808        3       0.01473369       0.03626631      -0.06543355
Pt      -0.00000053       1.62074567      24.58417372        2       0.09436701       0.05275811       0.12029443
Pt       2.80721436       1.62074552      24.58417391        2       0.00032326       0.07095454       0.15456519
Pt       5.61442781       1.62074537      24.58417374        2      -0.09296655       0.05537781       0.12028465
Pt       1.40360639       4.05186438      24.58417385        2       0.06133093      -0.03574679       0.15462862
Pt       4.21082087       4.05186396      24.58417384        2      -0.06163375      -0.03518993       0.15467450
Pt       7.01803504       4.05186408      24.58417403        2       0.00228861      -0.02609328      -0.06616315
Pt       2.80721276       6.48298348      24.58417381        2      -0.00141045      -0.10813433       0.12025810
Pt       5.61442804       6.48298329      24.58417396        2      -0.02375386       0.01097258      -0.06625655
Pt       8.42164223       6.48298338      24.58417376        2       0.02146018       0.01510095      -0.06630440
Pt      -0.00265970       0.00216191      26.90696994        1       0.00469908      -0.00364825       0.00034720
Pt       2.80862964      -0.01931948      26.89883903        1      -0.00118034      -0.03353180      -0.00262279
Pt       5.61763577       0.00122539      26.90697877        1      -0.00552278      -0.00225127       0.00032547
Pt       1.37959770       2.41519768      27.01570347        1       0.00651521       0.00373813      -0.00287589
Pt       4.23660468       2.41829359      27.01570503        1      -0.00645157       0.00374840      -0.00289335
Pt       7.01748502       2.42773302      26.90698518        1       0.00083434       0.00590074       0.00030642
Pt       2.80542973       4.89098471      27.01570470        1      -0.00001998      -0.00747950      -0.00289399
Pt       5.63046225       4.87311793      26.89884844        1       0.02959920       0.01575813      -0.00264900
Pt       8.40421030       4.87067755      26.89885063        1      -0.02847134       0.01776895      -0.00265879
O        2.80721144       3.24149322      29.53989774        0      -0.00000640      -0.00000516       0.01445393
C        2.80720999       3.24149156      28.33849887        0       0.00000128       0.00000189       0.01307259
