38
Lattice="8.421641763931781 0.0 0.0 4.2108208819658905 7.293355709136913 0.0 0.0 0.0 46.87624170604845" Properties=species:S:1:pos:R:3:tags:I:1:forces:R:3 charge=0 spin=0 energy=-202.8864936792921 free_energy=-202.8864936792921 stress="0.0099581778049469 -2.213655037053286e-08 5.067255504087598e-09 -2.213655037053286e-08 0.009958195500075817 -1.4500524336824583e-08 5.067255504087598e-09 -1.4500524336824583e-08 -0.0003851745277643204" pbc="T T T"
Pt      -0.00000010      -0.00000005      19.95723451        4       0.00065145      -0.01597108       0.00951359
Pt       2.80721394      -0.00000020      19.95723457        4      -0.00243103       0.00176182       0.02364790
Pt       5.61442787      -0.00000008      19.95723465        4       0.00273074       0.00118745       0.02364483
Pt       1.40360721       2.43111841      19.95723445        4       0.01351334       0.00857116       0.00957584
Pt       4.21082082       2.43111837      19.95723453        4      -0.00177300       0.00278550       0.01090082
Pt       7.01803480       2.43111844      19.95723439        4      -0.01416683       0.00740486       0.00951592
Pt       2.80721416       4.86223734      19.95723425        4       0.00333361       0.00013015       0.01095020
Pt       5.61442796       4.86223739      19.95723443        4      -0.00156123      -0.00292359       0.01088324
Pt       8.42164143       4.86223725      19.95723447        4      -0.00029654      -0.00294646       0.02369033
Pt       1.40360729       0.81037262      22.29206795        3      -0.05379353       0.02891528      -0.15789489
Pt       4.21082131       0.81037249      22.29206793        3      -0.00373984       0.01227656      -0.02538697
Pt       7.01803470       0.81037255      22.29206785        3       0.05184653       0.03213092      -0.15794580
Pt       2.80721448       3.24149122      22.29206774        3      -0.01996601      -0.01327912      -0.06213721
Pt       5.61442764       3.24149121      22.29206791        3       0.02151664      -0.01072927      -0.06214789
Pt       8.42164154       3.24149129      22.29206806        3       0.00195071      -0.06104206      -0.15793967
Pt       4.21082091       5.67260997      22.29206741        3      -0.00155741       0.02401365      -0.06224261
Pt       7.01803487       5.67261038      22.29206779        3      -0.00877471      -0.00936688      -0.02549740
Pt       9.82524821       5.67261068      22.29206808        3       0.01251840      -0.00291655      -0.02554000
Pt      -0.00000053       1.62074567      24.58417372        2       0.00000450       0.00000497      -0.24438900
Pt       2.80721436       1.62074552      24.58417391        2       0.09445727       0.04356794       0.11799416
Pt       5.61442781       1.62074537      24.58417374        2      -0.08974165       0.04043754       0.11567529
Pt       1.40360639       4.05186438      24.58417385        2       0.07998580       0.05759151       0.11584260
Pt       4.21082087       4.05186396      24.58417384        2      -0.00000046       0.00000500       0.13880639
Pt       7.01803504       4.05186408      24.58417403        2      -0.08505557       0.06013644       0.11807597
Pt       2.80721276       6.48298348      24.58417381        2      -0.00939917      -0.10370678       0.11786760
Pt       5.61442804       6.48298329      24.58417396        2       0.00975572      -0.09803070       0.11567537
Pt       8.42164223       6.48298338      24.58417376        2      -0.00000837      -0.00001155      -0.01335383
Pt      -0.00095359       0.02371178      26.89509249        1       0.00060027      -0.00789264       0.01007111
Pt       2.80846690      -0.00196100      26.90916612        1       0.00455598      -0.00181666      -0.00074262
Pt       5.61209987      -0.00010644      26.90916773        1      -0.00384007      -0.00303237      -0.00074703
Pt       1.38354505       2.41843811      26.89510228        1       0.00654026       0.00446428       0.01004283
Pt       4.21128451       2.41339167      27.01825790        1       0.00056113       0.00282465      -0.00013206
Pt       7.03904468       2.42008749      26.89509846        1      -0.00713253       0.00342132       0.01005540
Pt       2.79163114       4.87069690      27.01825796        1       0.00216320      -0.00189440      -0.00013257
Pt       5.62954870       4.87150239      27.01825689        1      -0.00272641      -0.00092838      -0.00013670
Pt       8.42271615       4.86430140      26.90917388        1      -0.00071578       0.00485781      -0.00076541
O        4.21082527       4.05186397      29.55867425        0      -0.00000385      -0.00000003      -0.00908678
C        4.21082381       4.05186418      28.35819674        0      -0.00000146      -0.00000023       0.00378875
