38
Lattice="8.421641763931781 0.0 0.0 4.2108208819658905 7.293355709136913 0.0 0.0 0.0 46.87624170604845" Properties=species:S:1:pos:R:3:tags:I:1:forces:R:3 charge=0 spin=0 energy=-202.87961864114513 free_energy=-202.87961864114513 stress="0.009741535410284996 0.00025702823768369853 -1.4363625268742908e-05 0.00025702823768369853 0.010073983110487461 9.466276083003322e-07 -1.4363625268742908e-05 9.466276083003322e-07 -0.00035312026739120483" pbc="T T T"
Pt      -0.00000010      -0.00000005      19.95723451        4      -0.00345153       0.00245682       0.01311934
Pt       2.80721394      -0.00000020      19.95723457        4       0.00055886       0.00005274       0.02182000
Pt       5.61442787      -0.00000008      19.95723465        4       0.00964569       0.01759432      -0.00641241
Pt       1.40360721       2.43111841      19.95723445        4      -0.00243664      -0.00136504       0.01530439
Pt       4.21082082       2.43111837      19.95723453        4      -0.00113412      -0.00323162       0.01803638
Pt       7.01803480       2.43111844      19.95723439        4       0.00438942      -0.00154278       0.00697466
Pt       2.80721416       4.86223734      19.95723425        4      -0.00715799       0.00508806       0.02538973
Pt       5.61442796       4.86223739      19.95723443        4      -0.00096963       0.00149332       0.01999093
Pt       8.42164143       4.86223725      19.95723447        4      -0.01115834      -0.01618806      -0.00400826
Pt       1.40360729       0.81037262      22.29206795        3       0.00641635      -0.00537460      -0.00991978
Pt       4.21082131       0.81037249      22.29206793        3       0.04301521      -0.03697897      -0.11290923
Pt       7.01803470       0.81037255      22.29206785        3      -0.02949158      -0.01933629      -0.08156539
Pt       2.80721448       3.24149122      22.29206774        3      -0.01195342       0.00465165      -0.01849555
Pt       5.61442764       3.24149121      22.29206791        3       0.00795830      -0.00285966      -0.06890047
Pt       8.42164154       3.24149129      22.29206806        3       0.00180921       0.03714301      -0.08353460
Pt       4.21082091       5.67260997      22.29206741        3      -0.02105904       0.00946962      -0.02000804
Pt       7.01803487       5.67261038      22.29206779        3       0.05101287      -0.01645589      -0.11205132
Pt       9.82524821       5.67261068      22.29206808        3      -0.07063147       0.03882196      -0.21872556
Pt      -0.00000053       1.62074567      24.58417372        2       0.06199106      -0.03731411       0.15614188
Pt       2.80721436       1.62074552      24.58417391        2      -0.13071269       0.06727744       0.15643869
Pt       5.61442781       1.62074537      24.58417374        2      -0.00932290      -0.03247732      -0.07119451
Pt       1.40360639       4.05186438      24.58417385        2       0.01943813      -0.20082842       0.26632446
Pt       4.21082087       4.05186396      24.58417384        2      -0.00032389       0.00457072      -0.02682077
Pt       7.01803504       4.05186408      24.58417403        2       0.02049963       0.02581130      -0.06295463
Pt       2.80721276       6.48298348      24.58417381        2       0.19501404       0.08630598       0.26457742
Pt       5.61442804       6.48298329      24.58417396        2      -0.11987870       0.07145285       0.14858979
Pt       8.42164223       6.48298338      24.58417376        2       0.04059822      -0.02324129      -0.16414441
Pt      -0.00675194      -0.00816222      27.06454713        1      -0.00633870       0.02222597      -0.00661590
Pt       2.86360205      -0.03200601      26.89662825        1      -0.02567270       0.01413831      -0.01136625
Pt       5.62226721      -0.00862882      26.91109829        1       0.00105909       0.00577235      -0.00778564
Pt       1.40502173       2.44132514      27.06352995        1      -0.01869926      -0.01050447      -0.00674122
Pt       4.21193452       2.43370283      26.90951659        1      -0.00800628      -0.00781648      -0.01212026
Pt       6.97218929       2.45573419      26.89128125        1       0.01064989      -0.00318990       0.00992194
Pt       2.81036421       4.86006971      26.90548263        1      -0.00376843       0.00167840       0.00483391
Pt       5.61276632       4.86019646      26.91115494        1       0.00049868       0.01211893      -0.01050305
Pt       8.43218849       4.85906305      26.91154218        1      -0.00300532      -0.00271921      -0.00722481
O        0.72600724       1.20080635      29.70043901        0       0.01727159      -0.00876816      -0.00942114
C        0.72797061       1.20060822      28.51217431        0      -0.00665381       0.00206823       0.00595948
