38
Lattice="8.421641763931781 0.0 0.0 4.2108208819658905 7.293355709136913 0.0 0.0 0.0 46.87624170604845" Properties=species:S:1:pos:R:3:tags:I:1:forces:R:3 charge=0 spin=0 energy=-202.91267871499767 free_energy=-202.91267871499767 stress="0.009917961433529854 6.98047220026865e-09 3.2325846444081208e-09 6.98047220026865e-09 0.009917971678078175 4.063365466322466e-08 3.2325846444081208e-09 4.063365466322466e-08 -0.0004363453190308064" pbc="T T T"
Pt      -0.00000010      -0.00000005      19.95723451        4       0.01521969      -0.00864403       0.01075300
Pt       2.80721394      -0.00000020      19.95723457        4      -0.00268167       0.00268555       0.01331947
Pt       5.61442787      -0.00000008      19.95723465        4      -0.01510749      -0.00889786       0.01074575
Pt       1.40360721       2.43111841      19.95723445        4      -0.00086790      -0.00082363       0.01724221
Pt       4.21082082       2.43111837      19.95723453        4       0.00117594      -0.00034616       0.01718108
Pt       7.01803480       2.43111844      19.95723439        4      -0.00011470       0.01754766       0.01072423
Pt       2.80721416       4.86223734      19.95723425        4      -0.00030945       0.00116817       0.01724187
Pt       5.61442796       4.86223739      19.95723443        4      -0.00100862      -0.00366545       0.01328741
Pt       8.42164143       4.86223725      19.95723447        4       0.00369334       0.00097521       0.01334138
Pt       1.40360729       0.81037262      22.29206795        3      -0.03870721      -0.00531469      -0.06537614
Pt       4.21082131       0.81037249      22.29206793        3       0.03318284      -0.01032666      -0.06678775
Pt       7.01803470       0.81037255      22.29206785        3       0.00000015       0.00000177      -0.28143710
Pt       2.80721448       3.24149122      22.29206774        3      -0.00000671       0.00000273      -0.00960754
Pt       5.61442764       3.24149121      22.29206791        3       0.02398356      -0.03096048      -0.06542853
Pt       8.42164154       3.24149129      22.29206806        3      -0.02549136      -0.02363796      -0.06682569
Pt       4.21082091       5.67260997      22.29206741        3      -0.00769281       0.03397215      -0.06671924
Pt       7.01803487       5.67261038      22.29206779        3      -0.00000414      -0.00000253      -0.07411528
Pt       9.82524821       5.67261068      22.29206808        3       0.01473366       0.03626611      -0.06543324
Pt      -0.00000053       1.62074567      24.58417372        2       0.09436633       0.05275924       0.12029791
Pt       2.80721436       1.62074552      24.58417391        2       0.00032314       0.07095598       0.15456358
Pt       5.61442781       1.62074537      24.58417374        2      -0.09296520       0.05537893       0.12028605
Pt       1.40360639       4.05186438      24.58417385        2       0.06133074      -0.03574707       0.15462913
Pt       4.21082087       4.05186396      24.58417384        2      -0.06163262      -0.03518933       0.15467609
Pt       7.01803504       4.05186408      24.58417403        2       0.00228727      -0.02609408      -0.06615826
Pt       2.80721276       6.48298348      24.58417381        2      -0.00141020      -0.10813468       0.12025785
Pt       5.61442804       6.48298329      24.58417396        2      -0.02375504       0.01097080      -0.06625599
Pt       8.42164223       6.48298338      24.58417376        2       0.02146160       0.01510023      -0.06630639
Pt      -0.00265980       0.00216181      26.90697002        1       0.00470221      -0.00364641       0.00034659
Pt       2.80862986      -0.01931950      26.89883882        1      -0.00118135      -0.03353154      -0.00261655
Pt       5.61763585       0.00122538      26.90697875        1      -0.00552289      -0.00225033       0.00032555
Pt       1.37959789       2.41519778      27.01570320        1       0.00650910       0.00373647      -0.00287524
Pt       4.23660470       2.41829371      27.01570515        1      -0.00645100       0.00374859      -0.00289086
Pt       7.01748471       2.42773305      26.90698547        1       0.00083748       0.00590215       0.00030085
Pt       2.80542968       4.89098463      27.01570452        1      -0.00001962      -0.00748096      -0.00289054
Pt       5.63046207       4.87311777      26.89884859        1       0.02960039       0.01575813      -0.00265508
Pt       8.40421016       4.87067746      26.89885072        1      -0.02847283       0.01776734      -0.00265905
O        2.80721136       3.24149323      29.53989940        0      -0.00000649      -0.00000450       0.01430747
C        2.80721010       3.24149175      28.33849865        0       0.00000182       0.00000162       0.01321103
