38
Lattice="8.421641763931781 0.0 0.0 4.2108208819658905 7.293355709136913 0.0 0.0 0.0 46.87624170604845" Properties=species:S:1:pos:R:3:tags:I:1:forces:R:3 charge=0 spin=0 energy=-202.88563537240734 free_energy=-202.88563537240734 stress="0.010025978088378906 -1.885631917275532e-08 1.9299841724773614e-09 -1.885631917275532e-08 0.010026000440120697 -1.2926507864108316e-08 1.9299841724773614e-09 -1.2926507864108316e-08 -0.0002534229715820402" pbc="T T T"
Pt      -0.00000010      -0.00000005      19.95723451        4      -0.00121653      -0.00268272       0.01087274
Pt       2.80721394      -0.00000020      19.95723457        4      -0.00025663      -0.00272984       0.02368429
Pt       5.61442787      -0.00000008      19.95723465        4       0.00296174       0.00031838       0.01093192
Pt       1.40360721       2.43111841      19.95723445        4      -0.00226804       0.00161765       0.02364383
Pt       4.21082082       2.43111837      19.95723453        4       0.00252669       0.00111682       0.02364084
Pt       7.01803480       2.43111844      19.95723439        4       0.00065290      -0.01594611       0.00972902
Pt       2.80721416       4.86223734      19.95723425        4      -0.00174879       0.00236682       0.01089342
Pt       5.61442796       4.86223739      19.95723443        4      -0.01414238       0.00738659       0.00972147
Pt       8.42164143       4.86223725      19.95723447        4       0.01349187       0.00855207       0.00978371
Pt       1.40360729       0.81037262      22.29206795        3      -0.00899075      -0.00935290      -0.02487034
Pt       4.21082131       0.81037249      22.29206793        3       0.01260894      -0.00309621      -0.02490629
Pt       7.01803470       0.81037255      22.29206785        3      -0.00157750       0.02371194      -0.06416013
Pt       2.80721448       3.24149122      22.29206774        3      -0.00362733       0.01245965      -0.02476419
Pt       5.61442764       3.24149121      22.29206791        3       0.05146531       0.03162875      -0.15736412
Pt       8.42164154       3.24149129      22.29206806        3      -0.05316068       0.02883334      -0.15732050
Pt       4.21082091       5.67260997      22.29206741        3       0.02125942      -0.01055393      -0.06403526
Pt       7.01803487       5.67261038      22.29206779        3       0.00169968      -0.06046395      -0.15735009
Pt       9.82524821       5.67261068      22.29206808        3      -0.01967527      -0.01316502      -0.06404227
Pt      -0.00000053       1.62074567      24.58417372        2       0.00993282      -0.08889231       0.12799320
Pt       2.80721436       1.62074552      24.58417391        2       0.00000279      -0.00000456      -0.01225022
Pt       5.61442781       1.62074537      24.58417374        2      -0.00946783      -0.09568762       0.13038771
Pt       1.40360639       4.05186438      24.58417385        2       0.08756639       0.03951856       0.13047494
Pt       4.21082087       4.05186396      24.58417384        2      -0.08191547       0.03571424       0.12799042
Pt       7.01803504       4.05186408      24.58417403        2      -0.00000670       0.00000374      -0.20295653
Pt       2.80721276       6.48298348      24.58417381        2       0.00000757      -0.00000384       0.13736236
Pt       5.61442804       6.48298329      24.58417396        2      -0.07809916       0.05617221       0.13055816
Pt       8.42164223       6.48298338      24.58417376        2       0.07197474       0.05317541       0.12816393
Pt       0.01539983       0.01060460      27.01582567        1      -0.02388176      -0.01662289       0.02583893
Pt       2.80781722       0.00803755      26.91493445        1       0.00032035      -0.03457940      -0.01562657
Pt       5.59754715       0.00803097      27.01583157        1       0.02631042      -0.01235356       0.02581349
Pt       1.41026255       2.42657833      26.91492360        1      -0.03009052       0.01701103      -0.01558946
Pt       4.20355610       2.42762433      26.91493154        1       0.02980226       0.01753769      -0.01561919
Pt       7.01665435       2.45111169      26.90097422        1       0.00158013       0.03069778      -0.01857940
Pt       2.80869918       4.84359908      27.01582085        1      -0.00245857       0.02899844       0.02585453
Pt       5.63242965       4.85343339      26.90097409        1       0.02580728      -0.01672193      -0.01858209
Pt       8.40501454       4.85104571      26.90097214        1      -0.02738365      -0.01396368      -0.01857471
O       11.22886003       6.48297962      29.56202459        0       0.00000442      -0.00000510      -0.03906348
C       11.22885957       6.48298050      28.36171778        0      -0.00000816       0.00000419      -0.02768394
