38
Lattice="8.421641763931781 0.0 0.0 4.2108208819658905 7.293355709136913 0.0 0.0 0.0 46.87624170604845" Properties=species:S:1:pos:R:3:tags:I:1:forces:R:3 charge=0 spin=0 energy=-202.88563155771007 free_energy=-202.88563155771007 stress="0.010025977157056332 -1.830719931206204e-08 4.152573840343621e-09 -1.830719931206204e-08 0.010025993920862675 -1.2266774263025582e-08 4.152573840343621e-09 -1.2266774263025582e-08 -0.0002533665974624455" pbc="T T T"
Pt      -0.00000010      -0.00000005      19.95723451        4      -0.01414401       0.00739422       0.00972171
Pt       2.80721394      -0.00000020      19.95723457        4       0.01348856       0.00855816       0.00978278
Pt       5.61442787      -0.00000008      19.95723465        4      -0.00174611       0.00237316       0.01088557
Pt       1.40360721       2.43111841      19.95723445        4      -0.00025617      -0.00273094       0.02368696
Pt       4.21082082       2.43111837      19.95723453        4       0.00296388       0.00031539       0.01093371
Pt       7.01803480       2.43111844      19.95723439        4      -0.00121669      -0.00268625       0.01087726
Pt       2.80721416       4.86223734      19.95723425        4       0.00252192       0.00111387       0.02364701
Pt       5.61442796       4.86223739      19.95723443        4       0.00065393      -0.01595040       0.00972419
Pt       8.42164143       4.86223725      19.95723447        4      -0.00226507       0.00161270       0.02364213
Pt       1.40360729       0.81037262      22.29206795        3       0.00170161      -0.06045924      -0.15735140
Pt       4.21082131       0.81037249      22.29206793        3      -0.01968513      -0.01314988      -0.06404248
Pt       7.01803470       0.81037255      22.29206785        3       0.02126373      -0.01055401      -0.06405210
Pt       2.80721448       3.24149122      22.29206774        3       0.01260337      -0.00309773      -0.02490710
Pt       5.61442764       3.24149121      22.29206791        3      -0.00157504       0.02371046      -0.06416039
Pt       8.42164154       3.24149129      22.29206806        3      -0.00898584      -0.00935324      -0.02487209
Pt       4.21082091       5.67260997      22.29206741        3       0.05145932       0.03162996      -0.15734637
Pt       7.01803487       5.67261038      22.29206779        3      -0.05316754       0.02882936      -0.15731589
Pt       9.82524821       5.67261068      22.29206808        3      -0.00361153       0.01244583      -0.02476431
Pt      -0.00000053       1.62074567      24.58417372        2      -0.07809199       0.05617404       0.13056237
Pt       2.80721436       1.62074552      24.58417391        2       0.07197827       0.05318061       0.12816097
Pt       5.61442781       1.62074537      24.58417374        2      -0.00000371       0.00000788       0.13736537
Pt       1.40360639       4.05186438      24.58417385        2       0.00000863      -0.00000400      -0.01225280
Pt       4.21082087       4.05186396      24.58417384        2      -0.00946546      -0.09568516       0.13037977
Pt       7.01803504       4.05186408      24.58417403        2       0.00992839      -0.08888572       0.12799397
Pt       2.80721276       6.48298348      24.58417381        2      -0.08190222       0.03570137       0.12798691
Pt       5.61442804       6.48298329      24.58417396        2      -0.00000824      -0.00000395      -0.20296127
Pt       8.42164223       6.48298338      24.58417376        2       0.08755164       0.03951044       0.13048217
Pt       0.01800179      -0.00880362      26.90097416        1       0.02580669      -0.01671990      -0.01858178
Pt       2.79058690      -0.01119157      26.90097168        1      -0.02738082      -0.01396480      -0.01857427
Pt       5.61591291      -0.01863800      27.01582167        1      -0.00245885       0.02899426       0.02585683
Pt       1.40421026       2.43915576      26.91493444        1       0.00031656      -0.03457761      -0.01562790
Pt       4.19394058       2.43914920      27.01582986        1       0.02630707      -0.01235165       0.02581881
Pt       7.03343444       2.44172311      27.01582591        1      -0.02387763      -0.01662156       0.02583862
Pt       2.79994904       4.85874298      26.91493108        1       0.02979794       0.01753644      -0.01561556
Pt       5.61304763       4.88223051      26.90097392        1       0.00158224       0.03069811      -0.01858065
Pt       8.42829705       4.85769721      26.91492387        1      -0.03008883       0.01701028      -0.01559570
O        5.61443187       1.62074308      29.56202467        0       0.00000244      -0.00000556      -0.03920499
C        5.61443152       1.62074311      28.36171552        0      -0.00000552       0.00000497      -0.02754018
