38
Lattice="8.421641763931781 0.0 0.0 4.2108208819658905 7.293355709136913 0.0 0.0 0.0 46.87624170604845" Properties=species:S:1:pos:R:3:tags:I:1:forces:R:3 charge=0 spin=0 energy=-202.87920856118907 free_energy=-202.87920856118907 stress="0.009760417975485325 -0.00028029512031935155 -1.0176710020459723e-05 -0.00028029512031935155 0.010052223689854145 4.455895577848423e-06 -1.0176710020459723e-05 4.455895577848423e-06 -0.0003527500375639647" pbc="T T T"
Pt      -0.00000010      -0.00000005      19.95723451        4      -0.00330423      -0.00268372       0.00721881
Pt       2.80721394      -0.00000020      19.95723457        4       0.00224933       0.00060321       0.01982745
Pt       5.61442787      -0.00000008      19.95723465        4       0.00392959       0.00191100       0.01307191
Pt       1.40360721       2.43111841      19.95723445        4      -0.00179273       0.00292798       0.01780716
Pt       4.21082082       2.43111837      19.95723453        4       0.00835891       0.00394459       0.02552238
Pt       7.01803480       2.43111844      19.95723439        4       0.01073904      -0.01662936      -0.00635600
Pt       2.80721416       4.86223734      19.95723425        4       0.00015230       0.00296472       0.01507774
Pt       5.61442796       4.86223739      19.95723443        4      -0.00791882       0.01795553      -0.00395451
Pt       8.42164143       4.86223725      19.95723447        4      -0.00000037      -0.00021843       0.02184566
Pt       1.40360729       0.81037262      22.29206795        3      -0.00516074      -0.00447412      -0.06900574
Pt       4.21082131       0.81037249      22.29206793        3       0.02015512       0.01524583      -0.02027214
Pt       7.01803470       0.81037255      22.29206785        3      -0.00041487       0.03590867      -0.08306091
Pt       2.80721448       3.24149122      22.29206774        3       0.01190002       0.00881255      -0.01888497
Pt       5.61442764       3.24149121      22.29206791        3       0.06970952       0.04222265      -0.21883763
Pt       8.42164154       3.24149129      22.29206806        3      -0.05218507      -0.01858746      -0.11207658
Pt       4.21082091       5.67260997      22.29206741        3       0.03232608      -0.01932043      -0.08539431
Pt       7.01803487       5.67261038      22.29206779        3      -0.03940456      -0.03496526      -0.11157357
Pt       9.82524821       5.67261068      22.29206808        3      -0.00637832      -0.00195356      -0.00812227
Pt      -0.00000053       1.62074567      24.58417372        2      -0.02726561       0.02212234      -0.07667944
Pt       2.80721436       1.62074552      24.58417391        2       0.00500906      -0.00254119      -0.02961953
Pt       5.61442781       1.62074537      24.58417374        2      -0.03285862      -0.21447924       0.27076507
Pt       1.40360639       4.05186438      24.58417385        2       0.11354602       0.08170754       0.15459113
Pt       4.21082087       4.05186396      24.58417384        2      -0.18897720       0.07413035       0.27098450
Pt       7.01803504       4.05186408      24.58417403        2      -0.04225193      -0.02557361      -0.16009818
Pt       2.80721276       6.48298348      24.58417381        2      -0.06762436      -0.03753281       0.16136101
Pt       5.61442804       6.48298329      24.58417396        2       0.00932364      -0.03356770      -0.06885058
Pt       8.42164223       6.48298338      24.58417376        2       0.12009432       0.05863457       0.14782040
Pt       0.04231874       0.02537203      26.89056067        1      -0.02757537      -0.01783938       0.01070565
Pt       2.80432021      -0.00171405      26.90872660        1      -0.00546756      -0.00481202      -0.00049514
Pt       5.60335146       0.00428461      27.06507583        1       0.04057444       0.00711999      -0.01250891
Pt       1.40165551       2.42768711      26.90697579        1      -0.01120165      -0.00298258      -0.00208184
Pt       4.19927071       2.42403345      26.91242861        1       0.02376351       0.01223004      -0.01707069
Pt       7.00101204       2.42235635      26.90868134        1      -0.00037353       0.00326453      -0.00051493
Pt       2.80762378       4.85014498      27.06267852        1       0.01578185       0.04043649      -0.00200494
Pt       5.59874418       4.85174372      26.90930738        1       0.00332292      -0.00355558      -0.00021787
Pt       8.35723123       4.82396970      26.90186235        1       0.03247483       0.01824855      -0.02578828
O       10.45842623       6.03777222      29.69932429        0      -0.00451449      -0.00504901      -0.00940809
C       10.47291548       6.04572678      28.51111294        0       0.00125946      -0.00362559       0.00627806
