38
Lattice="8.421641763931781 0.0 0.0 4.2108208819658905 7.293355709136913 0.0 0.0 0.0 46.87624170604845" Properties=species:S:1:pos:R:3:tags:I:1:forces:R:3 charge=0 spin=0 energy=-202.91223716378917 free_energy=-202.91223716378917 stress="0.009914894588291645 7.547832581167313e-09 6.444265121530179e-09 7.547832581167313e-09 0.009914912283420563 3.428752393119794e-08 6.444265121530179e-09 3.428752393119794e-08 -0.00044931870070286095" pbc="T T T"
Pt      -0.00000010      -0.00000005      19.95723451        4      -0.00019667       0.00095084       0.01698740
Pt       2.80721394      -0.00000020      19.95723457        4      -0.00088481      -0.00358588       0.01321434
Pt       5.61442787      -0.00000008      19.95723465        4       0.00356586       0.00105140       0.01326627
Pt       1.40360721       2.43111841      19.95723445        4       0.01521007      -0.00863720       0.01065478
Pt       4.21082082       2.43111837      19.95723453        4      -0.00268034       0.00253912       0.01324810
Pt       7.01803480       2.43111844      19.95723439        4      -0.01509650      -0.00889556       0.01064528
Pt       2.80721416       4.86223734      19.95723425        4      -0.00073229      -0.00062155       0.01700260
Pt       5.61442796       4.86223739      19.95723443        4       0.00092625      -0.00033372       0.01693170
Pt       8.42164143       4.86223725      19.95723447        4      -0.00011114       0.01753161       0.01061795
Pt       1.40360729       0.81037262      22.29206795        3      -0.00777074       0.03462746      -0.06683139
Pt       4.21082131       0.81037249      22.29206793        3      -0.00000155       0.00000634      -0.07234113
Pt       7.01803470       0.81037255      22.29206785        3       0.01462959       0.03702514      -0.06583706
Pt       2.80721448       3.24149122      22.29206774        3      -0.03930982      -0.00576916      -0.06578065
Pt       5.61442764       3.24149121      22.29206791        3       0.03379312      -0.01059018      -0.06688351
Pt       8.42164154       3.24149129      22.29206806        3       0.00000419       0.00000029      -0.28188834
Pt       4.21082091       5.67260997      22.29206741        3      -0.00000450      -0.00000078      -0.00721551
Pt       7.01803487       5.67261038      22.29206779        3       0.02467041      -0.03125449      -0.06581877
Pt       9.82524821       5.67261068      22.29206808        3      -0.02601218      -0.02404713      -0.06692653
Pt      -0.00000053       1.62074567      24.58417372        2      -0.00099090      -0.10879444       0.13135207
Pt       2.80721436       1.62074552      24.58417391        2      -0.02619822       0.01157478      -0.08120047
Pt       5.61442781       1.62074537      24.58417374        2       0.02322370       0.01691882      -0.08128151
Pt       1.40360639       4.05186438      24.58417385        2       0.09472801       0.05344800       0.13140179
Pt       4.21082087       4.05186396      24.58417384        2       0.00058163       0.07584369       0.14731532
Pt       7.01803504       4.05186408      24.58417403        2      -0.09374264       0.05537176       0.13137572
Pt       2.80721276       6.48298348      24.58417381        2       0.06543167      -0.03841525       0.14738724
Pt       5.61442804       6.48298329      24.58417396        2      -0.06597605      -0.03741280       0.14743452
Pt       8.42164223       6.48298338      24.58417376        2       0.00294476      -0.02853044      -0.08110691
Pt      -0.00224823       0.02482246      27.01639048        1       0.00254015       0.02360136       0.00066448
Pt       2.82247846       0.00949440      26.89435412        1       0.03230064       0.02097251       0.01688161
Pt       5.59855705       0.00847079      26.89433552        1      -0.03423554       0.01750454       0.01694475
Pt       1.40571120       2.43043259      26.90727304        1      -0.02844977       0.01451464      -0.00432420
Pt       4.21142184       2.41315261      26.89432649        1       0.00197152      -0.03845570       0.01697105
Pt       7.01640706       2.42966041      26.90726154        1       0.02674632       0.01730669      -0.00429386
Pt       2.78683333       4.84788113      27.01638943        1      -0.02167390      -0.00956537       0.00067784
Pt       5.63704442       4.85177775      27.01639519        1       0.01916948      -0.01402569       0.00064559
Pt       8.42118673       4.86439176      26.90728891        1       0.00164139      -0.03185678      -0.00436939
O        4.21081724       5.67261052      29.54615856        0      -0.00001014       0.00000166       0.00919050
C        4.21081630       5.67261083      28.34499865        0      -0.00000072       0.00000154      -0.00471143
