38
Lattice="8.421641763931781 0.0 0.0 4.2108208819658905 7.293355709136913 0.0 0.0 0.0 46.87624170604845" Properties=species:S:1:pos:R:3:tags:I:1:forces:R:3 charge=0 spin=0 energy=-202.87920856118907 free_energy=-202.87920856118907 stress="0.009760419838130474 -0.00028029902023263276 -1.0171704161621165e-05 -0.00028029902023263276 0.010052238591015339 4.449645075510489e-06 -1.0171704161621165e-05 4.449645075510489e-06 -0.0003526685177348554" pbc="T T T"
Pt      -0.00000010      -0.00000005      19.95723451        4       0.00015423       0.00297133       0.01506817
Pt       2.80721394      -0.00000020      19.95723457        4      -0.00791923       0.01796324      -0.00395209
Pt       5.61442787      -0.00000008      19.95723465        4      -0.00000343      -0.00021265       0.02184477
Pt       1.40360721       2.43111841      19.95723445        4      -0.00330283      -0.00268482       0.00722320
Pt       4.21082082       2.43111837      19.95723453        4       0.00225158       0.00059970       0.01982942
Pt       7.01803480       2.43111844      19.95723439        4       0.00392874       0.00190795       0.01307490
Pt       2.80721416       4.86223734      19.95723425        4      -0.00179593       0.00292263       0.01781231
Pt       5.61442796       4.86223739      19.95723443        4       0.00835744       0.00394056       0.02551867
Pt       8.42164143       4.86223725      19.95723447        4       0.01074355      -0.01663228      -0.00635766
Pt       1.40360729       0.81037262      22.29206795        3       0.03232851      -0.01932052      -0.08541008
Pt       4.21082131       0.81037249      22.29206793        3      -0.03940245      -0.03495687      -0.11157833
Pt       7.01803470       0.81037255      22.29206785        3      -0.00638734      -0.00194136      -0.00812254
Pt       2.80721448       3.24149122      22.29206774        3      -0.00516681      -0.00447199      -0.06900937
Pt       5.61442764       3.24149121      22.29206791        3       0.02015879       0.01524074      -0.02026926
Pt       8.42164154       3.24149129      22.29206806        3      -0.00041137       0.03590832      -0.08306157
Pt       4.21082091       5.67260997      22.29206741        3       0.01190304       0.00880974      -0.01886574
Pt       7.01803487       5.67261038      22.29206779        3       0.06970358       0.04221909      -0.21883474
Pt       9.82524821       5.67261068      22.29206808        3      -0.05217991      -0.01859841      -0.11207624
Pt      -0.00000053       1.62074567      24.58417372        2      -0.06763329      -0.03752508       0.16136502
Pt       2.80721436       1.62074552      24.58417391        2       0.00932639      -0.03356178      -0.06884282
Pt       5.61442781       1.62074537      24.58417374        2       0.12009799       0.05864432       0.14782012
Pt       1.40360639       4.05186438      24.58417385        2      -0.02726273       0.02212632      -0.07668339
Pt       4.21082087       4.05186396      24.58417384        2       0.00501343      -0.00253587      -0.02962042
Pt       7.01803504       4.05186408      24.58417403        2      -0.03286210      -0.21447767       0.27076021
Pt       2.80721276       6.48298348      24.58417381        2       0.11355285       0.08169527       0.15458806
Pt       5.61442804       6.48298329      24.58417396        2      -0.18898213       0.07411823       0.27098802
Pt       8.42164223       6.48298338      24.58417376        2      -0.04225702      -0.02558357      -0.16009690
Pt       0.00040958      -0.01209205      27.06267793        1       0.01578402       0.04043370      -0.00200371
Pt       2.79153082      -0.01049345      26.90930824        1       0.00332011      -0.00355440      -0.00021739
Pt       5.55001643      -0.03826783      26.90186332        1       0.03247726       0.01825375      -0.02578497
Pt       1.44592592       2.45649099      26.89056100        1      -0.02757736      -0.01784323       0.01070614
Pt       4.20792680       2.42940503      26.90872676        1      -0.00546829      -0.00481550      -0.00050159
Pt       7.00695713       2.43540476      27.06507386        1       0.04058674       0.00709702      -0.01248674
Pt       2.80526197       4.85880540      26.90697577        1      -0.01119772      -0.00297861      -0.00208269
Pt       5.60287810       4.85515108      26.91242977        1       0.02375843       0.01223758      -0.01707849
Pt       8.40461870       4.85347532      26.90868125        1      -0.00037192       0.00326513      -0.00051404
O        7.65121399       1.17553314      29.69932372        0      -0.00451750      -0.00504702      -0.00957175
C        7.66570253       1.18348721      28.51111043        0       0.00125268      -0.00361320       0.00642348
