38
Lattice="8.421641763931781 0.0 0.0 4.2108208819658905 7.293355709136913 0.0 0.0 0.0 46.87624170604845" Properties=species:S:1:pos:R:3:tags:I:1:forces:R:3 charge=0 spin=0 energy=-202.9127855265211 free_energy=-202.9127855265211 stress="0.009971531108021736 6.015021813965404e-09 2.4868267445299352e-09 6.015021813965404e-09 0.00997154414653778 3.523110692071896e-08 2.4868267445299352e-09 3.523110692071896e-08 -0.00033180389436893165" pbc="T T T"
Pt      -0.00000010      -0.00000005      19.95723451        4      -0.00032172       0.00157546       0.01744306
Pt       2.80721394      -0.00000020      19.95723457        4      -0.00101481      -0.00358595       0.01323739
Pt       5.61442787      -0.00000008      19.95723465        4       0.00363128       0.00093939       0.01328868
Pt       1.40360721       2.43111841      19.95723445        4       0.01527076      -0.00864877       0.01087518
Pt       4.21082082       2.43111837      19.95723453        4      -0.00261478       0.00265222       0.01326890
Pt       7.01803480       2.43111844      19.95723439        4      -0.01513635      -0.00894150       0.01086581
Pt       2.80721416       4.86223734      19.95723425        4      -0.00121030      -0.00104302       0.01745831
Pt       5.61442796       4.86223739      19.95723443        4       0.00152850      -0.00053781       0.01738784
Pt       8.42164143       4.86223725      19.95723447        4      -0.00013223       0.01758841       0.01084020
Pt       1.40360729       0.81037262      22.29206795        3      -0.00775898       0.03385006      -0.06614433
Pt       4.21082131       0.81037249      22.29206793        3      -0.00000124       0.00000475      -0.07463973
Pt       7.01803470       0.81037255      22.29206785        3       0.01473364       0.03610655      -0.06512217
Pt       2.80721448       3.24149122      22.29206774        3      -0.03856859      -0.00521849      -0.06506721
Pt       5.61442764       3.24149121      22.29206791        3       0.03311663      -0.01021145      -0.06619343
Pt       8.42164154       3.24149129      22.29206806        3       0.00000413       0.00000012      -0.28044444
Pt       4.21082091       5.67260997      22.29206741        3      -0.00000348       0.00000106      -0.01225247
Pt       7.01803487       5.67261038      22.29206779        3       0.02382544      -0.03088737      -0.06511197
Pt       9.82524821       5.67261068      22.29206808        3      -0.02534643      -0.02364857      -0.06623092
Pt      -0.00000053       1.62074567      24.58417372        2      -0.00118844      -0.10823566       0.13472253
Pt       2.80721436       1.62074552      24.58417391        2      -0.02867594       0.01361414      -0.06481498
Pt       5.61442781       1.62074537      24.58417374        2       0.02619181       0.01807614      -0.06487406
Pt       1.40360639       4.05186438      24.58417385        2       0.09436303       0.05301306       0.13474821
Pt       4.21082087       4.05186396      24.58417384        2       0.00011257       0.06976245       0.16783775
Pt       7.01803504       4.05186408      24.58417403        2      -0.09318084       0.05523321       0.13473190
Pt       2.80721276       6.48298348      24.58417381        2       0.06041381      -0.03497739       0.16789313
Pt       5.61442804       6.48298329      24.58417396        2      -0.06050256      -0.03479502       0.16793431
Pt       8.42164223       6.48298338      24.58417376        2       0.00246620      -0.03168088      -0.06474610
Pt      -0.00095805       0.02819442      27.01816415        1      -0.00191207      -0.01251678      -0.00609916
Pt       2.82935829       0.01396007      26.90105766        1      -0.01488903      -0.00868981      -0.00422403
Pt       5.59126793       0.01220215      26.90105922        1       0.01496774      -0.00855882      -0.00422730
Pt       1.40190930       2.43340276      26.91103579        1      -0.00393470      -0.00065171      -0.01239316
Pt       4.21183681       2.40496548      26.90106616        1      -0.00007512       0.01723282      -0.00424481
Pt       7.02086049       2.43144968      26.91103801        1       0.00140370       0.00372766      -0.01239653
Pt       2.78327315       4.84731106      27.01816767        1       0.01180455       0.00460941      -0.00611074
Pt       5.63932540       4.84896992      27.01816810        1      -0.00989236       0.00791602      -0.00611045
Pt       8.42051391       4.85962710      26.91103893        1       0.00252621      -0.00307893      -0.01240544
O        4.21082049       5.67261086      29.54575431        0      -0.00000010       0.00000011      -0.01615818
C        4.21082081       5.67260892      28.34420863        0       0.00000005       0.00000480       0.00747843
