38
Lattice="8.421641763931781 0.0 0.0 4.2108208819658905 7.293355709136913 0.0 0.0 0.0 46.87624170604845" Properties=species:S:1:pos:R:3:tags:I:1:forces:R:3 charge=0 spin=0 energy=-202.81927775979747 free_energy=-202.81927775979747 stress="0.009581400081515312 -5.032275751659654e-08 4.105924347186374e-07 -5.032275751659654e-08 0.009581555612385273 -2.334084285848803e-07 4.105924347186374e-07 -2.334084285848803e-07 -0.0003885432379320264" pbc="T T T"
Pt      -0.00000010      -0.00000005      19.95723451        4      -0.00002200       0.00002221      -0.06919377
Pt       2.80721394      -0.00000020      19.95723457        4      -0.00794470       0.00285009       0.01959359
Pt       5.61442787      -0.00000008      19.95723465        4       0.00908549       0.00283497       0.02008360
Pt       1.40360721       2.43111841      19.95723445        4      -0.00209125      -0.00929452       0.02011475
Pt       4.21082082       2.43111837      19.95723453        4       0.00001024       0.00000056       0.01755494
Pt       7.01803480       2.43111844      19.95723439        4       0.00152006      -0.00830060       0.01951123
Pt       2.80721416       4.86223734      19.95723425        4       0.00643092       0.00544333       0.01954670
Pt       5.61442796       4.86223739      19.95723443        4      -0.00698871       0.00645715       0.02006602
Pt       8.42164143       4.86223725      19.95723447        4       0.00001553      -0.00001051       0.02220628
Pt       1.40360729       0.81037262      22.29206795        3      -0.05363837      -0.03255375      -0.11439905
Pt       4.21082131       0.81037249      22.29206793        3      -0.00398046       0.00292729      -0.02821082
Pt       7.01803470       0.81037255      22.29206785        3       0.05506936      -0.03021096      -0.11450824
Pt       2.80721448       3.24149122      22.29206774        3       0.00457623       0.00204982      -0.02836856
Pt       5.61442764       3.24149121      22.29206791        3      -0.00051940      -0.00501949      -0.02841365
Pt       8.42164154       3.24149129      22.29206806        3       0.00576563      -0.00197326      -0.06338771
Pt       4.21082091       5.67260997      22.29206741        3      -0.00136490       0.06273448      -0.11440012
Pt       7.01803487       5.67261038      22.29206779        3      -0.00455836      -0.00402893      -0.06317347
Pt       9.82524821       5.67261068      22.29206808        3      -0.00110054       0.00595439      -0.06317554
Pt      -0.00000053       1.62074567      24.58417372        2      -0.00031680      -0.04758222      -0.12910986
Pt       2.80721436       1.62074552      24.58417391        2       0.23524721       0.13834891       0.34111184
Pt       5.61442781       1.62074537      24.58417374        2      -0.23680837       0.13469054       0.34038770
Pt       1.40360639       4.05186438      24.58417385        2       0.00200083      -0.00527545      -0.03979825
Pt       4.21082087       4.05186396      24.58417384        2       0.00184134      -0.27303565       0.34103709
Pt       7.01803504       4.05186408      24.58417403        2      -0.00589507       0.00059445      -0.03972934
Pt       2.80721276       6.48298348      24.58417381        2       0.04152559       0.02368163      -0.12955999
Pt       5.61442804       6.48298329      24.58417396        2      -0.04139061       0.02405759      -0.12950428
Pt       8.42164223       6.48298338      24.58417376        2       0.00341493       0.00469172      -0.04006001
Pt      -0.00015934       0.00009227      26.92445240        1       0.00020885      -0.00014439       0.00753632
Pt       2.78975715      -0.02549891      26.90049799        1       0.00465675       0.00868755      -0.00335557
Pt       5.63127394      -0.02668909      26.89938908        1      -0.00294092       0.01126520      -0.00470476
Pt       1.37200214       2.42986281      26.89952852        1       0.01060516      -0.00307493      -0.00495828
Pt       4.21062872       2.43121646      27.06841553        1       0.00095822      -0.00049192      -0.01475810
Pt       7.04884269       2.42901724      26.90058348        1      -0.01032522      -0.00059183      -0.00375056
Pt       2.79360539       4.88997939      26.90050297        1       0.00536844      -0.00798083      -0.00337794
Pt       5.62891575       4.89031675      26.89945013        1      -0.00788907      -0.00802115      -0.00470153
Pt       8.42148605       4.86230469      26.91542398        1       0.00019282      -0.00006582       0.00905042
O        4.21210048       2.43045145      30.08159250        0       0.00040791      -0.00020649       0.01039794
C        4.21174264       2.43064472      28.91916311        0      -0.00112672       0.00057083       0.02640086
