38
Lattice="8.421641763931781 0.0 0.0 4.2108208819658905 7.293355709136913 0.0 0.0 0.0 46.87624170604845" Properties=species:S:1:pos:R:3:tags:I:1:forces:R:3 charge=0 spin=0 energy=-202.81933593393077 free_energy=-202.81933593393077 stress="0.009625961072742939 -9.271133905031093e-08 1.809729033297458e-09 -9.271133905031093e-08 0.00962596945464611 -8.274243867845144e-08 1.809729033297458e-09 -8.274243867845144e-08 -0.00028540045605041087" pbc="T T T"
Pt      -0.00000010      -0.00000005      19.95723451        4       0.00897939       0.00287436       0.02010374
Pt       2.80721394      -0.00000020      19.95723457        4       0.00000051       0.00000353      -0.06861874
Pt       5.61442787      -0.00000008      19.95723465        4      -0.00790624       0.00284906       0.01954435
Pt       1.40360721       2.43111841      19.95723445        4       0.00150047      -0.00826814       0.01948567
Pt       4.21082082       2.43111837      19.95723453        4      -0.00200577      -0.00922221       0.02012552
Pt       7.01803480       2.43111844      19.95723439        4      -0.00000114      -0.00000017       0.01772217
Pt       2.80721416       4.86223734      19.95723425        4      -0.00000270      -0.00000368       0.02240993
Pt       5.61442796       4.86223739      19.95723443        4       0.00640635       0.00541912       0.01949842
Pt       8.42164143       4.86223725      19.95723447        4      -0.00696918       0.00634844       0.02007437
Pt       1.40360729       0.81037262      22.29206795        3       0.05471553      -0.02994806      -0.11477918
Pt       4.21082131       0.81037249      22.29206793        3      -0.05327287      -0.03235868      -0.11476588
Pt       7.01803470       0.81037255      22.29206785        3      -0.00413722       0.00290250      -0.02812419
Pt       2.80721448       3.24149122      22.29206774        3       0.00583007      -0.00201423      -0.06332330
Pt       5.61442764       3.24149121      22.29206791        3       0.00458487       0.00220260      -0.02834681
Pt       8.42164154       3.24149129      22.29206806        3      -0.00044481      -0.00510874      -0.02838191
Pt       4.21082091       5.67260997      22.29206741        3      -0.00114198       0.00609269      -0.06306189
Pt       7.01803487       5.67261038      22.29206779        3      -0.00144425       0.06231251      -0.11477635
Pt       9.82524821       5.67261068      22.29206808        3      -0.00468538      -0.00408698      -0.06309627
Pt      -0.00000053       1.62074567      24.58417372        2      -0.23976153       0.13653934       0.35021791
Pt       2.80721436       1.62074552      24.58417391        2      -0.00036545      -0.04597922      -0.12027439
Pt       5.61442781       1.62074537      24.58417374        2       0.23807640       0.13950101       0.35025159
Pt       1.40360639       4.05186438      24.58417385        2      -0.00360794       0.00281517      -0.02862464
Pt       4.21082087       4.05186396      24.58417384        2      -0.00075175      -0.00449963      -0.02866702
Pt       7.01803504       4.05186408      24.58417403        2       0.00171543      -0.27601352       0.35026160
Pt       2.80721276       6.48298348      24.58417381        2       0.00434643       0.00168904      -0.02887147
Pt       5.61442804       6.48298329      24.58417396        2       0.04006344       0.02276323      -0.12052809
Pt       8.42164223       6.48298338      24.58417376        2      -0.03972398       0.02317007      -0.12042753
Pt       0.01737741      -0.02517955      26.90089944        1      -0.00444238       0.00238299      -0.01108069
Pt       2.80720720      -0.00000340      26.92583512        1       0.00001688       0.00001616       0.00055560
Pt       5.59793287      -0.02528184      26.90176443        1       0.00198273       0.00399359      -0.00876170
Pt       1.43374332       2.42949251      26.90176253        1      -0.00444075      -0.00028671      -0.00878159
Pt       4.18032163       2.42865324      26.90091309        1       0.00428518       0.00266080      -0.01104942
Pt       7.01803481       2.43111851      27.07492219        1      -0.00000228       0.00000148      -0.00020225
Pt       2.80721966       4.86224131      26.92038388        1      -0.00001447      -0.00001198      -0.01126572
Pt       5.60078314       4.88915012      26.90176359        1       0.00246965      -0.00370580      -0.00881671
Pt       8.43476818       4.88988114      26.90093250        1       0.00014835      -0.00502989      -0.01103161
O        7.01803499       2.43111828      30.08953600        0      -0.00000084      -0.00000013       0.00440796
C        7.01803458       2.43111817      28.92711251        0       0.00000142       0.00000031      -0.00900150
