38
Lattice="8.421641763931781 0.0 0.0 4.2108208819658905 7.293355709136913 0.0 0.0 0.0 46.87624170604845" Properties=species:S:1:pos:R:3:tags:I:1:forces:R:3 charge=0 spin=0 energy=-202.88632297158946 free_energy=-202.88632297158946 stress="0.01000885758548975 -1.9687368180143494e-08 2.5447979834503087e-10 -1.9687368180143494e-08 0.010008868761360645 -1.073056843381437e-08 2.5447979834503087e-10 -1.073056843381437e-08 -0.00029506406281143427" pbc="T T T"
Pt      -0.00000010      -0.00000005      19.95723451        4      -0.00248577       0.00173277       0.02371476
Pt       2.80721394      -0.00000020      19.95723457        4       0.00273189       0.00124964       0.02371395
Pt       5.61442787      -0.00000008      19.95723465        4       0.00064475      -0.01587604       0.00965926
Pt       1.40360721       2.43111841      19.95723445        4      -0.00175076       0.00274607       0.01099295
Pt       4.21082082       2.43111837      19.95723453        4      -0.01407737       0.00736402       0.00965886
Pt       7.01803480       2.43111844      19.95723439        4       0.01343330       0.00851448       0.00971940
Pt       2.80721416       4.86223734      19.95723425        4      -0.00154046      -0.00288166       0.01098540
Pt       5.61442796       4.86223739      19.95723443        4      -0.00024697      -0.00298033       0.02375672
Pt       8.42164143       4.86223725      19.95723447        4       0.00329191       0.00013060       0.01103561
Pt       1.40360729       0.81037262      22.29206795        3      -0.00368719       0.01226105      -0.02590422
Pt       4.21082131       0.81037249      22.29206793        3       0.05155911       0.03178941      -0.15754297
Pt       7.01803470       0.81037255      22.29206785        3      -0.05335140       0.02883919      -0.15749322
Pt       2.80721448       3.24149122      22.29206774        3       0.02125413      -0.01056462      -0.06246587
Pt       5.61442764       3.24149121      22.29206791        3       0.00179410      -0.06062093      -0.15753682
Pt       8.42164154       3.24149129      22.29206806        3      -0.01969055      -0.01314177      -0.06245119
Pt       4.21082091       5.67260997      22.29206741        3      -0.00879220      -0.00931083      -0.02600320
Pt       7.01803487       5.67261038      22.29206779        3       0.01246915      -0.00294988      -0.02605370
Pt       9.82524821       5.67261068      22.29206808        3      -0.00155679       0.02370214      -0.06257265
Pt      -0.00000053       1.62074567      24.58417372        2       0.09283689       0.04240293       0.12934439
Pt       2.80721436       1.62074552      24.58417391        2      -0.08745451       0.03870981       0.12689090
Pt       5.61442781       1.62074537      24.58417374        2      -0.00000140       0.00000308      -0.23093414
Pt       1.40360639       4.05186438      24.58417385        2       0.00000383       0.00000062       0.14669633
Pt       4.21082087       4.05186396      24.58417384        2      -0.08323392       0.05930303       0.12941849
Pt       7.01803504       4.05186408      24.58417403        2       0.07734244       0.05647406       0.12704542
Pt       2.80721276       6.48298348      24.58417381        2       0.01011568      -0.09518790       0.12689325
Pt       5.61442804       6.48298329      24.58417396        2      -0.00000342      -0.00000483       0.00365501
Pt       8.42164223       6.48298338      24.58417376        2      -0.00960467      -0.10170776       0.12923527
Pt       0.00116755      -0.00107476      26.91394969        1       0.00695735      -0.00564111      -0.01662506
Pt       2.80569943      -0.00047393      26.91395134        1      -0.00836047      -0.00320731      -0.01662894
Pt       5.61336293       0.02478950      26.89887766        1       0.00087042      -0.01390292      -0.00274024
Pt       1.40509014       2.41236617      27.01984460        1      -0.00252681       0.01112970      -0.00531712
Pt       4.23282316       2.41964405      26.89887699        1      -0.01248011       0.00619991      -0.00273632
Pt       6.99709786       2.41779975      26.89887600        1       0.01160508       0.00770945      -0.00273534
Pt       2.82271283       4.87289726      27.01984199        1      -0.00837334      -0.00775619      -0.00531605
Pt       5.61477456       4.86378462      26.91395107        1       0.00140819       0.00884455      -0.01663055
Pt       8.40466053       4.87032765      27.01984368        1       0.01090097      -0.00336734      -0.00532063
O        9.82525017       4.05186719      29.55952782        0      -0.00000092      -0.00000331      -0.01332272
C        9.82524976       4.05186564      28.35899309        0      -0.00000024      -0.00000165       0.00391510
