38
Lattice="8.421641763931781 0.0 0.0 4.2108208819658905 7.293355709136913 0.0 0.0 0.0 46.87624170604845" Properties=species:S:1:pos:R:3:tags:I:1:forces:R:3 charge=0 spin=0 energy=-202.87920856118907 free_energy=-202.87920856118907 stress="0.009736624546349049 0.00026666332269087434 9.673930208009551e-07 0.00026666332269087434 0.010076024569571018 -1.1147290024382528e-05 9.673930208009551e-07 -1.1147290024382528e-05 -0.0003528155793901533" pbc="T T T"
Pt      -0.00000010      -0.00000005      19.95723451        4      -0.00162529      -0.00299532       0.01778613
Pt       2.80721394      -0.00000020      19.95723457        4       0.00400022      -0.00149177       0.00727674
Pt       5.61442787      -0.00000008      19.95723465        4      -0.00267784      -0.00134399       0.01511650
Pt       1.40360721       2.43111841      19.95723445        4      -0.00163063       0.00162303       0.01977785
Pt       4.21082082       2.43111837      19.95723453        4      -0.01158861      -0.01585900      -0.00392384
Pt       7.01803480       2.43111844      19.95723439        4      -0.00763455       0.00524541       0.02552728
Pt       2.80721416       4.86223734      19.95723425        4       0.00020209       0.00009834       0.02179288
Pt       5.61442796       4.86223739      19.95723443        4       0.00904744       0.01763587      -0.00635482
Pt       8.42164143       4.86223725      19.95723447        4      -0.00363158       0.00244937       0.01306262
Pt       1.40360729       0.81037262      22.29206795        3       0.00649398      -0.00222592      -0.06903744
Pt       4.21082131       0.81037249      22.29206793        3       0.00043775       0.03769566      -0.08540140
Pt       7.01803470       0.81037255      22.29206785        3      -0.01358803       0.00595399      -0.01886655
Pt       2.80721448       3.24149122      22.29206774        3       0.04993002      -0.01667944      -0.11157656
Pt       5.61442764       3.24149121      22.29206791        3      -0.07146561       0.03931427      -0.21882677
Pt       8.42164154       3.24149129      22.29206806        3      -0.02318266       0.00984470      -0.02021504
Pt       4.21082091       5.67260997      22.29206741        3       0.04222811      -0.03594132      -0.11212590
Pt       7.01803487       5.67261038      22.29206779        3      -0.03084376      -0.01832094      -0.08307563
Pt       9.82524821       5.67261068      22.29206808        3       0.00489537      -0.00463294      -0.00810218
Pt      -0.00000053       1.62074567      24.58417372        2      -0.00015970       0.00565566      -0.02963657
Pt       2.80721436       1.62074552      24.58417391        2       0.02445112       0.02496139      -0.06895568
Pt       5.61442781       1.62074537      24.58417374        2       0.03025668      -0.20082006       0.27102855
Pt       1.40360639       4.05186438      24.58417385        2      -0.11071633       0.07472701       0.14774540
Pt       4.21082087       4.05186396      24.58417384        2       0.04313250      -0.02376764      -0.16018058
Pt       7.01803504       4.05186408      24.58417403        2       0.20208223       0.07856887       0.27079961
Pt       2.80721276       6.48298348      24.58417381        2      -0.12747517       0.05758840       0.15466191
Pt       5.61442804       6.48298329      24.58417396        2      -0.00560502      -0.03460832      -0.07665716
Pt       8.42164223       6.48298338      24.58417376        2       0.06630556      -0.03988602       0.16145776
Pt       0.00394921       0.00002544      26.90697536        1       0.00817503      -0.00820529      -0.00207300
Pt       2.76408238       0.02396477      26.89056109        1       0.02924186      -0.01496872       0.01070733
Pt       5.62469659       0.00640187      27.06267992        1      -0.04292384      -0.00657214      -0.00197897
Pt       1.40653799       2.42946913      26.90872620        1       0.00690098      -0.00232032      -0.00049588
Pt       4.22775138       2.42278371      26.90930832        1       0.00141720       0.00465384      -0.00021438
Pt       7.02994576       2.42465804      26.91243146        1      -0.02247273       0.01447096      -0.01708386
Pt       2.87255997       4.82558948      26.90186100        1      -0.03204832       0.01900298      -0.02578198
Pt       5.63052625       4.85187781      26.90868031        1      -0.00262549      -0.00196233      -0.00051009
Pt       8.42346816       4.85050375      27.06507527        1      -0.02645394       0.03157282      -0.01251910
O        9.19241759       6.03837279      29.69932379        0       0.00663631      -0.00137717      -0.00925250
C        9.17828483       6.04694602      28.51111338        0       0.00251499       0.00291616       0.00610562
