38
Lattice="8.421641763931781 0.0 0.0 4.2108208819658905 7.293355709136913 0.0 0.0 0.0 46.87624170604845" Properties=species:S:1:pos:R:3:tags:I:1:forces:R:3 charge=0 spin=0 energy=-202.91268539071788 free_energy=-202.91268539071788 stress="0.009917941875755787 8.470419032846621e-09 1.7536190277667174e-09 8.470419032846621e-09 0.009917961433529854 3.983429408549455e-08 1.7536190277667174e-09 3.983429408549455e-08 -0.00043643327080644667" pbc="T T T"
Pt      -0.00000010      -0.00000005      19.95723451        4      -0.00268266       0.00268562       0.01331727
Pt       2.80721394      -0.00000020      19.95723457        4      -0.01510736      -0.00889765       0.01074577
Pt       5.61442787      -0.00000008      19.95723465        4       0.01522070      -0.00864427       0.01075464
Pt       1.40360721       2.43111841      19.95723445        4       0.00117431      -0.00034404       0.01718182
Pt       4.21082082       2.43111837      19.95723453        4      -0.00011165       0.01754770       0.01072349
Pt       7.01803480       2.43111844      19.95723439        4      -0.00086918      -0.00082579       0.01724198
Pt       2.80721416       4.86223734      19.95723425        4      -0.00101173      -0.00366443       0.01329714
Pt       5.61442796       4.86223739      19.95723443        4       0.00369066       0.00097379       0.01333817
Pt       8.42164143       4.86223725      19.95723447        4      -0.00030359       0.00116853       0.01723498
Pt       1.40360729       0.81037262      22.29206795        3       0.03318335      -0.01033047      -0.06678524
Pt       4.21082131       0.81037249      22.29206793        3      -0.00000096       0.00000491      -0.28143829
Pt       7.01803470       0.81037255      22.29206785        3      -0.03870651      -0.00531446      -0.06537788
Pt       2.80721448       3.24149122      22.29206774        3       0.02397463      -0.03095738      -0.06543063
Pt       5.61442764       3.24149121      22.29206791        3      -0.02549314      -0.02363899      -0.06682398
Pt       8.42164154       3.24149129      22.29206806        3       0.00000449       0.00000040      -0.00960661
Pt       4.21082091       5.67260997      22.29206741        3      -0.00000478       0.00000152      -0.07410179
Pt       7.01803487       5.67261038      22.29206779        3       0.01472177       0.03627368      -0.06542931
Pt       9.82524821       5.67261068      22.29206808        3      -0.00768058       0.03396055      -0.06673706
Pt      -0.00000053       1.62074567      24.58417372        2       0.00032666       0.07095332       0.15456344
Pt       2.80721436       1.62074552      24.58417391        2      -0.09296583       0.05537460       0.12028666
Pt       5.61442781       1.62074537      24.58417374        2       0.09436233       0.05276485       0.12030164
Pt       1.40360639       4.05186438      24.58417385        2      -0.06162870      -0.03519365       0.15467481
Pt       4.21082087       4.05186396      24.58417384        2       0.00229222      -0.02609204      -0.06616352
Pt       7.01803504       4.05186408      24.58417403        2       0.06132184      -0.03574622       0.15463060
Pt       2.80721276       6.48298348      24.58417381        2      -0.02373906       0.01096749      -0.06625668
Pt       5.61442804       6.48298329      24.58417396        2       0.02146451       0.01510156      -0.06631130
Pt       8.42164223       6.48298338      24.58417376        2      -0.00142878      -0.10812911       0.12026695
Pt       0.00141543      -0.01931935      26.89883879        1      -0.00117940      -0.03353279      -0.00261797
Pt       2.81042224       0.00122528      26.90697803        1      -0.00552335      -0.00225009       0.00032273
Pt       5.61176806       0.00216222      26.90697154        1       0.00469889      -0.00364626       0.00034338
Pt       1.42939014       2.41829423      27.01570540        1      -0.00643611       0.00374026      -0.00290400
Pt       4.21027106       2.42773290      26.90698562        1       0.00083709       0.00590058       0.00029996
Pt       6.99402629       2.41519824      27.01570418        1       0.00649532       0.00372584      -0.00289180
Pt       2.82324817       4.87311792      26.89884830        1       0.02960094       0.01575804      -0.00265004
Pt       5.59699664       4.87067722      26.89885077        1      -0.02847637       0.01777106      -0.00265998
Pt       8.41985749       4.89098405      27.01570543        1      -0.00001628      -0.00746482      -0.00289933
O        8.42163923       3.24149299      29.53989537        0      -0.00000577      -0.00000342       0.01447503
C        8.42163767       3.24149150      28.33849711        0       0.00000233       0.00000201       0.01308469
