38
Lattice="8.421641763931781 0.0 0.0 4.2108208819658905 7.293355709136913 0.0 0.0 0.0 46.87624170604845" Properties=species:S:1:pos:R:3:tags:I:1:forces:R:3 charge=0 spin=0 energy=-202.88602637887706 free_energy=-202.88602637887706 stress="0.009942437522113323 -2.2213534123238787e-08 -3.399070747089894e-10 -2.2213534123238787e-08 0.009942451491951942 -1.6191954443911527e-08 -3.399070747089894e-10 -1.6191954443911527e-08 -0.0004228076140861958" pbc="T T T"
Pt      -0.00000010      -0.00000005      19.95723451        4       0.00241972       0.00100694       0.02361696
Pt       2.80721394      -0.00000020      19.95723457        4       0.00069188      -0.01587762       0.00963630
Pt       5.61442787      -0.00000008      19.95723465        4      -0.00211894       0.00158392       0.02362093
Pt       1.40360721       2.43111841      19.95723445        4      -0.01410484       0.00732649       0.00963572
Pt       4.21082082       2.43111837      19.95723453        4       0.01341475       0.00855601       0.00969548
Pt       7.01803480       2.43111844      19.95723439        4      -0.00176449       0.00274979       0.01080497
Pt       2.80721416       4.86223734      19.95723425        4      -0.00030471      -0.00258810       0.02366999
Pt       5.61442796       4.86223739      19.95723443        4       0.00330078       0.00013674       0.01084418
Pt       8.42164143       4.86223725      19.95723447        4      -0.00153345      -0.00289437       0.01078916
Pt       1.40360729       0.81037262      22.29206795        3       0.05157235       0.03194823      -0.15863565
Pt       4.21082131       0.81037249      22.29206793        3      -0.05349640       0.02877278      -0.15859060
Pt       7.01803470       0.81037255      22.29206785        3      -0.00362878       0.01224301      -0.02483029
Pt       2.80721448       3.24149122      22.29206774        3       0.00191700      -0.06071042      -0.15863122
Pt       5.61442764       3.24149121      22.29206791        3      -0.01993415      -0.01329005      -0.06292915
Pt       8.42164154       3.24149129      22.29206806        3       0.02151073      -0.01070446      -0.06294105
Pt       4.21082091       5.67260997      22.29206741        3       0.01242512      -0.00298600      -0.02496797
Pt       7.01803487       5.67261038      22.29206779        3      -0.00157264       0.02399314      -0.06305139
Pt       9.82524821       5.67261068      22.29206808        3      -0.00879250      -0.00926456      -0.02494797
Pt      -0.00000053       1.62074567      24.58417372        2      -0.08557282       0.03871432       0.11624476
Pt       2.80721436       1.62074552      24.58417391        2      -0.00000661       0.00000280      -0.21476600
Pt       5.61442781       1.62074537      24.58417374        2       0.09023512       0.04206131       0.11794159
Pt       1.40360639       4.05186438      24.58417385        2      -0.08163127       0.05722441       0.11801019
Pt       4.21082087       4.05186396      24.58417384        2       0.07641272       0.05484454       0.11641015
Pt       7.01803504       4.05186408      24.58417403        2      -0.00000381       0.00000137       0.13543272
Pt       2.80721276       6.48298348      24.58417381        2       0.00001284      -0.00000722      -0.01609641
Pt       5.61442804       6.48298329      24.58417396        2      -0.00860776      -0.09928171       0.11781702
Pt       8.42164223       6.48298338      24.58417376        2       0.00915572      -0.09356067       0.11624631
Pt      -0.00356873      -0.00121326      26.90937847        1       0.00779942       0.00528643      -0.00032055
Pt       2.80620919       0.01810212      26.89737921        1       0.00095592       0.04052727      -0.00538510
Pt       5.61725956      -0.00248117      26.90937676        1      -0.00846728       0.00410836      -0.00031136
Pt       1.41978404       2.42293780      26.89738085        1       0.03462278      -0.02109779      -0.00539360
Pt       4.19564210       2.42119514      26.89738137        1      -0.03556031      -0.01941368      -0.00539269
Pt       7.01857854       2.41301814      27.01779523        1       0.00088536      -0.01630772      -0.01612340
Pt       2.80794629       4.86593369      26.90937585        1       0.00068614      -0.00940110      -0.00031594
Pt       5.59848429       4.87081575      27.01779300        1      -0.01458887       0.00738230      -0.01611982
Pt       8.43704639       4.87175984      27.01779363        1       0.01367314       0.00891381      -0.01611158
O        7.01803725       4.05186232      29.55135546        0       0.00000117       0.00000565       0.03771680
C        7.01803742       4.05186394      28.35093541        0      -0.00000295      -0.00000403       0.02772830
