38
Lattice="8.421641763931781 0.0 0.0 4.2108208819658905 7.293355709136913 0.0 0.0 0.0 46.87624170604845" Properties=species:S:1:pos:R:3:tags:I:1:forces:R:3 charge=0 spin=0 energy=-202.88563537240734 free_energy=-202.88563537240734 stress="0.01002596877515316 -1.821491046882784e-08 8.869070478034757e-10 -1.821491046882784e-08 0.01002599112689495 -1.1578986658378199e-08 8.869070478034757e-10 -1.1578986658378199e-08 -0.0002533094957470894" pbc="T T T"
Pt      -0.00000010      -0.00000005      19.95723451        4       0.01348761       0.00855814       0.00978114
Pt       2.80721394      -0.00000020      19.95723457        4      -0.00174614       0.00237348       0.01088564
Pt       5.61442787      -0.00000008      19.95723465        4      -0.01414289       0.00739380       0.00972334
Pt       1.40360721       2.43111841      19.95723445        4       0.00296203       0.00031765       0.01093468
Pt       4.21082082       2.43111837      19.95723453        4      -0.00121356      -0.00268602       0.01087637
Pt       7.01803480       2.43111844      19.95723439        4      -0.00025738      -0.00273327       0.02368696
Pt       2.80721416       4.86223734      19.95723425        4       0.00065094      -0.01594918       0.00973435
Pt       5.61442796       4.86223739      19.95723443        4      -0.00226790       0.00161116       0.02363897
Pt       8.42164143       4.86223725      19.95723447        4       0.00252805       0.00111403       0.02364014
Pt       1.40360729       0.81037262      22.29206795        3      -0.01968530      -0.01315361      -0.06403963
Pt       4.21082131       0.81037249      22.29206793        3       0.02126240      -0.01055032      -0.06405372
Pt       7.01803470       0.81037255      22.29206785        3       0.00170238      -0.06045932      -0.15735330
Pt       2.80721448       3.24149122      22.29206774        3      -0.00158430       0.02371365      -0.06416146
Pt       5.61442764       3.24149121      22.29206791        3      -0.00898743      -0.00935405      -0.02487137
Pt       8.42164154       3.24149129      22.29206806        3       0.01261392      -0.00310055      -0.02490635
Pt       4.21082091       5.67260997      22.29206741        3      -0.05316779       0.02883329      -0.15730260
Pt       7.01803487       5.67261038      22.29206779        3      -0.00362384       0.01245280      -0.02476026
Pt       9.82524821       5.67261068      22.29206808        3       0.05147195       0.03161908      -0.15736508
Pt      -0.00000053       1.62074567      24.58417372        2       0.07198346       0.05317856       0.12816063
Pt       2.80721436       1.62074552      24.58417391        2      -0.00000454       0.00000528       0.13736497
Pt       5.61442781       1.62074537      24.58417374        2      -0.07809648       0.05617926       0.13056403
Pt       1.40360639       4.05186438      24.58417385        2      -0.00946088      -0.09568928       0.13038188
Pt       4.21082087       4.05186396      24.58417384        2       0.00993042      -0.08888330       0.12798893
Pt       7.01803504       4.05186408      24.58417403        2       0.00000215      -0.00000252      -0.01225034
Pt       2.80721276       6.48298348      24.58417381        2       0.00000857      -0.00000899      -0.20296109
Pt       5.61442804       6.48298329      24.58417396        2       0.08755337       0.03951224       0.13047266
Pt       8.42164223       6.48298338      24.58417376        2      -0.08192044       0.03570426       0.12799500
Pt      -0.01662802      -0.01119173      26.90097194        1      -0.02737748      -0.01396409      -0.01857542
Pt       2.80869923      -0.01863885      27.01582030        1      -0.00246122       0.02900369       0.02586361
Pt       5.63242971      -0.00880373      26.90097545        1       0.02580592      -0.01671949      -0.01858377
Pt       1.38672604       2.43914955      27.01582975        1       0.02631100      -0.01235561       0.02581924
Pt       4.22622113       2.44172325      27.01582583        1      -0.02388255      -0.01662311       0.02583912
Pt       7.01863824       2.43915574      26.91493448        1       0.00031955      -0.03457753      -0.01562697
Pt       2.80583308       4.88223067      26.90097355        1       0.00158064       0.03069593      -0.01858082
Pt       5.62108331       4.85769715      26.91492359        1      -0.03008942       0.01700987      -0.01559033
Pt       8.41437717       4.85874317      26.91493171        1       0.02979873       0.01753586      -0.01561980
O        2.80721816       1.62074285      29.56202510        0       0.00000280      -0.00000705      -0.03934687
C        2.80721793       1.62074331      28.36171391        0      -0.00000596       0.00000505      -0.02740247
