38
Lattice="8.421641763931781 0.0 0.0 4.2108208819658905 7.293355709136913 0.0 0.0 0.0 46.87624170604845" Properties=species:S:1:pos:R:3:tags:I:1:forces:R:3 charge=0 spin=0 energy=-202.91268252969493 free_energy=-202.91268252969493 stress="0.009917937219142914 5.69293634455903e-09 2.497333007056568e-09 5.69293634455903e-09 0.009917951188981533 3.9162799225778144e-08 2.497333007056568e-09 3.9162799225778144e-08 -0.000436365109635517" pbc="T T T"
Pt      -0.00000010      -0.00000005      19.95723451        4      -0.01510853      -0.00889770       0.01074416
Pt       2.80721394      -0.00000020      19.95723457        4       0.01522089      -0.00864392       0.01075459
Pt       5.61442787      -0.00000008      19.95723465        4      -0.00268161       0.00268524       0.01331915
Pt       1.40360721       2.43111841      19.95723445        4      -0.00011348       0.01755000       0.01072412
Pt       4.21082082       2.43111837      19.95723453        4      -0.00086594      -0.00082567       0.01724153
Pt       7.01803480       2.43111844      19.95723439        4       0.00117304      -0.00034611       0.01718193
Pt       2.80721416       4.86223734      19.95723425        4       0.00368756       0.00097481       0.01334822
Pt       5.61442796       4.86223739      19.95723443        4      -0.00030629       0.00116698       0.01723178
Pt       8.42164143       4.86223725      19.95723447        4      -0.00100583      -0.00366419       0.01329023
Pt       1.40360729       0.81037262      22.29206795        3      -0.00000081       0.00000150      -0.28143522
Pt       4.21082131       0.81037249      22.29206793        3      -0.03870764      -0.00531080      -0.06537845
Pt       7.01803470       0.81037255      22.29206785        3       0.03318431      -0.01033022      -0.06678635
Pt       2.80721448       3.24149122      22.29206774        3      -0.02550192      -0.02363541      -0.06682580
Pt       5.61442764       3.24149121      22.29206791        3       0.00000231      -0.00000049      -0.00960580
Pt       8.42164154       3.24149129      22.29206806        3       0.02398477      -0.03096007      -0.06543000
Pt       4.21082091       5.67260997      22.29206741        3       0.01472123       0.03627786      -0.06541587
Pt       7.01803487       5.67261038      22.29206779        3      -0.00769276       0.03396758      -0.06673255
Pt       9.82524821       5.67261068      22.29206808        3       0.00000788      -0.00000955      -0.07411962
Pt      -0.00000053       1.62074567      24.58417372        2      -0.09296183       0.05537250       0.12028212
Pt       2.80721436       1.62074552      24.58417391        2       0.09436130       0.05275979       0.12029763
Pt       5.61442781       1.62074537      24.58417374        2       0.00032394       0.07095767       0.15456386
Pt       1.40360639       4.05186438      24.58417385        2       0.00229610      -0.02609374      -0.06616213
Pt       4.21082087       4.05186396      24.58417384        2       0.06132435      -0.03574294       0.15462388
Pt       7.01803504       4.05186408      24.58417403        2      -0.06163478      -0.03519231       0.15467730
Pt       2.80721276       6.48298348      24.58417381        2       0.02147872       0.01509636      -0.06631275
Pt       5.61442804       6.48298329      24.58417396        2      -0.00142486      -0.10812739       0.12025743
Pt       8.42164223       6.48298338      24.58417376        2      -0.02375731       0.01097038      -0.06624538
Pt       0.00320830       0.00122516      26.90697744        1      -0.00552132      -0.00224900       0.00032718
Pt       2.80455474       0.00216208      26.90697093        1       0.00470088      -0.00364736       0.00034137
Pt       5.61584290      -0.01931848      26.89884007        1      -0.00118072      -0.03353979      -0.00262115
Pt       1.40305735       2.42773295      26.90698512        1       0.00083652       0.00590170       0.00030477
Pt       4.18681276       2.41519826      27.01570340        1       0.00649780       0.00372785      -0.00287929
Pt       7.04381758       2.41829407      27.01570499        1      -0.00643758       0.00374331      -0.00289770
Pt       2.78978308       4.87067723      26.89885050        1      -0.02848114       0.01777241      -0.00266038
Pt       5.61264365       4.89098376      27.01570397        1      -0.00001630      -0.00746892      -0.00288856
Pt       8.43767524       4.87311770      26.89884899        1       0.02960344       0.01576074      -0.00265451
O        5.61442518       3.24149310      29.53989812        0      -0.00000619      -0.00000235       0.01431897
C        5.61442382       3.24149159      28.33849778        0       0.00000182       0.00000161       0.01322114
