38
Lattice="8.421641763931781 0.0 0.0 4.2108208819658905 7.293355709136913 0.0 0.0 0.0 46.87624170604845" Properties=species:S:1:pos:R:3:tags:I:1:forces:R:3 charge=0 spin=0 energy=-202.87961864114513 free_energy=-202.87961864114513 stress="0.009741527028381824 0.0002570252981968224 -1.436041475244565e-05 0.0002570252981968224 0.010073971934616566 9.409992571818293e-07 -1.436041475244565e-05 9.409992571818293e-07 -0.0003531270776875317" pbc="T T T"
Pt      -0.00000010      -0.00000005      19.95723451        4       0.00964466       0.01759455      -0.00641389
Pt       2.80721394      -0.00000020      19.95723457        4      -0.00345056       0.00245655       0.01312132
Pt       5.61442787      -0.00000008      19.95723465        4       0.00055887       0.00005238       0.02181983
Pt       1.40360721       2.43111841      19.95723445        4       0.00439065      -0.00154064       0.00697458
Pt       4.21082082       2.43111837      19.95723453        4      -0.00243488      -0.00136733       0.01530352
Pt       7.01803480       2.43111844      19.95723439        4      -0.00113684      -0.00323143       0.01803716
Pt       2.80721416       4.86223734      19.95723425        4      -0.01116432      -0.01618804      -0.00400139
Pt       5.61442796       4.86223739      19.95723443        4      -0.00715459       0.00508710       0.02537985
Pt       8.42164143       4.86223725      19.95723447        4      -0.00096692       0.00149478       0.01999409
Pt       1.40360729       0.81037262      22.29206795        3      -0.02949245      -0.01933668      -0.08156266
Pt       4.21082131       0.81037249      22.29206793        3       0.00641617      -0.00537077      -0.00992265
Pt       7.01803470       0.81037255      22.29206785        3       0.04301593      -0.03698285      -0.11290807
Pt       2.80721448       3.24149122      22.29206774        3       0.00179847       0.03714544      -0.08353548
Pt       5.61442764       3.24149121      22.29206791        3      -0.01194475       0.00464875      -0.01849432
Pt       8.42164154       3.24149129      22.29206806        3       0.00795987      -0.00285884      -0.06890168
Pt       4.21082091       5.67260997      22.29206741        3      -0.07064403       0.03883331      -0.21870577
Pt       7.01803487       5.67261038      22.29206779        3      -0.02105870       0.00946521      -0.02002244
Pt       9.82524821       5.67261068      22.29206808        3       0.05102493      -0.01646314      -0.11205501
Pt      -0.00000053       1.62074567      24.58417372        2      -0.00931839      -0.03248324      -0.07119860
Pt       2.80721436       1.62074552      24.58417391        2       0.06198652      -0.03731243       0.15614466
Pt       5.61442781       1.62074537      24.58417374        2      -0.13071235       0.06727919       0.15644093
Pt       1.40360639       4.05186438      24.58417385        2       0.02050811       0.02580939      -0.06296080
Pt       4.21082087       4.05186396      24.58417384        2       0.01943344      -0.20082371       0.26632077
Pt       7.01803504       4.05186408      24.58417403        2      -0.00032736       0.00456848      -0.02681804
Pt       2.80721276       6.48298348      24.58417381        2       0.04061763      -0.02324418      -0.16415462
Pt       5.61442804       6.48298329      24.58417396        2       0.19499667       0.08631144       0.26457751
Pt       8.42164223       6.48298338      24.58417376        2      -0.11988124       0.07145317       0.14859955
Pt       0.00783947      -0.00862883      26.91109712        1       0.00106024       0.00577161      -0.00778126
Pt       2.80046200      -0.00816236      27.06454766        1      -0.00633963       0.02222292      -0.00662876
Pt       5.67081571      -0.03200594      26.89662842        1      -0.02567451       0.01413850      -0.01137063
Pt       1.35776083       2.45573414      26.89128020        1       0.01065495      -0.00319237       0.00992207
Pt       4.21223602       2.44132555      27.06352973        1      -0.01870267      -0.01050950      -0.00674083
Pt       7.01914839       2.43370310      26.90951651        1      -0.00800584      -0.00781856      -0.01211752
Pt       2.81776068       4.85906287      26.91154146        1      -0.00300524      -0.00271884      -0.00721968
Pt       5.61757810       4.86006966      26.90548275        1      -0.00376654       0.00167930       0.00483485
Pt       8.41998010       4.86019622      26.91115521        1       0.00049826       0.01212323      -0.01050116
O        3.53322140       1.20080669      29.70043891        0       0.01726776      -0.00876370      -0.00941904
C        3.53518480       1.20060819      28.51217417        0      -0.00665168       0.00207082       0.00596360
