38
Lattice="8.421641763931781 0.0 0.0 4.2108208819658905 7.293355709136913 0.0 0.0 0.0 46.87624170604845" Properties=species:S:1:pos:R:3:tags:I:1:forces:R:3 charge=0 spin=0 energy=-202.81933307290782 free_energy=-202.81933307290782 stress="0.009625965729355812 -9.161171021787595e-08 2.69347499859407e-09 -9.161171021787595e-08 0.009625986218452454 -8.121411099182296e-08 2.69347499859407e-09 -8.121411099182296e-08 -0.0002853901532944292" pbc="T T T"
Pt      -0.00000010      -0.00000005      19.95723451        4      -0.00697350       0.00635481       0.02007140
Pt       2.80721394      -0.00000020      19.95723457        4      -0.00000004       0.00000289       0.02240221
Pt       5.61442787      -0.00000008      19.95723465        4       0.00640585       0.00542644       0.01950037
Pt       1.40360721       2.43111841      19.95723445        4      -0.00790569       0.00284829       0.01954708
Pt       4.21082082       2.43111837      19.95723453        4       0.00898225       0.00287098       0.02010730
Pt       7.01803480       2.43111844      19.95723439        4      -0.00000019      -0.00000003      -0.06861609
Pt       2.80721416       4.86223734      19.95723425        4      -0.00000282      -0.00000348       0.01772754
Pt       5.61442796       4.86223739      19.95723443        4       0.00150080      -0.00827480       0.01948110
Pt       8.42164143       4.86223725      19.95723447        4      -0.00200453      -0.00922507       0.02012494
Pt       1.40360729       0.81037262      22.29206795        3      -0.00469473      -0.00407507      -0.06309315
Pt       4.21082131       0.81037249      22.29206793        3      -0.00113895       0.00609668      -0.06308056
Pt       7.01803470       0.81037255      22.29206785        3      -0.00144078       0.06231810      -0.11478109
Pt       2.80721448       3.24149122      22.29206774        3      -0.00414402       0.00290429      -0.02812547
Pt       5.61442764       3.24149121      22.29206791        3       0.05471874      -0.02994926      -0.11478021
Pt       8.42164154       3.24149129      22.29206806        3      -0.05326797      -0.03236257      -0.11476507
Pt       4.21082091       5.67260997      22.29206741        3      -0.00045342      -0.00510868      -0.02836278
Pt       7.01803487       5.67261038      22.29206779        3       0.00583339      -0.00202101      -0.06331828
Pt       9.82524821       5.67261068      22.29206808        3       0.00459113       0.00219167      -0.02834945
Pt      -0.00000053       1.62074567      24.58417372        2      -0.03971277       0.02317357      -0.12042885
Pt       2.80721436       1.62074552      24.58417391        2       0.00432926       0.00169851      -0.02886407
Pt       5.61442781       1.62074537      24.58417374        2       0.04006619       0.02277302      -0.12052211
Pt       1.40360639       4.05186438      24.58417385        2       0.23808493       0.13949732       0.35024711
Pt       4.21082087       4.05186396      24.58417384        2      -0.23976302       0.13654992       0.35021508
Pt       7.01803504       4.05186408      24.58417403        2      -0.00036772      -0.04597507      -0.12027223
Pt       2.80721276       6.48298348      24.58417381        2       0.00173376      -0.27602872       0.35025743
Pt       5.61442804       6.48298329      24.58417396        2      -0.00361786       0.00280832      -0.02862153
Pt       8.42164223       6.48298338      24.58417376        2      -0.00076212      -0.00451077      -0.02865865
Pt       0.01312621       0.02764367      26.90093220        1       0.00014885      -0.00502965      -0.01103257
Pt       2.80721978       0.00000402      26.92038445        1      -0.00001616      -0.00001259      -0.01127077
Pt       5.60078290       0.02691292      26.90176466        1       0.00247093      -0.00370411      -0.00881356
Pt       1.38711225       2.40583664      26.90176339        1       0.00198174       0.00399360      -0.00876453
Pt       4.22819817       2.40593877      26.90089983        1      -0.00444176       0.00238436      -0.01108010
Pt       7.01802766       2.43111515      26.92583520        1       0.00001731       0.00001580       0.00055581
Pt       2.80721410       4.86223723      27.07492288        1      -0.00000210      -0.00000112      -0.00020237
Pt       5.64456371       4.86061120      26.90176296        1      -0.00443931      -0.00028733      -0.00878997
Pt       8.39114220       4.85977211      26.90091293        1       0.00428367       0.00266033      -0.01104931
O        2.80721564       4.86223710      30.08953660        0      -0.00000262      -0.00000047       0.00440983
C        2.80721405       4.86223688      28.92711334        0       0.00000343       0.00000099      -0.00900430
