38
Lattice="8.421641763931781 0.0 0.0 4.2108208819658905 7.293355709136913 0.0 0.0 0.0 46.87624170604845" Properties=species:S:1:pos:R:3:tags:I:1:forces:R:3 charge=0 spin=0 energy=-202.9126806223463 free_energy=-202.9126806223463 stress="0.009917941875755787 6.282620645947645e-09 2.8057716150442502e-09 6.282620645947645e-09 0.009917950257658958 4.27338378017339e-08 2.8057716150442502e-09 4.27338378017339e-08 -0.0004363724438007921" pbc="T T T"
Pt      -0.00000010      -0.00000005      19.95723451        4      -0.00101002      -0.00365802       0.01328743
Pt       2.80721394      -0.00000020      19.95723457        4       0.00369019       0.00098142       0.01334044
Pt       5.61442787      -0.00000008      19.95723465        4      -0.00030677       0.00117444       0.01723403
Pt       1.40360721       2.43111841      19.95723445        4      -0.00268152       0.00268433       0.01332195
Pt       4.21082082       2.43111837      19.95723453        4      -0.01510547      -0.00890091       0.01074789
Pt       7.01803480       2.43111844      19.95723439        4       0.01521996      -0.00864736       0.01075731
Pt       2.80721416       4.86223734      19.95723425        4       0.00117139      -0.00034945       0.01718736
Pt       5.61442796       4.86223739      19.95723443        4      -0.00011331       0.01754325       0.01071956
Pt       8.42164143       4.86223725      19.95723447        4      -0.00086486      -0.00082880       0.01724045
Pt       1.40360729       0.81037262      22.29206795        3      -0.00000163       0.00000195      -0.07411698
Pt       4.21082131       0.81037249      22.29206793        3       0.01472379       0.03628182      -0.06543363
Pt       7.01803470       0.81037255      22.29206785        3      -0.00768951       0.03397292      -0.06673651
Pt       2.80721448       3.24149122      22.29206774        3       0.03317772      -0.01032797      -0.06678755
Pt       5.61442764       3.24149121      22.29206791        3       0.00000252       0.00000009      -0.28143570
Pt       8.42164154       3.24149129      22.29206806        3      -0.03870226      -0.00531485      -0.06537802
Pt       4.21082091       5.67260997      22.29206741        3       0.02397733      -0.03095941      -0.06541241
Pt       7.01803487       5.67261038      22.29206779        3      -0.02549867      -0.02364227      -0.06682238
Pt       9.82524821       5.67261068      22.29206808        3       0.00000901      -0.00001097      -0.00960707
Pt      -0.00000053       1.62074567      24.58417372        2      -0.02374923       0.01097483      -0.06625175
Pt       2.80721436       1.62074552      24.58417391        2       0.02146646       0.01510806      -0.06631064
Pt       5.61442781       1.62074537      24.58417374        2      -0.00142274      -0.10811890       0.12026418
Pt       1.40360639       4.05186438      24.58417385        2       0.00033032       0.07095621       0.15455946
Pt       4.21082087       4.05186396      24.58417384        2      -0.09296367       0.05537852       0.12028027
Pt       7.01803504       4.05186408      24.58417403        2       0.09436007       0.05276104       0.12029598
Pt       2.80721276       6.48298348      24.58417381        2      -0.06162221      -0.03520388       0.15467283
Pt       5.61442804       6.48298329      24.58417396        2       0.00228557      -0.02610131      -0.06616878
Pt       8.42164223       6.48298338      24.58417376        2       0.06131958      -0.03575371       0.15463097
Pt       0.01603435       0.01088054      26.89884848        1       0.02960030       0.01575917      -0.00264914
Pt       2.78978287       0.00843999      26.89885043        1      -0.02847330       0.01776926      -0.00265186
Pt       5.61264369       0.02874750      27.01570510        1      -0.00001774      -0.00747744      -0.00289083
Pt       1.40502299       2.41179911      26.89883896        1      -0.00118203      -0.03353193      -0.00261715
Pt       4.21402889       2.43234386      26.90697789        1      -0.00552183      -0.00224927       0.00032343
Pt       7.01537506       2.43328077      26.90697095        1       0.00470037      -0.00364608       0.00034194
Pt       2.83299750       4.84941263      27.01570504        1      -0.00644481       0.00374560      -0.00289768
Pt       5.61387769       4.85885170      26.90698486        1       0.00083636       0.00589918       0.00030447
Pt       8.39763267       4.84631670      27.01570311        1       0.00650636       0.00373224      -0.00287881
O        9.82524593       5.67261134      29.53989838        0      -0.00000593      -0.00000391       0.01431856
C        9.82524445       5.67261032      28.33849747        0       0.00000027       0.00000222       0.01321837
