38
Lattice="8.421641763931781 0.0 0.0 4.2108208819658905 7.293355709136913 0.0 0.0 0.0 46.87624170604845" Properties=species:S:1:pos:R:3:tags:I:1:forces:R:3 charge=0 spin=0 energy=-202.81927108407726 free_energy=-202.81927108407726 stress="0.009581457823514938 -4.752732252200076e-08 2.3755976030770398e-07 -4.752732252200076e-08 0.009581503458321095 8.974490128821344e-08 2.3755976030770398e-07 8.974490128821344e-08 -0.00038856948958709836" pbc="T T T"
Pt      -0.00000010      -0.00000005      19.95723451        4      -0.00698938       0.00646505       0.02005845
Pt       2.80721394      -0.00000020      19.95723457        4       0.00000683       0.00000538       0.02220522
Pt       5.61442787      -0.00000008      19.95723465        4       0.00642872       0.00545273       0.01953188
Pt       1.40360721       2.43111841      19.95723445        4      -0.00794356       0.00285524       0.01959257
Pt       4.21082082       2.43111837      19.95723453        4       0.00908787       0.00283539       0.02008877
Pt       7.01803480       2.43111844      19.95723439        4      -0.00001690      -0.00000301      -0.06918880
Pt       2.80721416       4.86223734      19.95723425        4       0.00000006       0.00000225       0.01756130
Pt       5.61442796       4.86223739      19.95723443        4       0.00152218      -0.00830595       0.01951719
Pt       8.42164143       4.86223725      19.95723447        4      -0.00209029      -0.00929872       0.02011776
Pt       1.40360729       0.81037262      22.29206795        3      -0.00456957      -0.00399942      -0.06317797
Pt       4.21082131       0.81037249      22.29206793        3      -0.00111992       0.00599392      -0.06317741
Pt       7.01803470       0.81037255      22.29206785        3      -0.00137552       0.06274789      -0.11445852
Pt       2.80721448       3.24149122      22.29206774        3      -0.00399443       0.00295260      -0.02819693
Pt       5.61442764       3.24149121      22.29206791        3       0.05507006      -0.03019462      -0.11446775
Pt       8.42164154       3.24149129      22.29206806        3      -0.05364614      -0.03252779      -0.11439859
Pt       4.21082091       5.67260997      22.29206741        3      -0.00053542      -0.00500150      -0.02840213
Pt       7.01803487       5.67261038      22.29206779        3       0.00574767      -0.00194889      -0.06338181
Pt       9.82524821       5.67261068      22.29206808        3       0.00457482       0.00205806      -0.02837774
Pt      -0.00000053       1.62074567      24.58417372        2      -0.04132114       0.02400466      -0.12946580
Pt       2.80721436       1.62074552      24.58417391        2       0.00345584       0.00455143      -0.04006498
Pt       5.61442781       1.62074537      24.58417374        2       0.04150996       0.02367267      -0.12954718
Pt       1.40360639       4.05186438      24.58417385        2       0.23535018       0.13827318       0.34117347
Pt       4.21082087       4.05186396      24.58417384        2      -0.23701945       0.13472784       0.34066209
Pt       7.01803504       4.05186408      24.58417403        2      -0.00031911      -0.04767859      -0.12915641
Pt       2.80721276       6.48298348      24.58417381        2       0.00189173      -0.27280894       0.34070253
Pt       5.61442804       6.48298329      24.58417396        2      -0.00587454       0.00051255      -0.03973205
Pt       8.42164223       6.48298338      24.58417376        2       0.00208219      -0.00538484      -0.03979042
Pt       0.01457964       0.02802217      26.89944943        1      -0.00810529      -0.00815646      -0.00473500
Pt       2.80711707      -0.00006497      26.91542464        1       0.00011937       0.00011315       0.00905292
Pt       5.60081878       0.02772362      26.90049890        1       0.00554324      -0.00827692      -0.00342435
Pt       1.38624143       2.40554655      26.90050702        1       0.00446060       0.00862712      -0.00335851
Pt       4.22766174       2.40440018      26.89939917        1      -0.00277387       0.01102331      -0.00467480
Pt       7.01793227       2.43108267      26.92445305        1       0.00013594       0.00001719       0.00753410
Pt       2.80709063       4.86217764      27.06841433        1       0.00061926       0.00030513      -0.01481111
Pt       5.64524049       4.86001042      26.90057834        1      -0.01018287      -0.00045188      -0.00369961
Pt       8.39004919       4.86085341      26.89951866        1       0.01072489      -0.00292710      -0.00495537
O        2.80803509       4.86263979      30.08158977        0       0.00025590       0.00013336       0.01040777
C        2.80780108       4.86253214      28.91916029        0      -0.00071001      -0.00036539       0.02643682
