38
Lattice="8.421641763931781 0.0 0.0 4.2108208819658905 7.293355709136913 0.0 0.0 0.0 46.87624170604845" Properties=species:S:1:pos:R:3:tags:I:1:forces:R:3 charge=0 spin=0 energy=-202.9122390711378 free_energy=-202.9122390711378 stress="0.009914897382259369 9.26786558608228e-09 7.997252637892416e-09 9.26786558608228e-09 0.009914908558130264 3.608809961974657e-08 7.997252637892416e-09 3.608809961974657e-08 -0.000449254410341382" pbc="T T T"
Pt      -0.00000010      -0.00000005      19.95723451        4      -0.00011543       0.01753815       0.01061490
Pt       2.80721394      -0.00000020      19.95723457        4      -0.00072977      -0.00061503       0.01699482
Pt       5.61442787      -0.00000008      19.95723465        4       0.00092581      -0.00032640       0.01693365
Pt       1.40360721       2.43111841      19.95723445        4       0.00356598       0.00105046       0.01326894
Pt       4.21082082       2.43111837      19.95723453        4      -0.00019368       0.00094742       0.01699086
Pt       7.01803480       2.43111844      19.95723439        4      -0.00088569      -0.00358927       0.01321686
Pt       2.80721416       4.86223734      19.95723425        4      -0.01509857      -0.00889864       0.01065020
Pt       5.61442796       4.86223739      19.95723443        4       0.01521036      -0.00864377       0.01064984
Pt       8.42164143       4.86223725      19.95723447        4      -0.00267919       0.00253602       0.01324719
Pt       1.40360729       0.81037262      22.29206795        3      -0.02602170      -0.02403533      -0.06692403
Pt       4.21082131       0.81037249      22.29206793        3      -0.00000121       0.00000324      -0.00723321
Pt       7.01803470       0.81037255      22.29206785        3       0.02467335      -0.03124995      -0.06582147
Pt       2.80721448       3.24149122      22.29206774        3       0.01462279       0.03702665      -0.06583878
Pt       5.61442764       3.24149121      22.29206791        3      -0.00776697       0.03462600      -0.06683138
Pt       8.42164154       3.24149129      22.29206806        3       0.00000385       0.00000209      -0.07234024
Pt       4.21082091       5.67260997      22.29206741        3      -0.00000378       0.00000052      -0.28186870
Pt       7.01803487       5.67261038      22.29206779        3      -0.03930563      -0.00577629      -0.06577592
Pt       9.82524821       5.67261068      22.29206808        3       0.03379921      -0.01060024      -0.06688471
Pt      -0.00000053       1.62074567      24.58417372        2       0.00295492      -0.02852556      -0.08111136
Pt       2.80721436       1.62074552      24.58417391        2       0.06541652      -0.03840546       0.14739245
Pt       5.61442781       1.62074537      24.58417374        2      -0.06597356      -0.03740364       0.14743599
Pt       1.40360639       4.05186438      24.58417385        2       0.02323241       0.01691547      -0.08128781
Pt       4.21082087       4.05186396      24.58417384        2      -0.00099186      -0.10878479       0.13134964
Pt       7.01803504       4.05186408      24.58417403        2      -0.02620226       0.01157713      -0.08120309
Pt       2.80721276       6.48298348      24.58417381        2      -0.09372509       0.05535724       0.13136838
Pt       5.61442804       6.48298329      24.58417396        2       0.09471719       0.05344054       0.13140053
Pt       8.42164223       6.48298338      24.58417376        2       0.00057336       0.07583410       0.14731711
Pt      -0.00045528       0.00215463      26.90728825        1       0.00164283      -0.03185922      -0.00436449
Pt       2.78683398      -0.01435604      27.01638893        1      -0.02167450      -0.00956356       0.00068259
Pt       5.63704401      -0.01045930      27.01639408        1       0.01916504      -0.01402595       0.00066129
Pt       1.38773605       2.43958940      26.89433438        1      -0.03423436       0.01750428       0.01694273
Pt       4.20857320       2.45594068      27.01638972        1       0.00253769       0.02360276       0.00066934
Pt       7.03329872       2.44061304      26.89435395        1       0.03230349       0.02097343       0.01688232
Pt       2.80558610       4.86077873      26.90726184        1       0.02674627       0.01730674      -0.00429727
Pt       5.61653245       4.86155121      26.90727414        1      -0.02845285       0.01451385      -0.00433020
Pt       8.42224254       4.84427124      26.89432618        1       0.00197377      -0.03845546       0.01697890
O        4.21081688       0.81037366      29.54615946        0      -0.00000710      -0.00000075       0.00904093
C        4.21081631       0.81037335      28.34499914        0      -0.00000180       0.00000311      -0.00457699
