38
Lattice="8.421641763931781 0.0 0.0 4.2108208819658905 7.293355709136913 0.0 0.0 0.0 46.87624170604845" Properties=species:S:1:pos:R:3:tags:I:1:forces:R:3 charge=0 spin=0 energy=-202.88632392526378 free_energy=-202.88632392526378 stress="0.010008839890360832 -1.935929816454518e-08 1.7376947658576114e-09 -1.935929816454518e-08 0.010008858516812325 -1.1479100336941883e-08 1.7376947658576114e-09 -1.1479100336941883e-08 -0.0002950863563455641" pbc="T T T"
Pt      -0.00000010      -0.00000005      19.95723451        4      -0.00153870      -0.00287490       0.01097546
Pt       2.80721394      -0.00000020      19.95723457        4      -0.00024767      -0.00297278       0.02375859
Pt       5.61442787      -0.00000008      19.95723465        4       0.00328856       0.00013677       0.01103426
Pt       1.40360721       2.43111841      19.95723445        4      -0.00248481       0.00173137       0.02371917
Pt       4.21082082       2.43111837      19.95723453        4       0.00273417       0.00124631       0.02371567
Pt       7.01803480       2.43111844      19.95723439        4       0.00064399      -0.01587896       0.00966189
Pt       2.80721416       4.86223734      19.95723425        4      -0.00175393       0.00274105       0.01099776
Pt       5.61442796       4.86223739      19.95723443        4      -0.01407875       0.00735983       0.00965481
Pt       8.42164143       4.86223725      19.95723447        4       0.01343733       0.00851137       0.00971745
Pt       1.40360729       0.81037262      22.29206795        3      -0.00878875      -0.00931043      -0.02601923
Pt       4.21082131       0.81037249      22.29206793        3       0.01247141      -0.00294148      -0.02605777
Pt       7.01803470       0.81037255      22.29206785        3      -0.00156537       0.02371382      -0.06257204
Pt       2.80721448       3.24149122      22.29206774        3      -0.00369246       0.01226298      -0.02590716
Pt       5.61442764       3.24149121      22.29206791        3       0.05156280       0.03178435      -0.15754105
Pt       8.42164154       3.24149129      22.29206806        3      -0.05334742       0.02883860      -0.15749332
Pt       4.21082091       5.67260997      22.29206741        3       0.02125754      -0.01056748      -0.06244804
Pt       7.01803487       5.67261038      22.29206779        3       0.00178861      -0.06062441      -0.15753406
Pt       9.82524821       5.67261068      22.29206808        3      -0.01968552      -0.01315295      -0.06245337
Pt      -0.00000053       1.62074567      24.58417372        2       0.01010535      -0.09518008       0.12689729
Pt       2.80721436       1.62074552      24.58417391        2      -0.00000169       0.00000002       0.00365886
Pt       5.61442781       1.62074537      24.58417374        2      -0.00959880      -0.10169681       0.12923375
Pt       1.40360639       4.05186438      24.58417385        2       0.09283883       0.04240546       0.12934096
Pt       4.21082087       4.05186396      24.58417384        2      -0.08745061       0.03871359       0.12688576
Pt       7.01803504       4.05186408      24.58417403        2      -0.00000398       0.00000119      -0.23093469
Pt       2.80721276       6.48298348      24.58417381        2       0.00000995      -0.00000885       0.14669374
Pt       5.61442804       6.48298329      24.58417396        2      -0.08323851       0.05929310       0.12941766
Pt       8.42164223       6.48298338      24.58417376        2       0.07733776       0.05646498       0.12704811
Pt       0.01549928       0.01065982      27.01984284        1      -0.00837035      -0.00775418      -0.00531991
Pt       2.80756064       0.00154725      26.91395092        1       0.00140871       0.00884401      -0.01662854
Pt       5.59744640       0.00809042      27.01984434        1       0.01089556      -0.00336619      -0.00532378
Pt       1.40477491       2.43004366      26.91394968        1       0.00695603      -0.00563935      -0.01662345
Pt       4.20930615       2.43064436      26.91395136        1      -0.00835832      -0.00320605      -0.01662809
Pt       7.01696973       2.45590795      26.89887738        1       0.00087004      -0.01390067      -0.00274312
Pt       2.80869698       4.84348430      27.01984477        1      -0.00252735       0.01112554      -0.00532292
Pt       5.63643001       4.85076263      26.89887695        1      -0.01247793       0.00619752      -0.00273735
Pt       8.40070477       4.84891854      26.89887633        1       0.01160535       0.00770879      -0.00273632
O       11.22885711       6.48298555      29.55952700        0      -0.00000055      -0.00000254      -0.01330835
C       11.22885630       6.48298431      28.35899077        0      -0.00000049      -0.00000240       0.00392109
