38
Lattice="8.421641763931781 0.0 0.0 4.2108208819658905 7.293355709136913 0.0 0.0 0.0 46.87624170604845" Properties=species:S:1:pos:R:3:tags:I:1:forces:R:3 charge=0 spin=0 energy=-202.8856334650587 free_energy=-202.8856334650587 stress="0.010025976225733757 -2.1300669672541517e-08 5.0624788805464505e-09 -2.1300669672541517e-08 0.010025993920862675 -1.1480421946430397e-08 5.0624788805464505e-09 -1.1480421946430397e-08 -0.0002533671504352242" pbc="T T T"
Pt      -0.00000010      -0.00000005      19.95723451        4       0.00252385       0.00112019       0.02363708
Pt       2.80721394      -0.00000020      19.95723457        4       0.00065352      -0.01594272       0.00972629
Pt       5.61442787      -0.00000008      19.95723465        4      -0.00226837       0.00161870       0.02364086
Pt       1.40360721       2.43111841      19.95723445        4      -0.01414260       0.00739295       0.00972612
Pt       4.21082082       2.43111837      19.95723453        4       0.01349057       0.00855478       0.00978479
Pt       7.01803480       2.43111844      19.95723439        4      -0.00174706       0.00237021       0.01088820
Pt       2.80721416       4.86223734      19.95723425        4      -0.00025914      -0.00273633       0.02369194
Pt       5.61442796       4.86223739      19.95723443        4       0.00296209       0.00031109       0.01092961
Pt       8.42164143       4.86223725      19.95723447        4      -0.00121263      -0.00268907       0.01087518
Pt       1.40360729       0.81037262      22.29206795        3       0.05146251       0.03163038      -0.15736218
Pt       4.21082131       0.81037249      22.29206793        3      -0.05316517       0.02883778      -0.15732166
Pt       7.01803470       0.81037255      22.29206785        3      -0.00362077       0.01245777      -0.02476317
Pt       2.80721448       3.24149122      22.29206774        3       0.00169612      -0.06045714      -0.15735449
Pt       5.61442764       3.24149121      22.29206791        3      -0.01968190      -0.01315464      -0.06404097
Pt       8.42164154       3.24149129      22.29206806        3       0.02126760      -0.01055466      -0.06405189
Pt       4.21082091       5.67260997      22.29206741        3       0.01260599      -0.00310027      -0.02488805
Pt       7.01803487       5.67261038      22.29206779        3      -0.00158080       0.02370712      -0.06415816
Pt       9.82524821       5.67261068      22.29206808        3      -0.00898106      -0.00936424      -0.02487248
Pt      -0.00000053       1.62074567      24.58417372        2      -0.08191269       0.03570906       0.12799096
Pt       2.80721436       1.62074552      24.58417391        2      -0.00000600       0.00000121      -0.20295620
Pt       5.61442781       1.62074537      24.58417374        2       0.08755783       0.03951986       0.13048039
Pt       1.40360639       4.05186438      24.58417385        2      -0.07809070       0.05617812       0.13056083
Pt       4.21082087       4.05186396      24.58417384        2       0.07198158       0.05318616       0.12815745
Pt       7.01803504       4.05186408      24.58417403        2      -0.00000461       0.00000722       0.13736670
Pt       2.80721276       6.48298348      24.58417381        2       0.00001608      -0.00001517      -0.01225607
Pt       5.61442804       6.48298329      24.58417396        2      -0.00947000      -0.09569572       0.13038002
Pt       8.42164223       6.48298338      24.58417376        2       0.00992456      -0.08889543       0.12799855
Pt      -0.00726495      -0.00349396      26.91493070        1       0.02980047       0.01753508      -0.01561463
Pt       2.80583379       0.01999308      26.90097413        1       0.00158319       0.03069741      -0.01857991
Pt       5.62108312      -0.00453998      26.91492528        1      -0.03009312       0.01700979      -0.01559338
Pt       1.42160899       2.42231488      26.90097469        1       0.02580764      -0.01671918      -0.01858006
Pt       4.19419391       2.41992684      26.90097250        1      -0.02738072      -0.01396488      -0.01857478
Pt       7.01952020       2.41247974      27.01582124        1      -0.00246111       0.02900170       0.02585737
Pt       2.80781685       4.87027478      26.91493427        1       0.00031864      -0.03457851      -0.01562882
Pt       5.59754745       4.87026836      27.01582975        1       0.02630847      -0.01235516       0.02581747
Pt       8.43704146       4.87284220      27.01582634        1      -0.02387799      -0.01662323       0.02583069
O        7.01803858       4.05186129      29.56202434        0       0.00000060      -0.00000683      -0.03920174
C        7.01803834       4.05186123      28.36171620        0      -0.00000493       0.00000655      -0.02754208
