38
Lattice="8.421641763931781 0.0 0.0 4.2108208819658905 7.293355709136913 0.0 0.0 0.0 46.87624170604845" Properties=species:S:1:pos:R:3:tags:I:1:forces:R:3 charge=0 spin=0 energy=-202.8856334650587 free_energy=-202.8856334650587 stress="0.01002598088234663 -2.1184447973610077e-08 2.318196079542645e-09 -2.1184447973610077e-08 0.01002599112689495 -1.2407394223146184e-08 2.318196079542645e-09 -1.2407394223146184e-08 -0.0002534306840971112" pbc="T T T"
Pt      -0.00000010      -0.00000005      19.95723451        4      -0.01414377       0.00739444       0.00972171
Pt       2.80721394      -0.00000020      19.95723457        4       0.01348840       0.00855830       0.00978290
Pt       5.61442787      -0.00000008      19.95723465        4      -0.00174591       0.00237322       0.01088549
Pt       1.40360721       2.43111841      19.95723445        4      -0.00025622      -0.00273098       0.02368685
Pt       4.21082082       2.43111837      19.95723453        4       0.00296374       0.00031520       0.01093388
Pt       7.01803480       2.43111844      19.95723439        4      -0.00121651      -0.00268640       0.01087711
Pt       2.80721416       4.86223734      19.95723425        4       0.00252189       0.00111388       0.02364692
Pt       5.61442796       4.86223739      19.95723443        4       0.00065407      -0.01595020       0.00972432
Pt       8.42164143       4.86223725      19.95723447        4      -0.00226499       0.00161262       0.02364220
Pt       1.40360729       0.81037262      22.29206795        3       0.00170162      -0.06045934      -0.15735142
Pt       4.21082131       0.81037249      22.29206793        3      -0.01968537      -0.01314974      -0.06404256
Pt       7.01803470       0.81037255      22.29206785        3       0.02126355      -0.01055368      -0.06405279
Pt       2.80721448       3.24149122      22.29206774        3       0.01260334      -0.00309814      -0.02490724
Pt       5.61442764       3.24149121      22.29206791        3      -0.00157500       0.02371081      -0.06416053
Pt       8.42164154       3.24149129      22.29206806        3      -0.00898580      -0.00935337      -0.02487197
Pt       4.21082091       5.67260997      22.29206741        3       0.05145883       0.03162989      -0.15734667
Pt       7.01803487       5.67261038      22.29206779        3      -0.05316723       0.02882914      -0.15731668
Pt       9.82524821       5.67261068      22.29206808        3      -0.00361186       0.01244601      -0.02476350
Pt      -0.00000053       1.62074567      24.58417372        2      -0.07809175       0.05617401       0.13056198
Pt       2.80721436       1.62074552      24.58417391        2       0.07197811       0.05318088       0.12816162
Pt       5.61442781       1.62074537      24.58417374        2      -0.00000388       0.00000768       0.13736615
Pt       1.40360639       4.05186438      24.58417385        2       0.00000991      -0.00000374      -0.01225281
Pt       4.21082087       4.05186396      24.58417384        2      -0.00946659      -0.09568386       0.13038231
Pt       7.01803504       4.05186408      24.58417403        2       0.00992846      -0.08888479       0.12799408
Pt       2.80721276       6.48298348      24.58417381        2      -0.08190165       0.03569943       0.12798834
Pt       5.61442804       6.48298329      24.58417396        2      -0.00000848      -0.00000408      -0.20295623
Pt       8.42164223       6.48298338      24.58417376        2       0.08755105       0.03950994       0.13048075
Pt       0.01800111      -0.00880332      26.90097447        1       0.02581507      -0.01672488      -0.01858286
Pt       2.79058763      -0.01119103      26.90097266        1      -0.02738795      -0.01396856      -0.01857584
Pt       5.61591299      -0.01863822      27.01582073        1      -0.00245844       0.02899617       0.02585455
Pt       1.40421025       2.43915635      26.91493433        1       0.00031662      -0.03458149      -0.01562803
Pt       4.19394042       2.43914927      27.01582946        1       0.02630659      -0.01235222       0.02581551
Pt       7.03343462       2.44172323      27.01582550        1      -0.02387629      -0.01662082       0.02583526
Pt       2.79994839       4.85874267      26.91493165        1       0.02980534       0.01753917      -0.01562095
Pt       5.61304740       4.88222957      26.90097412        1       0.00158148       0.03070479      -0.01858275
Pt       8.42829774       4.85769690      26.91492408        1      -0.03009581       0.01701095      -0.01559468
O        5.61443200       1.62074324      29.56202305        0       0.00000273      -0.00000545      -0.03905617
C        5.61443167       1.62074322      28.36171575        0      -0.00000718       0.00000511      -0.02767810
