38
Lattice="8.421641763931781 0.0 0.0 4.2108208819658905 7.293355709136913 0.0 0.0 0.0 46.87624170604845" Properties=species:S:1:pos:R:3:tags:I:1:forces:R:3 charge=0 spin=0 energy=-202.91278648019542 free_energy=-202.91278648019542 stress="0.009971540421247482 4.01070510136492e-09 2.9840339088593737e-09 4.01070510136492e-09 0.009971552528440952 3.6515896084665656e-08 2.9840339088593737e-09 3.6515896084665656e-08 -0.00033177962177433074" pbc="T T T"
Pt      -0.00000010      -0.00000005      19.95723451        4      -0.00101577      -0.00358598       0.01323554
Pt       2.80721394      -0.00000020      19.95723457        4       0.00363125       0.00093954       0.01328862
Pt       5.61442787      -0.00000008      19.95723465        4      -0.00032093       0.00157505       0.01744480
Pt       1.40360721       2.43111841      19.95723445        4      -0.00261669       0.00265452       0.01326990
Pt       4.21082082       2.43111837      19.95723453        4      -0.01513327      -0.00894132       0.01086530
Pt       7.01803480       2.43111844      19.95723439        4       0.01526969      -0.00865093       0.01087512
Pt       2.80721416       4.86223734      19.95723425        4       0.00152531      -0.00053652       0.01739770
Pt       5.61442796       4.86223739      19.95723443        4      -0.00013512       0.01758714       0.01083674
Pt       8.42164143       4.86223725      19.95723447        4      -0.00120407      -0.00104267       0.01745106
Pt       1.40360729       0.81037262      22.29206795        3      -0.00000112       0.00000091      -0.07463734
Pt       4.21082131       0.81037249      22.29206793        3       0.01473369       0.03611038      -0.06512235
Pt       7.01803470       0.81037255      22.29206785        3      -0.00775828       0.03384960      -0.06614522
Pt       2.80721448       3.24149122      22.29206774        3       0.03310749      -0.01020807      -0.06619491
Pt       5.61442764       3.24149121      22.29206791        3       0.00000297      -0.00000096      -0.28044236
Pt       8.42164154       3.24149129      22.29206806        3      -0.03855776      -0.00522144      -0.06506667
Pt       4.21082091       5.67260997      22.29206741        3       0.02382453      -0.03088265      -0.06509688
Pt       7.01803487       5.67261038      22.29206779        3      -0.02535840      -0.02364113      -0.06622708
Pt       9.82524821       5.67261068      22.29206808        3       0.00000891      -0.00001063      -0.01226978
Pt      -0.00000053       1.62074567      24.58417372        2      -0.02867124       0.01361156      -0.06481397
Pt       2.80721436       1.62074552      24.58417391        2       0.02619039       0.01807379      -0.06487580
Pt       5.61442781       1.62074537      24.58417374        2      -0.00119219      -0.10823170       0.13472500
Pt       1.40360639       4.05186438      24.58417385        2       0.00011746       0.06975865       0.16783848
Pt       4.21082087       4.05186396      24.58417384        2      -0.09317957       0.05523551       0.13472709
Pt       7.01803504       4.05186408      24.58417403        2       0.09435562       0.05301367       0.13474794
Pt       2.80721276       6.48298348      24.58417381        2      -0.06048736      -0.03479901       0.16793473
Pt       5.61442804       6.48298329      24.58417396        2       0.00246797      -0.03167925      -0.06475558
Pt       8.42164223       6.48298338      24.58417376        2       0.06039687      -0.03497351       0.16789962
Pt       0.02214431       0.01396010      26.90105766        1      -0.01489053      -0.00868921      -0.00422446
Pt       2.78405434       0.01220213      26.90105855        1       0.01496900      -0.00855873      -0.00422372
Pt       5.61346990       0.02819427      27.01816516        1      -0.00191151      -0.01252206      -0.00609612
Pt       1.40462291       2.40496559      26.90106631        1      -0.00007693       0.01723283      -0.00424558
Pt       4.21364724       2.43145001      26.91103809        1       0.00140041       0.00372482      -0.01239668
Pt       7.01633660       2.43340334      26.91103614        1      -0.00393069      -0.00065541      -0.01239206
Pt       2.83211123       4.84897012      27.01816826        1      -0.00989840       0.00792119      -0.00610282
Pt       5.61330008       4.85962633      26.91103832        1       0.00252699      -0.00307414      -0.01239986
Pt       8.39770142       4.84731139      27.01816758        1       0.01181250       0.00461226      -0.00609942
O        9.82524841       5.67261078      29.54575731        0       0.00000014      -0.00000099      -0.01617787
C        9.82524828       5.67260891      28.34421200        0      -0.00000135       0.00000466       0.00746884
