38
Lattice="8.421641763931781 0.0 0.0 4.2108208819658905 7.293355709136913 0.0 0.0 0.0 46.87624170604845" Properties=species:S:1:pos:R:3:tags:I:1:forces:R:3 charge=0 spin=0 energy=-202.81933402658214 free_energy=-202.81933402658214 stress="0.009625974111258984 -9.289544777857373e-08 6.242543815204726e-09 -9.289544777857373e-08 0.009625975973904133 -8.032710496763684e-08 6.242543815204726e-09 -8.032710496763684e-08 -0.0002853902115020901" pbc="T T T"
Pt      -0.00000010      -0.00000005      19.95723451        4      -0.00200897      -0.00921879       0.02012189
Pt       2.80721394      -0.00000020      19.95723457        4      -0.00000014       0.00000316       0.01771963
Pt       5.61442787      -0.00000008      19.95723465        4       0.00150015      -0.00826737       0.01948281
Pt       1.40360721       2.43111841      19.95723445        4       0.00640618       0.00542558       0.01950294
Pt       4.21082082       2.43111837      19.95723453        4      -0.00697049       0.00635137       0.02007530
Pt       7.01803480       2.43111844      19.95723439        4      -0.00000098      -0.00000060       0.02240469
Pt       2.80721416       4.86223734      19.95723425        4      -0.00000205      -0.00000333      -0.06861027
Pt       5.61442796       4.86223739      19.95723443        4      -0.00790573       0.00284174       0.01954214
Pt       8.42164143       4.86223725      19.95723447        4       0.00898345       0.00286809       0.02010639
Pt       1.40360729       0.81037262      22.29206795        3       0.00458124       0.00220393      -0.02834628
Pt       4.21082131       0.81037249      22.29206793        3      -0.00044993      -0.00510456      -0.02838199
Pt       7.01803470       0.81037255      22.29206785        3       0.00583691      -0.00201630      -0.06332267
Pt       2.80721448       3.24149122      22.29206774        3      -0.00144721       0.06232034      -0.11478082
Pt       5.61442764       3.24149121      22.29206791        3      -0.00469174      -0.00407608      -0.06309503
Pt       8.42164154       3.24149129      22.29206806        3      -0.00113411       0.00609255      -0.06307968
Pt       4.21082091       5.67260997      22.29206741        3      -0.05327530      -0.03236239      -0.11474638
Pt       7.01803487       5.67261038      22.29206779        3      -0.00414053       0.00289778      -0.02812037
Pt       9.82524821       5.67261068      22.29206808        3       0.05472614      -0.02995968      -0.11478323
Pt      -0.00000053       1.62074567      24.58417372        2      -0.00074835      -0.00450637      -0.02866474
Pt       2.80721436       1.62074552      24.58417391        2       0.00171690      -0.27601922       0.35026807
Pt       5.61442781       1.62074537      24.58417374        2      -0.00361586       0.00281612      -0.02861858
Pt       1.40360639       4.05186438      24.58417385        2       0.04007459       0.02276887      -0.12052674
Pt       4.21082087       4.05186396      24.58417384        2      -0.03971782       0.02318145      -0.12043596
Pt       7.01803504       4.05186408      24.58417403        2       0.00433090       0.00170232      -0.02886945
Pt       2.80721276       6.48298348      24.58417381        2      -0.00035117      -0.04598981      -0.12028018
Pt       5.61442804       6.48298329      24.58417396        2       0.23807682       0.13949323       0.35024691
Pt       8.42164223       6.48298338      24.58417376        2      -0.23977368       0.13653740       0.35022697
Pt      -0.03049974      -0.00246510      26.90091210        1       0.00428721       0.00266005      -0.01104399
Pt       2.80721417       0.00000007      27.07492552        1      -0.00000213       0.00000037      -0.00021183
Pt       5.64456351      -0.00162569      26.90176303        1      -0.00444363      -0.00028642      -0.00878548
Pt       1.38996230       2.45803150      26.90176333        1       0.00247034      -0.00370600      -0.00881572
Pt       4.22394790       2.45876211      26.90093209        1       0.00014378      -0.00503215      -0.01103084
Pt       7.01804049       2.43112257      26.92038399        1      -0.00001491      -0.00001274      -0.01126343
Pt       2.80720690       4.86223368      26.92583412        1       0.00001809       0.00001543       0.00055454
Pt       5.59793333       4.83695501      26.90176278        1       0.00198411       0.00399703      -0.00875729
Pt       8.43901877       4.83705764      26.90089933        1      -0.00444270       0.00238501      -0.01107991
O        2.80721411      -0.00000022      30.08954105        0      -0.00000121      -0.00000085       0.00440864
C        2.80721378      -0.00000023      28.92711553        0       0.00000172       0.00000081      -0.00900998
