38
Lattice="8.421641763931781 0.0 0.0 4.2108208819658905 7.293355709136913 0.0 0.0 0.0 46.87624170604845" Properties=species:S:1:pos:R:3:tags:I:1:forces:R:3 charge=0 spin=0 energy=-202.88649463296642 free_energy=-202.88649463296642 stress="0.009958190843462944 -2.0567894054579483e-08 2.4283410837711017e-09 -2.0567894054579483e-08 0.009958198294043541 -1.413607986222587e-08 2.4283410837711017e-09 -1.413607986222587e-08 -0.00038510988815687597" pbc="T T T"
Pt      -0.00000010      -0.00000005      19.95723451        4       0.00272973       0.00118783       0.02364340
Pt       2.80721394      -0.00000020      19.95723457        4       0.00065242      -0.01597111       0.00951545
Pt       5.61442787      -0.00000008      19.95723465        4      -0.00243100       0.00176167       0.02364781
Pt       1.40360721       2.43111841      19.95723445        4      -0.01416563       0.00740715       0.00951588
Pt       4.21082082       2.43111837      19.95723453        4       0.01351521       0.00856902       0.00957529
Pt       7.01803480       2.43111844      19.95723439        4      -0.00177608       0.00278555       0.01090154
Pt       2.80721416       4.86223734      19.95723425        4      -0.00030270      -0.00294700       0.02369724
Pt       5.61442796       4.86223739      19.95723443        4       0.00333721       0.00012890       0.01094015
Pt       8.42164143       4.86223725      19.95723447        4      -0.00155875      -0.00292246       0.01088623
Pt       1.40360729       0.81037262      22.29206795        3       0.05184567       0.03213077      -0.15794420
Pt       4.21082131       0.81037249      22.29206793        3      -0.05379367       0.02891889      -0.15789728
Pt       7.01803470       0.81037255      22.29206785        3      -0.00373873       0.01227300      -0.02538652
Pt       2.80721448       3.24149122      22.29206774        3       0.00194034      -0.06103926      -0.15794054
Pt       5.61442764       3.24149121      22.29206791        3      -0.01995731      -0.01328295      -0.06213462
Pt       8.42164154       3.24149129      22.29206806        3       0.02151820      -0.01072860      -0.06214843
Pt       4.21082091       5.67260997      22.29206741        3       0.01250560      -0.00290489      -0.02552121
Pt       7.01803487       5.67261038      22.29206779        3      -0.00155652       0.02400946      -0.06225606
Pt       9.82524821       5.67261068      22.29206808        3      -0.00876278      -0.00937361      -0.02550191
Pt      -0.00000053       1.62074567      24.58417372        2      -0.08973866       0.04043372       0.11567426
Pt       2.80721436       1.62074552      24.58417391        2      -0.00000145       0.00000841      -0.24438597
Pt       5.61442781       1.62074537      24.58417374        2       0.09445910       0.04357254       0.11799628
Pt       1.40360639       4.05186438      24.58417385        2      -0.08504680       0.06013420       0.11807384
Pt       4.21082087       4.05186396      24.58417384        2       0.07998069       0.05759629       0.11584254
Pt       7.01803504       4.05186408      24.58417403        2      -0.00000433       0.00000231       0.13881211
Pt       2.80721276       6.48298348      24.58417381        2       0.00001119      -0.00001625      -0.01336135
Pt       5.61442804       6.48298329      24.58417396        2      -0.00941525      -0.10370433       0.11786785
Pt       8.42164223       6.48298338      24.58417376        2       0.00975272      -0.09803258       0.11568175
Pt      -0.00232730      -0.00010606      26.90916693        1      -0.00384836      -0.00303659      -0.00074381
Pt       2.80626070       0.02371102      26.89509223        1       0.00060422      -0.00788821       0.01007247
Pt       5.61567994      -0.00196030      26.90916667        1       0.00455797      -0.00181813      -0.00074249
Pt       1.42461622       2.42008793      26.89509813        1      -0.00712643       0.00342097       0.01005320
Pt       4.19076030       2.41843870      26.89510210        1       0.00653659       0.00446159       0.01004384
Pt       7.01849812       2.41339182      27.01825831        1       0.00056225       0.00281954      -0.00013949
Pt       2.80828860       4.86430074      26.90917351        1      -0.00071677       0.00486021      -0.00076705
Pt       5.59884564       4.87069658      27.01825816        1       0.00215958      -0.00188997      -0.00013870
Pt       8.43676187       4.87150223      27.01825712        1      -0.00272474      -0.00092741      -0.00013392
O        7.01803880       4.05186379      29.55867615        0      -0.00000050       0.00000204      -0.00922712
C        7.01803763       4.05186404      28.35819631        0      -0.00000238      -0.00000103       0.00392953
