38
Lattice="8.421641763931781 0.0 0.0 4.2108208819658905 7.293355709136913 0.0 0.0 0.0 46.87624170604845" Properties=species:S:1:pos:R:3:tags:I:1:forces:R:3 charge=0 spin=0 energy=-202.91206264138927 free_energy=-202.91206264138927 stress="0.009984041564166546 4.434053124668935e-09 -8.218969949069788e-10 4.434053124668935e-09 0.009984049014747143 3.928906977535007e-08 -8.218969949069788e-10 3.928906977535007e-08 -0.0003007552295457572" pbc="T T T"
Pt      -0.00000010      -0.00000005      19.95723451        4      -0.00004486       0.01768096       0.01064047
Pt       2.80721394      -0.00000020      19.95723457        4      -0.00094668      -0.00091691       0.01726999
Pt       5.61442787      -0.00000008      19.95723465        4       0.00129506      -0.00036379       0.01721085
Pt       1.40360721       2.43111841      19.95723445        4       0.00378196       0.00092323       0.01346139
Pt       4.21082082       2.43111837      19.95723453        4      -0.00034697       0.00128640       0.01726887
Pt       7.01803480       2.43111844      19.95723439        4      -0.00110384      -0.00371229       0.01341006
Pt       2.80721416       4.86223734      19.95723425        4      -0.01525786      -0.00890812       0.01067427
Pt       5.61442796       4.86223739      19.95723443        4       0.01529864      -0.00877716       0.01067266
Pt       8.42164143       4.86223725      19.95723447        4      -0.00267582       0.00278721       0.01343582
Pt       1.40360729       0.81037262      22.29206795        3      -0.02548694      -0.02346387      -0.06645815
Pt       4.21082131       0.81037249      22.29206793        3      -0.00000099       0.00000476      -0.01061358
Pt       7.01803470       0.81037255      22.29206785        3       0.02386047      -0.03060984      -0.06512374
Pt       2.80721448       3.24149122      22.29206774        3       0.01448014       0.03600071      -0.06512834
Pt       5.61442764       3.24149121      22.29206791        3      -0.00754045       0.03387726      -0.06636789
Pt       8.42164154       3.24149129      22.29206806        3       0.00000376       0.00000192      -0.07606316
Pt       4.21082091       5.67260997      22.29206741        3      -0.00000442       0.00000031      -0.27929807
Pt       7.01803487       5.67261038      22.29206779        3      -0.03835002      -0.00538876      -0.06507193
Pt       9.82524821       5.67261068      22.29206808        3       0.03303773      -0.01042179      -0.06642571
Pt      -0.00000053       1.62074567      24.58417372        2       0.00224670      -0.02790946      -0.05021028
Pt       2.80721436       1.62074552      24.58417391        2       0.05764040      -0.03366809       0.15603086
Pt       5.61442781       1.62074537      24.58417374        2      -0.05798840      -0.03305084       0.15607940
Pt       1.40360639       4.05186438      24.58417385        2       0.02305065       0.01597817      -0.05034331
Pt       4.21082087       4.05186396      24.58417384        2      -0.00140909      -0.10707366       0.12827028
Pt       7.01803504       4.05186408      24.58417403        2      -0.02529684       0.01192609      -0.05028448
Pt       2.80721276       6.48298348      24.58417381        2      -0.09205303       0.05483754       0.12830181
Pt       5.61442804       6.48298329      24.58417396        2       0.09345791       0.05224499       0.12830679
Pt       8.42164223       6.48298338      24.58417376        2       0.00035557       0.06671587       0.15599081
Pt      -0.00106841      -0.00693365      26.91240856        1       0.00264133       0.02599882      -0.01480335
Pt       2.78400837      -0.01512849      27.01293220        1       0.02511185       0.01400547       0.03320173
Pt       5.63913306      -0.01252835      27.01293315        1      -0.02468210       0.01472603       0.03319406
Pt       1.38573584       2.43953830      26.90198667        1      -0.03058742       0.01963099      -0.01519383
Pt       4.20932012       2.45877713      27.01292486        1      -0.00041157      -0.02874235       0.03322367
Pt       7.03426455       2.44238665      26.90198508        1       0.03228514       0.01666708      -0.01518831
Pt       2.81375477       4.86477747      26.91239737        1      -0.02384475      -0.01069238      -0.01477263
Pt       5.60895774       4.86663225      26.91239514        1       0.02119044      -0.01530051      -0.01476699
Pt       8.42328750       4.84255063      26.90198455        1      -0.00171030      -0.03629660      -0.01518810
O        4.21081844       0.81037648      29.54890808        0      -0.00000047       0.00000081      -0.04404331
C        4.21081812       0.81037281      28.34771155        0       0.00000495       0.00000182      -0.03129870
