38
Lattice="8.421641763931781 0.0 0.0 4.2108208819658905 7.293355709136913 0.0 0.0 0.0 46.87624170604845" Properties=species:S:1:pos:R:3:tags:I:1:forces:R:3 charge=0 spin=0 energy=-202.88649463296642 free_energy=-202.88649463296642 stress="0.009958182461559772 -2.0145352053191345e-08 3.2413463024738576e-09 -2.0145352053191345e-08 0.009958198294043541 -1.5129311137229706e-08 3.2413463024738576e-09 -1.5129311137229706e-08 -0.0003851094807032496" pbc="T T T"
Pt      -0.00000010      -0.00000005      19.95723451        4       0.00272969       0.00118796       0.02364336
Pt       2.80721394      -0.00000020      19.95723457        4       0.00065237      -0.01597091       0.00951537
Pt       5.61442787      -0.00000008      19.95723465        4      -0.00243095       0.00176163       0.02364775
Pt       1.40360721       2.43111841      19.95723445        4      -0.01416554       0.00740721       0.00951590
Pt       4.21082082       2.43111837      19.95723453        4       0.01351497       0.00856903       0.00957523
Pt       7.01803480       2.43111844      19.95723439        4      -0.00177595       0.00278555       0.01090164
Pt       2.80721416       4.86223734      19.95723425        4      -0.00030280      -0.00294705       0.02369722
Pt       5.61442796       4.86223739      19.95723443        4       0.00333700       0.00012910       0.01094028
Pt       8.42164143       4.86223725      19.95723447        4      -0.00155863      -0.00292244       0.01088614
Pt       1.40360729       0.81037262      22.29206795        3       0.05184577       0.03213030      -0.15794370
Pt       4.21082131       0.81037249      22.29206793        3      -0.05379384       0.02891876      -0.15789735
Pt       7.01803470       0.81037255      22.29206785        3      -0.00373875       0.01227299      -0.02538651
Pt       2.80721448       3.24149122      22.29206774        3       0.00194078      -0.06103960      -0.15794024
Pt       5.61442764       3.24149121      22.29206791        3      -0.01995737      -0.01328300      -0.06213489
Pt       8.42164154       3.24149129      22.29206806        3       0.02151821      -0.01072849      -0.06214902
Pt       4.21082091       5.67260997      22.29206741        3       0.01250563      -0.00290491      -0.02552155
Pt       7.01803487       5.67261038      22.29206779        3      -0.00155656       0.02400895      -0.06225613
Pt       9.82524821       5.67261068      22.29206808        3      -0.00876275      -0.00937362      -0.02550166
Pt      -0.00000053       1.62074567      24.58417372        2      -0.08973759       0.04043318       0.11567290
Pt       2.80721436       1.62074552      24.58417391        2      -0.00000170       0.00000852      -0.24438664
Pt       5.61442781       1.62074537      24.58417374        2       0.09445817       0.04357189       0.11799468
Pt       1.40360639       4.05186438      24.58417385        2      -0.08504641       0.06013425       0.11807368
Pt       4.21082087       4.05186396      24.58417384        2       0.07997932       0.05759542       0.11584035
Pt       7.01803504       4.05186408      24.58417403        2      -0.00000320       0.00000275       0.13880992
Pt       2.80721276       6.48298348      24.58417381        2       0.00001100      -0.00001617      -0.01336250
Pt       5.61442804       6.48298329      24.58417396        2      -0.00941506      -0.10370260       0.11786561
Pt       8.42164223       6.48298338      24.58417376        2       0.00975281      -0.09803244       0.11568066
Pt      -0.00232755      -0.00010637      26.90916692        1      -0.00384697      -0.00303313      -0.00074328
Pt       2.80626073       0.02371105      26.89509264        1       0.00060253      -0.00788750       0.01007349
Pt       5.61568034      -0.00196067      26.90916664        1       0.00455767      -0.00181773      -0.00074181
Pt       1.42461622       2.42008781      26.89509823        1      -0.00712578       0.00342082       0.01005320
Pt       4.19076010       2.41843862      26.89510238        1       0.00653574       0.00446141       0.01004404
Pt       7.01849816       2.41339147      27.01825762        1       0.00056273       0.00282836      -0.00012873
Pt       2.80828851       4.86430119      26.90917364        1      -0.00071649       0.00485712      -0.00076722
Pt       5.59884513       4.87069710      27.01825767        1       0.00217005      -0.00189612      -0.00012698
Pt       8.43676267       4.87150235      27.01825656        1      -0.00273330      -0.00093020      -0.00012978
O        7.01803882       4.05186366      29.55867545        0      -0.00000250       0.00000104      -0.00923722
C        7.01803767       4.05186419      28.35819616        0      -0.00000225      -0.00000042       0.00392374
