38
Lattice="8.421641763931781 0.0 0.0 4.2108208819658905 7.293355709136913 0.0 0.0 0.0 46.87624170604845" Properties=species:S:1:pos:R:3:tags:I:1:forces:R:3 charge=0 spin=0 energy=-202.8193721735548 free_energy=-202.8193721735548 stress="0.009599277749657631 -8.238757231993077e-08 -3.823291017113206e-09 -8.238757231993077e-08 0.009599294513463974 -4.6531834385632465e-08 -3.823291017113206e-09 -4.6531834385632465e-08 -0.0003772367781493813" pbc="T T T"
Pt      -0.00000010      -0.00000005      19.95723451        4      -0.00700156       0.00633216       0.01999384
Pt       2.80721394      -0.00000020      19.95723457        4      -0.00000072       0.00000272       0.02237017
Pt       5.61442787      -0.00000008      19.95723465        4       0.00646314       0.00539790       0.01943644
Pt       1.40360721       2.43111841      19.95723445        4      -0.00790983       0.00291227       0.01948285
Pt       4.21082082       2.43111837      19.95723453        4       0.00897627       0.00290652       0.02003001
Pt       7.01803480       2.43111844      19.95723439        4      -0.00000005      -0.00000019      -0.06873614
Pt       2.80721416       4.86223734      19.95723425        4      -0.00000307      -0.00000320       0.01773606
Pt       5.61442796       4.86223739      19.95723443        4       0.00144781      -0.00831045       0.01941636
Pt       8.42164143       4.86223725      19.95723447        4      -0.00197148      -0.00923872       0.02004785
Pt       1.40360729       0.81037262      22.29206795        3      -0.00461989      -0.00410007      -0.06353120
Pt       4.21082131       0.81037249      22.29206793        3      -0.00119949       0.00604530      -0.06352227
Pt       7.01803470       0.81037255      22.29206785        3      -0.00144884       0.06260537      -0.11474383
Pt       2.80721448       3.24149122      22.29206774        3      -0.00410201       0.00278795      -0.02735451
Pt       5.61442764       3.24149121      22.29206791        3       0.05496964      -0.03008847      -0.11474305
Pt       8.42164154       3.24149129      22.29206806        3      -0.05351384      -0.03251139      -0.11472745
Pt       4.21082091       5.67260997      22.29206741        3      -0.00037211      -0.00501203      -0.02759058
Pt       7.01803487       5.67261038      22.29206779        3       0.00581815      -0.00194134      -0.06375937
Pt       9.82524821       5.67261068      22.29206808        3       0.00446828       0.00221600      -0.02758146
Pt      -0.00000053       1.62074567      24.58417372        2      -0.04224619       0.02498220      -0.12506612
Pt       2.80721436       1.62074552      24.58417391        2       0.00354683       0.00209119      -0.03621738
Pt       5.61442781       1.62074537      24.58417374        2       0.04290669       0.02407364      -0.12517472
Pt       1.40360639       4.05186438      24.58417385        2       0.24015775       0.14028300       0.34262004
Pt       4.21082087       4.05186396      24.58417384        2      -0.24148487       0.13795727       0.34257635
Pt       7.01803504       4.05186408      24.58417403        2      -0.00066106      -0.04906533      -0.12489930
Pt       2.80721276       6.48298348      24.58417381        2       0.00139366      -0.27821887       0.34261492
Pt       5.61442804       6.48298329      24.58417396        2      -0.00357477       0.00193987      -0.03596644
Pt       8.42164223       6.48298338      24.58417376        2      -0.00004316      -0.00404181      -0.03601040
Pt       0.01274926       0.02720118      26.89843550        1       0.00295199      -0.00160663      -0.00165767
Pt       2.80721527       0.00000342      26.91800195        1       0.00000663      -0.00002415      -0.00406377
Pt       5.60183935       0.02692506      26.89992602        1      -0.00255867      -0.00166995      -0.00179005
Pt       1.38657863       2.40674344      26.89993856        1       0.00271475      -0.00136649      -0.00178129
Pt       4.22799762       2.40648811      26.89839383        1      -0.00284718      -0.00176520      -0.00167595
Pt       7.01803404       2.43111628      26.92751672        1      -0.00000179       0.00002101      -0.00439889
Pt       2.80721393       4.86223627      27.07456265        1       0.00000365       0.00000937      -0.04859719
Pt       5.64404261       4.85968996      26.89993383        1      -0.00013616       0.00304438      -0.00180190
Pt       8.39172094       4.85967098      26.89841649        1      -0.00012793       0.00335625      -0.00168240
O        2.80721393       4.86223669      30.08662691        0       0.00000017       0.00000045       0.02638246
C        2.80721370       4.86223718      28.92433172        0      -0.00000057      -0.00000048       0.02436592
