38
Lattice="8.421641763931781 0.0 0.0 4.2108208819658905 7.293355709136913 0.0 0.0 0.0 46.87624170604845" Properties=species:S:1:pos:R:3:tags:I:1:forces:R:3 charge=0 spin=0 energy=-202.87923812509288 free_energy=-202.87923812509288 stress="0.010156050324440002 1.7431695596314967e-05 5.895260983379558e-06 1.7431695596314967e-05 0.009572017937898636 -2.6048892323160544e-05 5.895260983379558e-06 -2.6048892323160544e-05 -0.00042396184289827943" pbc="T T T"
Pt      -0.00000010      -0.00000005      19.95723451        4      -0.00060999      -0.00357092       0.01292299
Pt       2.80721394      -0.00000020      19.95723457        4      -0.00085389      -0.00828739       0.02534351
Pt       5.61442787      -0.00000008      19.95723465        4       0.00258852      -0.00079226       0.01519226
Pt       1.40360721       2.43111841      19.95723445        4      -0.00067732      -0.00128502       0.01998905
Pt       4.21082082       2.43111837      19.95723453        4       0.00318314       0.00098341       0.01795126
Pt       7.01803480       2.43111844      19.95723439        4      -0.00048208       0.00115729       0.02175806
Pt       2.80721416       4.86223734      19.95723425        4      -0.00088718       0.00499029       0.00680503
Pt       5.61442796       4.86223739      19.95723443        4      -0.02058769      -0.00031807      -0.00686779
Pt       8.42164143       4.86223725      19.95723447        4       0.01992464      -0.00146407      -0.00421123
Pt       1.40360729       0.81037262      22.29206795        3       0.00228357      -0.02134038      -0.02010004
Pt       4.21082131       0.81037249      22.29206793        3       0.00190299      -0.01109940      -0.01871260
Pt       7.01803470       0.81037255      22.29206785        3       0.00147157       0.01059800      -0.01113838
Pt       2.80721448       3.24149122      22.29206774        3      -0.00140917       0.00987000      -0.06903213
Pt       5.61442764       3.24149121      22.29206791        3       0.01008529       0.05720932      -0.11281177
Pt       8.42164154       3.24149129      22.29206806        3      -0.01074622       0.05394455      -0.11183161
Pt       4.21082091       5.67260997      22.29206741        3       0.03189871      -0.01426205      -0.08106700
Pt       7.01803487       5.67261038      22.29206779        3       0.00200582      -0.07990756      -0.21907327
Pt       9.82524821       5.67261068      22.29206808        3      -0.03320078      -0.01518798      -0.08298549
Pt      -0.00000053       1.62074567      24.58417372        2       0.00256492      -0.14512892       0.13337880
Pt       2.80721436       1.62074552      24.58417391        2      -0.00438825      -0.00210144      -0.02936734
Pt       5.61442781       1.62074537      24.58417374        2       0.00284174      -0.15173735       0.13915157
Pt       1.40360639       4.05186438      24.58417385        2      -0.03654926      -0.00400080      -0.06171087
Pt       4.21082087       4.05186396      24.58417384        2       0.03719345      -0.00008613      -0.07007465
Pt       7.01803504       4.05186408      24.58417403        2      -0.00011824       0.05043072      -0.16166754
Pt       2.80721276       6.48298348      24.58417381        2       0.00153006       0.06234491       0.14011000
Pt       5.61442804       6.48298329      24.58417396        2      -0.17389849       0.11784687       0.25721979
Pt       8.42164223       6.48298338      24.58417376        2       0.16509911       0.10905625       0.25943065
Pt       0.00621779      -0.01334490      27.05904739        1       0.01691853       0.00913729       0.00724593
Pt       2.80722879      -0.00132960      26.90172132        1       0.00187764      -0.00716851       0.01915938
Pt       5.60958522      -0.01439199      27.05750096        1      -0.01689041       0.00953116       0.00823494
Pt       1.40233871       2.42044072      26.91157002        1       0.00653814       0.01383975      -0.01365321
Pt       4.21126618       2.42005827      26.90958592        1      -0.00629615       0.01841775      -0.01392564
Pt       7.01718503       2.48807187      26.88976328        1       0.00259158      -0.00648126       0.01183909
Pt       2.80895360       4.79946655      26.88911472        1      -0.00375668      -0.00098081       0.01749692
Pt       5.61714182       4.87080160      26.91338889        1       0.00521951      -0.02903502      -0.01727447
Pt       8.42029060       4.87037428      26.91369441        1      -0.00741020      -0.02751124      -0.01660604
O        7.01848415       0.01006190      29.69754045        0      -0.00090340       0.03891388       0.01395605
C        7.01780833       0.02250373      28.50967715        0       0.00194659      -0.03652490      -0.00507441
