38
Lattice="8.421641763931781 0.0 0.0 4.2108208819658905 7.293355709136913 0.0 0.0 0.0 46.87624170604845" Properties=species:S:1:pos:R:3:tags:I:1:forces:R:3 charge=0 spin=0 energy=-202.81937121988048 free_energy=-202.81937121988048 stress="0.00959926936775446 -8.351388913752089e-08 -2.89522006369225e-09 -8.351388913752089e-08 0.009599282406270504 -4.632520855807343e-08 -2.89522006369225e-09 -4.632520855807343e-08 -0.0003772480704355985" pbc="T T T"
Pt      -0.00000010      -0.00000005      19.95723451        4      -0.00700143       0.00633234       0.01999388
Pt       2.80721394      -0.00000020      19.95723457        4      -0.00000082       0.00000282       0.02237032
Pt       5.61442787      -0.00000008      19.95723465        4       0.00646308       0.00539774       0.01943667
Pt       1.40360721       2.43111841      19.95723445        4      -0.00790980       0.00291218       0.01948298
Pt       4.21082082       2.43111837      19.95723453        4       0.00897632       0.00290651       0.02002995
Pt       7.01803480       2.43111844      19.95723439        4      -0.00000019      -0.00000017      -0.06873599
Pt       2.80721416       4.86223734      19.95723425        4      -0.00000301      -0.00000307       0.01773613
Pt       5.61442796       4.86223739      19.95723443        4       0.00144775      -0.00831047       0.01941644
Pt       8.42164143       4.86223725      19.95723447        4      -0.00197150      -0.00923867       0.02004810
Pt       1.40360729       0.81037262      22.29206795        3      -0.00461970      -0.00410017      -0.06353129
Pt       4.21082131       0.81037249      22.29206793        3      -0.00119949       0.00604512      -0.06352244
Pt       7.01803470       0.81037255      22.29206785        3      -0.00144837       0.06260553      -0.11474372
Pt       2.80721448       3.24149122      22.29206774        3      -0.00410200       0.00278810      -0.02735498
Pt       5.61442764       3.24149121      22.29206791        3       0.05496954      -0.03008819      -0.11474217
Pt       8.42164154       3.24149129      22.29206806        3      -0.05351372      -0.03251136      -0.11472597
Pt       4.21082091       5.67260997      22.29206741        3      -0.00037237      -0.00501233      -0.02759024
Pt       7.01803487       5.67261038      22.29206779        3       0.00581811      -0.00194114      -0.06375938
Pt       9.82524821       5.67261068      22.29206808        3       0.00446835       0.00221596      -0.02758206
Pt      -0.00000053       1.62074567      24.58417372        2      -0.04224712       0.02498250      -0.12506828
Pt       2.80721436       1.62074552      24.58417391        2       0.00354669       0.00209081      -0.03621852
Pt       5.61442781       1.62074537      24.58417374        2       0.04290725       0.02407386      -0.12517533
Pt       1.40360639       4.05186438      24.58417385        2       0.24015555       0.14028135       0.34261635
Pt       4.21082087       4.05186396      24.58417384        2      -0.24148209       0.13795528       0.34257239
Pt       7.01803504       4.05186408      24.58417403        2      -0.00066086      -0.04906562      -0.12489990
Pt       2.80721276       6.48298348      24.58417381        2       0.00139381      -0.27821577       0.34261161
Pt       5.61442804       6.48298329      24.58417396        2      -0.00357489       0.00193979      -0.03596627
Pt       8.42164223       6.48298338      24.58417376        2      -0.00004361      -0.00404187      -0.03601142
Pt       0.01274908       0.02720154      26.89843534        1       0.00295216      -0.00160926      -0.00165865
Pt       2.80721533       0.00000357      26.91800182        1       0.00000575      -0.00002512      -0.00406290
Pt       5.60183930       0.02692523      26.89992585        1      -0.00255661      -0.00167022      -0.00178999
Pt       1.38657870       2.40674303      26.89993902        1       0.00271511      -0.00136499      -0.00178112
Pt       4.22799779       2.40648767      26.89839423        1      -0.00284634      -0.00176226      -0.00167648
Pt       7.01803414       2.43111606      26.92751603        1      -0.00000247       0.00002267      -0.00439806
Pt       2.80721402       4.86223653      27.07455788        1       0.00000443       0.00000919      -0.04858854
Pt       5.64404307       4.85969012      26.89993430        1      -0.00013814       0.00304414      -0.00180248
Pt       8.39172037       4.85967123      26.89841626        1      -0.00012873       0.00335536      -0.00168223
O        2.80721397       4.86223672      30.08662156        0      -0.00000001       0.00000179       0.02638296
C        2.80721362       4.86223722      28.92432719        0      -0.00000056      -0.00000240       0.02437042
