38
Lattice="8.421641763931781 0.0 0.0 4.2108208819658905 7.293355709136913 0.0 0.0 0.0 46.87624170604845" Properties=species:S:1:pos:R:3:tags:I:1:forces:R:3 charge=0 spin=0 energy=-202.87981414438 free_energy=-202.87981414438 stress="0.009727182798087597 -0.0002611498930491507 1.841363155108411e-05 -0.0002611498930491507 0.009988430887460709 1.776845419954043e-05 1.841363155108411e-05 1.776845419954043e-05 -0.0004380551108624786" pbc="T T T"
Pt      -0.00000010      -0.00000005      19.95723451        4      -0.00902726       0.01768932      -0.00447503
Pt       2.80721394      -0.00000020      19.95723457        4      -0.00079571      -0.00078784       0.02192490
Pt       5.61442787      -0.00000008      19.95723465        4      -0.00042906       0.00258402       0.01510607
Pt       1.40360721       2.43111841      19.95723445        4       0.00125050      -0.00012669       0.01991897
Pt       4.21082082       2.43111837      19.95723453        4       0.00352813       0.00135958       0.01298784
Pt       7.01803480       2.43111844      19.95723439        4      -0.00408422      -0.00338978       0.00687401
Pt       2.80721416       4.86223734      19.95723425        4       0.00751755       0.00320691       0.02543015
Pt       5.61442796       4.86223739      19.95723443        4       0.01003585      -0.01771767      -0.00684805
Pt       8.42164143       4.86223725      19.95723447        4      -0.00266945       0.00232234       0.01796547
Pt       1.40360729       0.81037262      22.29206795        3      -0.04174815      -0.03733889      -0.11228108
Pt       4.21082131       0.81037249      22.29206793        3      -0.00983062      -0.00368535      -0.00990537
Pt       7.01803470       0.81037255      22.29206785        3       0.02974865      -0.02103860      -0.08314299
Pt       2.80721448       3.24149122      22.29206774        3       0.01685716       0.01227537      -0.01822852
Pt       5.61442764       3.24149121      22.29206791        3      -0.00344004       0.03480217      -0.08093427
Pt       8.42164154       3.24149129      22.29206806        3      -0.00862569      -0.00662385      -0.06887549
Pt       4.21082091       5.67260997      22.29206741        3       0.06824474       0.04176310      -0.21955258
Pt       7.01803487       5.67261038      22.29206779        3      -0.05586854      -0.01977422      -0.11341442
Pt       9.82524821       5.67261068      22.29206808        3       0.00777644       0.00748852      -0.01666505
Pt      -0.00000053       1.62074567      24.58417372        2       0.01610028      -0.02725439      -0.08015267
Pt       2.80721436       1.62074552      24.58417391        2       0.13405663       0.08015420       0.12953748
Pt       5.61442781       1.62074537      24.58417374        2      -0.05845580      -0.03245490       0.14897230
Pt       1.40360639       4.05186438      24.58417385        2       0.01686172       0.00458626      -0.03463554
Pt       4.21082087       4.05186396      24.58417384        2      -0.02302924      -0.21083848       0.26341239
Pt       7.01803504       4.05186408      24.58417403        2      -0.01914526       0.02409231      -0.08882800
Pt       2.80721276       6.48298348      24.58417381        2      -0.18227719       0.08224414       0.26483586
Pt       5.61442804       6.48298329      24.58417396        2      -0.03912049      -0.02268750      -0.18803918
Pt       8.42164223       6.48298338      24.58417376        2       0.13955724       0.08375914       0.13627218
Pt      -0.00036476      -0.00419287      26.90672306        1      -0.00523113       0.00062164       0.01035065
Pt       2.76200887      -0.02693822      26.88766531        1       0.01297210       0.00780579       0.01918899
Pt       5.63031221       0.00082695      27.06280340        1       0.00217368       0.00347308       0.00020074
Pt       1.41133400       2.43566808      26.90576281        1       0.00960067       0.00419973       0.00937724
Pt       4.21850772       2.44556358      27.06405501        1       0.00450851      -0.00080087      -0.00059778
Pt       7.07110224       2.46198145      26.88953306        1      -0.01091604      -0.00583123       0.02182627
Pt       2.81014961       4.86433283      26.90885136        1       0.00347118       0.00194242      -0.00841304
Pt       5.61059277       4.86410572      26.90607960        1      -0.00147332      -0.00526312       0.01043224
Pt       8.42938045       4.86460602      26.90358959        1       0.00784285       0.00864951       0.01050652
O        4.90352992       1.21073817      29.70210190        0      -0.01083264      -0.00617874      -0.01741660
C        4.90286862       1.21026906      28.51385243        0      -0.00510404      -0.00322761       0.00728548
