38
Lattice="8.421641763931781 0.0 0.0 4.2108208819658905 7.293355709136913 0.0 0.0 0.0 46.87624170604845" Properties=species:S:1:pos:R:3:tags:I:1:forces:R:3 charge=0 spin=0 energy=-202.9120635950636 free_energy=-202.9120635950636 stress="0.009984031319618225 7.855937234069188e-09 -1.9341304113851265e-09 7.855937234069188e-09 0.009984055534005165 4.0364209752397073e-08 -1.9341304113851265e-09 4.0364209752397073e-08 -0.00030075747054070234" pbc="T T T"
Pt      -0.00000010      -0.00000005      19.95723451        4      -0.00110417      -0.00370881       0.01340588
Pt       2.80721394      -0.00000020      19.95723457        4       0.00378154       0.00092443       0.01345855
Pt       5.61442787      -0.00000008      19.95723465        4      -0.00034890       0.00128955       0.01726690
Pt       1.40360721       2.43111841      19.95723445        4      -0.00267881       0.00279264       0.01343747
Pt       4.21082082       2.43111837      19.95723453        4      -0.01525304      -0.00890487       0.01066846
Pt       7.01803480       2.43111844      19.95723439        4       0.01529741      -0.00877279       0.01067760
Pt       2.80721416       4.86223734      19.95723425        4       0.00129224      -0.00037022       0.01721880
Pt       5.61442796       4.86223739      19.95723443        4      -0.00004329       0.01767297       0.01064045
Pt       8.42164143       4.86223725      19.95723447        4      -0.00094338      -0.00092339       0.01727084
Pt       1.40360729       0.81037262      22.29206795        3      -0.00000074       0.00000202      -0.07606126
Pt       4.21082131       0.81037249      22.29206793        3       0.01448574       0.03600239      -0.06512844
Pt       7.01803470       0.81037255      22.29206785        3      -0.00754258       0.03387807      -0.06636859
Pt       2.80721448       3.24149122      22.29206774        3       0.03302202      -0.01040787      -0.06642596
Pt       5.61442764       3.24149121      22.29206791        3       0.00000206      -0.00000070      -0.27931648
Pt       8.42164154       3.24149129      22.29206806        3      -0.03834379      -0.00538435      -0.06507549
Pt       4.21082091       5.67260997      22.29206741        3       0.02385683      -0.03061066      -0.06510726
Pt       7.01803487       5.67261038      22.29206779        3      -0.02548938      -0.02346860      -0.06645657
Pt       9.82524821       5.67261068      22.29206808        3       0.00000938      -0.00001085      -0.01061318
Pt      -0.00000053       1.62074567      24.58417372        2      -0.02529050       0.01192124      -0.05028177
Pt       2.80721436       1.62074552      24.58417391        2       0.02304189       0.01597720      -0.05033837
Pt       5.61442781       1.62074537      24.58417374        2      -0.00141022      -0.10707714       0.12827738
Pt       1.40360639       4.05186438      24.58417385        2       0.00036652       0.06672128       0.15598319
Pt       4.21082087       4.05186396      24.58417384        2      -0.09206616       0.05485243       0.12830241
Pt       7.01803504       4.05186408      24.58417403        2       0.09346087       0.05225220       0.12831126
Pt       2.80721276       6.48298348      24.58417381        2      -0.05797560      -0.03306158       0.15607297
Pt       5.61442804       6.48298329      24.58417396        2       0.00223985      -0.02791064      -0.05021351
Pt       8.42164223       6.48298338      24.58417376        2       0.05763639      -0.03367274       0.15603289
Pt       0.01622943       0.01126760      26.90198478        1       0.03228948       0.01666966      -0.01519106
Pt       2.78934396       0.00841964      26.90198706        1      -0.03059382       0.01963226      -0.01519372
Pt       5.61292678       0.02765813      27.01292637        1      -0.00041186      -0.02873334       0.03321627
Pt       1.40525283       2.41143272      26.90198458        1      -0.00171209      -0.03630274      -0.01518968
Pt       4.21736193       2.43365906      26.91239800        1      -0.02384505      -0.01069364      -0.01477146
Pt       7.01256422       2.43551379      26.91239582        1       0.02119344      -0.01530144      -0.01476561
Pt       2.83191834       4.84970901      27.01293273        1      -0.02467436       0.01472486       0.03319668
Pt       5.61335936       4.85530339      26.91240880        1       0.00264174       0.02600058      -0.01480431
Pt       8.39843670       4.84710895      27.01293230        1       0.02510591       0.01400226       0.03320059
O        9.82524673       5.67261315      29.54890838        0      -0.00000062      -0.00000194      -0.04404138
C        9.82524557       5.67261003      28.34771232        0       0.00000503       0.00000240      -0.03129460
