38
Lattice="8.421641763931781 0.0 0.0 4.2108208819658905 7.293355709136913 0.0 0.0 0.0 46.87624170604845" Properties=species:S:1:pos:R:3:tags:I:1:forces:R:3 charge=0 spin=0 energy=-202.8192729914259 free_energy=-202.8192729914259 stress="0.009581422433257103 -8.562707165538086e-08 1.7562017262662266e-07 -8.562707165538086e-08 0.009581563994288445 -3.2405307592853205e-07 1.7562017262662266e-07 -3.2405307592853205e-07 -0.00038865921669639647" pbc="T T T"
Pt      -0.00000010      -0.00000005      19.95723451        4      -0.00209373      -0.00929210       0.02010639
Pt       2.80721394      -0.00000020      19.95723457        4       0.00000448       0.00000070       0.01755358
Pt       5.61442787      -0.00000008      19.95723465        4       0.00151651      -0.00829977       0.01951063
Pt       1.40360721       2.43111841      19.95723445        4       0.00643180       0.00545072       0.01954674
Pt       4.21082082       2.43111837      19.95723453        4      -0.00698905       0.00646006       0.02006865
Pt       7.01803480       2.43111844      19.95723439        4       0.00000457      -0.00001052       0.02220785
Pt       2.80721416       4.86223734      19.95723425        4      -0.00000879       0.00001702      -0.06918363
Pt       5.61442796       4.86223739      19.95723443        4      -0.00794378       0.00284090       0.01958453
Pt       8.42164143       4.86223725      19.95723447        4       0.00908906       0.00282875       0.02009006
Pt       1.40360729       0.81037262      22.29206795        3       0.00456546       0.00204511      -0.02837322
Pt       4.21082131       0.81037249      22.29206793        3      -0.00054242      -0.00502231      -0.02840747
Pt       7.01803470       0.81037255      22.29206785        3       0.00574508      -0.00197823      -0.06338885
Pt       2.80721448       3.24149122      22.29206774        3      -0.00138615       0.06273609      -0.11440954
Pt       5.61442764       3.24149121      22.29206791        3      -0.00457225      -0.00402937      -0.06317740
Pt       8.42164154       3.24149129      22.29206806        3      -0.00112519       0.00595865      -0.06317369
Pt       4.21082091       5.67260997      22.29206741        3      -0.05365058      -0.03255674      -0.11441476
Pt       7.01803487       5.67261038      22.29206779        3      -0.00399559       0.00291101      -0.02820598
Pt       9.82524821       5.67261068      22.29206808        3       0.05506506      -0.03023408      -0.11448978
Pt      -0.00000053       1.62074567      24.58417372        2       0.00208845      -0.00528254      -0.03979295
Pt       2.80721436       1.62074552      24.58417391        2       0.00191579      -0.27308422       0.34111080
Pt       5.61442781       1.62074537      24.58417374        2      -0.00579863       0.00064089      -0.03972734
Pt       1.40360639       4.05186438      24.58417385        2       0.04158081       0.02372146      -0.12958987
Pt       4.21082087       4.05186396      24.58417384        2      -0.04133425       0.02404898      -0.12948123
Pt       7.01803504       4.05186408      24.58417403        2       0.00346884       0.00473707      -0.04006084
Pt       2.80721276       6.48298348      24.58417381        2      -0.00029095      -0.04757000      -0.12910876
Pt       5.61442804       6.48298329      24.58417396        2       0.23511048       0.13823783       0.34088045
Pt       8.42164223       6.48298338      24.58417376        2      -0.23690157       0.13479127       0.34057906
Pt      -0.03159501      -0.00123114      26.89952422        1       0.01083636      -0.00310209      -0.00498644
Pt       2.80713499       0.00013225      27.06841872        1       0.00038554      -0.00065411      -0.01486421
Pt       5.64525024      -0.00207052      26.90059085        1      -0.01013504      -0.00063122      -0.00373483
Pt       1.39008305       2.45890387      26.90049848        1       0.00529656      -0.00807650      -0.00336912
Pt       4.22537509       2.45917795      26.89945973        1      -0.00789316      -0.00787113      -0.00469878
Pt       7.01797444       2.43121438      26.91542282        1       0.00006630      -0.00009552       0.00905899
Pt       2.80714675       4.86235756      26.92445072        1       0.00009318      -0.00018037       0.00754553
Pt       5.59702869       4.83671225      26.90049937        1       0.00469245       0.00888250      -0.00340005
Pt       8.43856675       4.83559345      26.89938781        1      -0.00300526       0.01116927      -0.00469424
O        2.80772712      -0.00088619      30.08159120        0       0.00016257      -0.00027966       0.01060370
C        2.80758411      -0.00063375      28.91916350        0      -0.00045270       0.00077220       0.02628593
