38
Lattice="8.421641763931781 0.0 0.0 4.2108208819658905 7.293355709136913 0.0 0.0 0.0 46.87624170604845" Properties=species:S:1:pos:R:3:tags:I:1:forces:R:3 charge=0 spin=0 energy=-202.81937121988048 free_energy=-202.81937121988048 stress="0.009599261917173862 -8.589242384005047e-08 -5.005203806973668e-09 -8.589242384005047e-08 0.009599278680980206 -4.668810760222186e-08 -5.005203806973668e-09 -4.668810760222186e-08 -0.00037729498581029475" pbc="T T T"
Pt      -0.00000010      -0.00000005      19.95723451        4      -0.00700146       0.00633231       0.01999403
Pt       2.80721394      -0.00000020      19.95723457        4      -0.00000076       0.00000267       0.02237032
Pt       5.61442787      -0.00000008      19.95723465        4       0.00646312       0.00539778       0.01943633
Pt       1.40360721       2.43111841      19.95723445        4      -0.00790979       0.00291199       0.01948290
Pt       4.21082082       2.43111837      19.95723453        4       0.00897632       0.00290646       0.02002986
Pt       7.01803480       2.43111844      19.95723439        4      -0.00000017      -0.00000016      -0.06873620
Pt       2.80721416       4.86223734      19.95723425        4      -0.00000287      -0.00000308       0.01773617
Pt       5.61442796       4.86223739      19.95723443        4       0.00144781      -0.00831020       0.01941661
Pt       8.42164143       4.86223725      19.95723447        4      -0.00197156      -0.00923870       0.02004797
Pt       1.40360729       0.81037262      22.29206795        3      -0.00461975      -0.00410008      -0.06353147
Pt       4.21082131       0.81037249      22.29206793        3      -0.00119991       0.00604511      -0.06352294
Pt       7.01803470       0.81037255      22.29206785        3      -0.00144851       0.06260535      -0.11474370
Pt       2.80721448       3.24149122      22.29206774        3      -0.00410189       0.00278828      -0.02735412
Pt       5.61442764       3.24149121      22.29206791        3       0.05496958      -0.03008814      -0.11474243
Pt       8.42164154       3.24149129      22.29206806        3      -0.05351392      -0.03251131      -0.11472598
Pt       4.21082091       5.67260997      22.29206741        3      -0.00037262      -0.00501233      -0.02759128
Pt       7.01803487       5.67261038      22.29206779        3       0.00581791      -0.00194120      -0.06375966
Pt       9.82524821       5.67261068      22.29206808        3       0.00446826       0.00221608      -0.02758197
Pt      -0.00000053       1.62074567      24.58417372        2      -0.04224864       0.02498501      -0.12507041
Pt       2.80721436       1.62074552      24.58417391        2       0.00354668       0.00209006      -0.03621555
Pt       5.61442781       1.62074537      24.58417374        2       0.04290854       0.02407498      -0.12517342
Pt       1.40360639       4.05186438      24.58417385        2       0.24015671       0.14028017       0.34261310
Pt       4.21082087       4.05186396      24.58417384        2      -0.24148360       0.13795432       0.34257093
Pt       7.01803504       4.05186408      24.58417403        2      -0.00066067      -0.04906941      -0.12490248
Pt       2.80721276       6.48298348      24.58417381        2       0.00139192      -0.27821642       0.34260902
Pt       5.61442804       6.48298329      24.58417396        2      -0.00357239       0.00194155      -0.03596901
Pt       8.42164223       6.48298338      24.58417376        2      -0.00004438      -0.00403975      -0.03601182
Pt       0.01274945       0.02720171      26.89843453        1       0.00295176      -0.00160940      -0.00165063
Pt       2.80721522       0.00000344      26.91800319        1       0.00000733      -0.00002301      -0.00407007
Pt       5.60183922       0.02692530      26.89992497        1      -0.00255805      -0.00166886      -0.00178992
Pt       1.38657801       2.40674290      26.89993792        1       0.00272089      -0.00136431      -0.00178061
Pt       4.22799795       2.40648763      26.89839333        1      -0.00284693      -0.00176455      -0.00167692
Pt       7.01803427       2.43111616      26.92751889        1      -0.00000586       0.00002252      -0.00440313
Pt       2.80721423       4.86223657      27.07455792        1       0.00000161       0.00000700      -0.04862904
Pt       5.64404282       4.85969011      26.89993310        1      -0.00013766       0.00304273      -0.00179584
Pt       8.39172080       4.85967100      26.89841535        1      -0.00012751       0.00335623      -0.00167546
O        2.80721399       4.86223674      30.08662017        0      -0.00000024      -0.00000015       0.02639212
C        2.80721357       4.86223720      28.92432628        0       0.00000064       0.00000047       0.02440494
