38
Lattice="8.421641763931781 0.0 0.0 4.2108208819658905 7.293355709136913 0.0 0.0 0.0 46.87624170604845" Properties=species:S:1:pos:R:3:tags:I:1:forces:R:3 charge=0 spin=0 energy=-202.8860282862257 free_energy=-202.8860282862257 stress="0.009942449629306793 -2.0302309167163912e-08 1.9552692798185944e-09 -2.0302309167163912e-08 0.009942464530467987 -1.691958217975298e-08 1.9552692798185944e-09 -1.691958217975298e-08 -0.0004229230107739568" pbc="T T T"
Pt      -0.00000010      -0.00000005      19.95723451        4       0.00069101      -0.01587736       0.00963445
Pt       2.80721394      -0.00000020      19.95723457        4      -0.00211912       0.00158447       0.02362105
Pt       5.61442787      -0.00000008      19.95723465        4       0.00242070       0.00100668       0.02361868
Pt       1.40360721       2.43111841      19.95723445        4       0.01341291       0.00855807       0.00969633
Pt       4.21082082       2.43111837      19.95723453        4      -0.00176145       0.00274952       0.01080421
Pt       7.01803480       2.43111844      19.95723439        4      -0.01410596       0.00732417       0.00963558
Pt       2.80721416       4.86223734      19.95723425        4       0.00329744       0.00013781       0.01085423
Pt       5.61442796       4.86223739      19.95723443        4      -0.00153629      -0.00289576       0.01078627
Pt       8.42164143       4.86223725      19.95723447        4      -0.00029847      -0.00258803       0.02366325
Pt       1.40360729       0.81037262      22.29206795        3      -0.05349619       0.02876896      -0.15858737
Pt       4.21082131       0.81037249      22.29206793        3      -0.00362943       0.01224656      -0.02483098
Pt       7.01803470       0.81037255      22.29206785        3       0.05157313       0.03194837      -0.15863732
Pt       2.80721448       3.24149122      22.29206774        3      -0.01994312      -0.01328655      -0.06293134
Pt       5.61442764       3.24149121      22.29206791        3       0.02150923      -0.01070524      -0.06293967
Pt       8.42164154       3.24149129      22.29206806        3       0.00192767      -0.06071323      -0.15863098
Pt       4.21082091       5.67260997      22.29206741        3      -0.00157336       0.02399711      -0.06303860
Pt       7.01803487       5.67261038      22.29206779        3      -0.00880439      -0.00925742      -0.02494419
Pt       9.82524821       5.67261068      22.29206808        3       0.01243773      -0.00299722      -0.02498592
Pt      -0.00000053       1.62074567      24.58417372        2      -0.00000083      -0.00000075      -0.21476680
Pt       2.80721436       1.62074552      24.58417391        2       0.09023394       0.04205810       0.11794114
Pt       5.61442781       1.62074537      24.58417374        2      -0.08557723       0.03871931       0.11624805
Pt       1.40360639       4.05186438      24.58417385        2       0.07641868       0.05484045       0.11641234
Pt       4.21082087       4.05186396      24.58417384        2      -0.00000081       0.00000414       0.13543120
Pt       7.01803504       4.05186408      24.58417403        2      -0.08164020       0.05722614       0.11801195
Pt       2.80721276       6.48298348      24.58417381        2      -0.00859154      -0.09928665       0.11781838
Pt       5.61442804       6.48298329      24.58417396        2       0.00915871      -0.09355929       0.11624064
Pt       8.42164223       6.48298338      24.58417376        2      -0.00000575      -0.00000277      -0.01608817
Pt      -0.00100487       0.01810215      26.89737882        1       0.00095221       0.04052442      -0.00538612
Pt       2.81004644      -0.00248132      26.90937554        1      -0.00846995       0.00410865      -0.00031219
Pt       5.61085936      -0.00121297      26.90937986        1       0.00780207       0.00528374      -0.00032375
Pt       1.38842721       2.42119484      26.89738001        1      -0.03555624      -0.01941161      -0.00539337
Pt       4.21136472       2.41301768      27.01779497        1       0.00088603      -0.01630032      -0.01612453
Pt       7.03421197       2.42293768      26.89738153        1       0.03461858      -0.02109842      -0.00539184
Pt       2.79126990       4.87081564      27.01779364        1      -0.01458234       0.00738022      -0.01612194
Pt       5.62983310       4.87175997      27.01779291        1       0.01366239       0.00891160      -0.01611283
Pt       8.42237389       4.86593373      26.90937622        1       0.00069239      -0.00940018      -0.00031429
O        4.21082332       4.05186278      29.55135414        0       0.00000092       0.00000508       0.03799979
C        4.21082357       4.05186395      28.35093711        0      -0.00000311      -0.00000291       0.02744494
