38
Lattice="8.421641763931781 0.0 0.0 4.2108208819658905 7.293355709136913 0.0 0.0 0.0 46.87624170604845" Properties=species:S:1:pos:R:3:tags:I:1:forces:R:3 charge=0 spin=0 energy=-202.81933402658214 free_energy=-202.81933402658214 stress="0.009625965729355812 -9.053601957020874e-08 4.4544767874299396e-09 -9.053601957020874e-08 0.009625976905226707 -8.173685728252167e-08 4.4544767874299396e-09 -8.173685728252167e-08 -0.00028534463490359485" pbc="T T T"
Pt      -0.00000010      -0.00000005      19.95723451        4      -0.00697342       0.00635470       0.02007134
Pt       2.80721394      -0.00000020      19.95723457        4      -0.00000024       0.00000288       0.02240212
Pt       5.61442787      -0.00000008      19.95723465        4       0.00640592       0.00542653       0.01950024
Pt       1.40360721       2.43111841      19.95723445        4      -0.00790569       0.00284826       0.01954687
Pt       4.21082082       2.43111837      19.95723453        4       0.00898227       0.00287102       0.02010718
Pt       7.01803480       2.43111844      19.95723439        4      -0.00000028       0.00000008      -0.06861618
Pt       2.80721416       4.86223734      19.95723425        4      -0.00000285      -0.00000358       0.01772760
Pt       5.61442796       4.86223739      19.95723443        4       0.00150067      -0.00827480       0.01948103
Pt       8.42164143       4.86223725      19.95723447        4      -0.00200469      -0.00922498       0.02012454
Pt       1.40360729       0.81037262      22.29206795        3      -0.00469461      -0.00407539      -0.06309263
Pt       4.21082131       0.81037249      22.29206793        3      -0.00113913       0.00609667      -0.06308059
Pt       7.01803470       0.81037255      22.29206785        3      -0.00144088       0.06231802      -0.11478096
Pt       2.80721448       3.24149122      22.29206774        3      -0.00414365       0.00290438      -0.02812498
Pt       5.61442764       3.24149121      22.29206791        3       0.05471874      -0.02994904      -0.11478072
Pt       8.42164154       3.24149129      22.29206806        3      -0.05326873      -0.03236317      -0.11476645
Pt       4.21082091       5.67260997      22.29206741        3      -0.00045302      -0.00510884      -0.02836316
Pt       7.01803487       5.67261038      22.29206779        3       0.00583354      -0.00202094      -0.06331853
Pt       9.82524821       5.67261068      22.29206808        3       0.00459122       0.00219189      -0.02834919
Pt      -0.00000053       1.62074567      24.58417372        2      -0.03971284       0.02317373      -0.12042867
Pt       2.80721436       1.62074552      24.58417391        2       0.00432967       0.00170047      -0.02886675
Pt       5.61442781       1.62074537      24.58417374        2       0.04006644       0.02277280      -0.12052216
Pt       1.40360639       4.05186438      24.58417385        2       0.23808749       0.13949884       0.35025078
Pt       4.21082087       4.05186396      24.58417384        2      -0.23976758       0.13655023       0.35021818
Pt       7.01803504       4.05186408      24.58417403        2      -0.00036572      -0.04597616      -0.12027545
Pt       2.80721276       6.48298348      24.58417381        2       0.00173341      -0.27603105       0.35026094
Pt       5.61442804       6.48298329      24.58417396        2      -0.00362004       0.00280924      -0.02862666
Pt       8.42164223       6.48298338      24.58417376        2      -0.00075967      -0.00451168      -0.02866094
Pt       0.01312636       0.02764382      26.90093194        1       0.00014656      -0.00503080      -0.01103253
Pt       2.80721972       0.00000394      26.92038401        1      -0.00001531      -0.00001193      -0.01126320
Pt       5.60078297       0.02691312      26.90176442        1       0.00247281      -0.00370762      -0.00881266
Pt       1.38711198       2.40583645      26.90176316        1       0.00198230       0.00399771      -0.00876387
Pt       4.22819825       2.40593868      26.90089968        1      -0.00444225       0.00238634      -0.01108004
Pt       7.01802782       2.43111514      26.92583458        1       0.00001795       0.00001526       0.00055615
Pt       2.80721416       4.86223725      27.07492639        1      -0.00000443      -0.00000027      -0.00024606
Pt       5.64456392       4.86061121      26.90176263        1      -0.00444425      -0.00028833      -0.00878220
Pt       8.39114181       4.85977213      26.90091261        1       0.00428925       0.00265964      -0.01104899
O        2.80721563       4.86223712      30.08954037        0      -0.00000252      -0.00000085       0.00422543
C        2.80721407       4.86223690      28.92711480        0       0.00000323       0.00000080      -0.00878844
