38
Lattice="8.421641763931781 0.0 0.0 4.2108208819658905 7.293355709136913 0.0 0.0 0.0 46.87624170604845" Properties=species:S:1:pos:R:3:tags:I:1:forces:R:3 charge=0 spin=0 energy=-202.87921142221202 free_energy=-202.87921142221202 stress="0.009736613370478153 0.00026665942277759314 9.7810936949827e-07 0.00026665942277759314 0.010076011531054974 -1.1135799468320329e-05 9.7810936949827e-07 -1.1135799468320329e-05 -0.00035270710941404104" pbc="T T T"
Pt      -0.00000010      -0.00000005      19.95723451        4      -0.00763479       0.00524900       0.02552285
Pt       2.80721394      -0.00000020      19.95723457        4      -0.00163100       0.00162398       0.01977507
Pt       5.61442787      -0.00000008      19.95723465        4      -0.01159071      -0.01585588      -0.00392552
Pt       1.40360721       2.43111841      19.95723445        4      -0.00363478       0.00245452       0.01306436
Pt       4.21082082       2.43111837      19.95723453        4       0.00020691       0.00010157       0.02178669
Pt       7.01803480       2.43111844      19.95723439        4       0.00904607       0.01764016      -0.00634994
Pt       2.80721416       4.86223734      19.95723425        4      -0.00268054      -0.00135054       0.01512424
Pt       5.61442796       4.86223739      19.95723443        4      -0.00162366      -0.00300305       0.01778560
Pt       8.42164143       4.86223725      19.95723447        4       0.00400353      -0.00149808       0.00727761
Pt       1.40360729       0.81037262      22.29206795        3      -0.02318769       0.00984537      -0.02021310
Pt       4.21082131       0.81037249      22.29206793        3       0.04993562      -0.01667758      -0.11157732
Pt       7.01803470       0.81037255      22.29206785        3      -0.07146806       0.03931624      -0.21882872
Pt       2.80721448       3.24149122      22.29206774        3       0.00487974      -0.00461863      -0.00810234
Pt       5.61442764       3.24149121      22.29206791        3       0.04223501      -0.03594246      -0.11214338
Pt       8.42164154       3.24149129      22.29206806        3      -0.03083639      -0.01831655      -0.08307891
Pt       4.21082091       5.67260997      22.29206741        3      -0.01359216       0.00595340      -0.01884932
Pt       7.01803487       5.67261038      22.29206779        3       0.00649171      -0.00223064      -0.06903554
Pt       9.82524821       5.67261068      22.29206808        3       0.00044733       0.03767990      -0.08540118
Pt      -0.00000053       1.62074567      24.58417372        2       0.20208871       0.07856423       0.27079323
Pt       2.80721436       1.62074552      24.58417391        2      -0.11072508       0.07472786       0.14774878
Pt       5.61442781       1.62074537      24.58417374        2       0.04313175      -0.02376899      -0.16017631
Pt       1.40360639       4.05186438      24.58417385        2       0.06631861      -0.03987931       0.16145605
Pt       4.21082087       4.05186396      24.58417384        2      -0.12749058       0.05760516       0.15466666
Pt       7.01803504       4.05186408      24.58417403        2      -0.00560171      -0.03459956      -0.07665073
Pt       2.80721276       6.48298348      24.58417381        2       0.03027195      -0.20083790       0.27102283
Pt       5.61442804       6.48298329      24.58417396        2      -0.00016527       0.00565236      -0.02964228
Pt       8.42164223       6.48298338      24.58417376        2       0.02444556       0.02495277      -0.06895038
Pt       0.01191195      -0.00646043      26.91242891        1      -0.02247783       0.01446447      -0.01707835
Pt       2.81014462      -0.00164889      26.90872617        1       0.00690436      -0.00232573      -0.00049533
Pt       5.63135845      -0.00833537      26.90930820        1       0.00141666       0.00465331      -0.00021257
Pt       1.40543307       2.41938384      27.06507564        1      -0.02644638       0.03157911      -0.01252112
Pt       4.27616856       2.39446963      26.90186200        1      -0.03205462       0.01900879      -0.02578038
Pt       7.03413442       2.42075869      26.90868040        1      -0.00263394      -0.00196088      -0.00050787
Pt       2.81748215       4.86863849      27.06268041        1      -0.04290903      -0.00655016      -0.00201575
Pt       5.61837694       4.86226244      26.90697509        1       0.00817623      -0.00820525      -0.00207349
Pt       8.37850935       4.88620230      26.89056148        1       0.02924235      -0.01496840       0.01070054
O        2.17438369       3.60725576      29.69932433        0       0.00662815      -0.00137952      -0.00955288
C        2.16025036       3.61582919      28.51111042        0       0.00251391       0.00289691       0.00643832
