38
Lattice="8.421641763931781 0.0 0.0 4.2108208819658905 7.293355709136913 0.0 0.0 0.0 46.87624170604845" Properties=species:S:1:pos:R:3:tags:I:1:forces:R:3 charge=0 spin=0 energy=-202.87921142221202 free_energy=-202.87921142221202 stress="0.010221922770142555 1.3775846127828117e-05 9.203495210385881e-06 1.3775846127828117e-05 0.00959074404090643 6.728334938088665e-06 9.203495210385881e-06 6.728334938088665e-06 -0.000352802308043465" pbc="T T T"
Pt      -0.00000010      -0.00000005      19.95723451        4      -0.00072462      -0.00918745       0.02554982
Pt       2.80721394      -0.00000020      19.95723457        4       0.00252236      -0.00161844       0.01510776
Pt       5.61442787      -0.00000008      19.95723465        4      -0.00029422      -0.00435808       0.01301385
Pt       1.40360721       2.43111841      19.95723445        4       0.00341678       0.00007440       0.01775763
Pt       4.21082082       2.43111837      19.95723453        4      -0.00019949       0.00011347       0.02179332
Pt       7.01803480       2.43111844      19.95723439        4      -0.00061996      -0.00222102       0.01975732
Pt       2.80721416       4.86223734      19.95723425        4      -0.01979006      -0.00101477      -0.00631570
Pt       5.61442796       4.86223739      19.95723443        4       0.01951042      -0.00210585      -0.00384698
Pt       8.42164143       4.86223725      19.95723447        4      -0.00069425       0.00417836       0.00724413
Pt       1.40360729       0.81037262      22.29206795        3       0.00168047      -0.01475988      -0.01903870
Pt       4.21082131       0.81037249      22.29206793        3       0.00150094       0.00656971      -0.00831685
Pt       7.01803470       0.81037255      22.29206785        3       0.00303025      -0.02508329      -0.02035443
Pt       2.80721448       3.24149122      22.29206774        3       0.00995109       0.05453299      -0.11212283
Pt       5.61442764       3.24149121      22.29206791        3      -0.01053368       0.05164491      -0.11149177
Pt       8.42164154       3.24149129      22.29206806        3      -0.00133033       0.00670336      -0.06886128
Pt       4.21082091       5.67260997      22.29206741        3       0.00175708      -0.08153527      -0.21877350
Pt       7.01803487       5.67261038      22.29206779        3      -0.03277208      -0.01837138      -0.08527750
Pt       9.82524821       5.67261068      22.29206808        3       0.03126818      -0.01760151      -0.08298943
Pt      -0.00000053       1.62074567      24.58417372        2      -0.00486454      -0.00312452      -0.02959705
Pt       2.80721436       1.62074552      24.58417391        2       0.01398021      -0.13929993       0.15459433
Pt       5.61442781       1.62074537      24.58417374        2      -0.00941836      -0.13335904       0.14779891
Pt       1.40360639       4.05186438      24.58417385        2       0.03286817       0.01248892      -0.07672426
Pt       4.21082087       4.05186396      24.58417384        2      -0.00089298       0.04936367      -0.16025113
Pt       7.01803504       4.05186408      24.58417403        2      -0.03379586       0.00860824      -0.06889759
Pt       2.80721276       6.48298348      24.58417381        2      -0.16923670       0.13590635       0.27081269
Pt       5.61442804       6.48298329      24.58417396        2       0.15875416       0.12669317       0.27105102
Pt       8.42164223       6.48298338      24.58417376        2       0.00133676       0.07740295       0.16149078
Pt      -0.00036186       0.01354497      26.91243126        1      -0.00128563      -0.02670794      -0.01708670
Pt       2.79653545       0.00569116      27.06267883        1       0.02713409      -0.03386052      -0.00200656
Pt       5.62367666       0.00744943      27.06507290        1      -0.01413740      -0.03868860      -0.01249998
Pt       1.40159527       2.43452749      26.90697170        1       0.00293708       0.01116643      -0.00210315
Pt       4.20988557       2.50603822      26.90186222        1      -0.00044463      -0.03727087      -0.02579187
Pt       7.01799917       2.43448333      26.90872728        1      -0.00149395       0.00712608      -0.00048904
Pt       2.80813773       4.88135890      26.90868034        1       0.00304708      -0.00129696      -0.00051688
Pt       5.61319251       4.88106577      26.90931270        1      -0.00463748      -0.00109215      -0.00019010
Pt       8.42245389       4.81290168      26.89056018        1      -0.00165174       0.03283034       0.01071526
O        4.21047251       0.07944194      29.69932171        0      -0.00211742       0.00643934      -0.00925767
C        4.21011443       0.06291978      28.51111261        0      -0.00375957       0.00071478       0.00611436
