38
Lattice="8.421641763931781 0.0 0.0 4.2108208819658905 7.293355709136913 0.0 0.0 0.0 46.87624170604845" Properties=species:S:1:pos:R:3:tags:I:1:forces:R:3 charge=0 spin=0 energy=-202.8798150980543 free_energy=-202.8798150980543 stress="0.009727176278829575 -0.0002611411619000137 1.8413429643260315e-05 -0.0002611411619000137 0.009988418780267239 1.777009674697183e-05 1.8413429643260315e-05 1.777009674697183e-05 -0.00043800738058052957" pbc="T T T"
Pt      -0.00000010      -0.00000005      19.95723451        4       0.01003436      -0.01770997      -0.00684778
Pt       2.80721394      -0.00000020      19.95723457        4      -0.00267290       0.00232870       0.01796458
Pt       5.61442787      -0.00000008      19.95723465        4       0.00752042       0.00321312       0.02542224
Pt       1.40360721       2.43111841      19.95723445        4      -0.00079540      -0.00078888       0.02192729
Pt       4.21082082       2.43111837      19.95723453        4      -0.00042703       0.00258098       0.01510785
Pt       7.01803480       2.43111844      19.95723439        4      -0.00902706       0.01768568      -0.00447056
Pt       2.80721416       4.86223734      19.95723425        4       0.00352350       0.00135645       0.01299373
Pt       5.61442796       4.86223739      19.95723443        4      -0.00408287      -0.00339370       0.00686940
Pt       8.42164143       4.86223725      19.95723447        4       0.00125372      -0.00013189       0.01991733
Pt       1.40360729       0.81037262      22.29206795        3      -0.05586667      -0.01976958      -0.11341647
Pt       4.21082131       0.81037249      22.29206793        3       0.00776621       0.00750376      -0.01666568
Pt       7.01803470       0.81037255      22.29206785        3       0.06824964       0.04176380      -0.21957332
Pt       2.80721448       3.24149122      22.29206774        3      -0.00983617      -0.00368686      -0.00990450
Pt       5.61442764       3.24149121      22.29206791        3       0.02975123      -0.02103989      -0.08314233
Pt       8.42164154       3.24149129      22.29206806        3      -0.04174322      -0.03733943      -0.11228279
Pt       4.21082091       5.67260997      22.29206741        3      -0.00344645       0.03480300      -0.08091801
Pt       7.01803487       5.67261038      22.29206779        3      -0.00863334      -0.00662846      -0.06887218
Pt       9.82524821       5.67261068      22.29206808        3       0.01687300       0.01226140      -0.01822839
Pt      -0.00000053       1.62074567      24.58417372        2      -0.03911187      -0.02268532      -0.18803453
Pt       2.80721436       1.62074552      24.58417391        2       0.13956299       0.08376591       0.13626960
Pt       5.61442781       1.62074537      24.58417374        2      -0.18229486       0.08226018       0.26484177
Pt       1.40360639       4.05186438      24.58417385        2       0.13406636       0.08015553       0.12953348
Pt       4.21082087       4.05186396      24.58417384        2      -0.05845554      -0.03245444       0.14896478
Pt       7.01803504       4.05186408      24.58417403        2       0.01609473      -0.02724927      -0.08015587
Pt       2.80721276       6.48298348      24.58417381        2      -0.02301674      -0.21085705       0.26341209
Pt       5.61442804       6.48298329      24.58417396        2      -0.01914642       0.02408678      -0.08883262
Pt       8.42164223       6.48298338      24.58417376        2       0.01684712       0.00457978      -0.03462864
Pt      -0.00383573       0.00186803      26.90607938        1      -0.00146876      -0.00525865       0.01043207
Pt       2.81495314       0.00236923      26.90358958        1       0.00784044       0.00864386       0.01050663
Pt       5.61736301       0.00209577      26.90885242        1       0.00347264       0.00194047      -0.00840962
Pt       1.35840221       2.40418043      26.88766475        1       0.01296920       0.00780188       0.01918932
Pt       4.22670516       2.43194569      27.06280307        1       0.00218139       0.00346082       0.00019192
Pt       7.01766962       2.42692609      26.90672316        1      -0.00522942       0.00061824       0.01035275
Pt       2.81490074       4.87668110      27.06405374        1       0.00449701      -0.00078486      -0.00060961
Pt       5.66749461       4.89309955      26.88953172        1      -0.01091379      -0.00582679       0.02183166
Pt       8.42936836       4.86678617      26.90576291        1       0.00960099       0.00420475       0.00937871
O        3.49992382       3.64185759      29.70210338        0      -0.01083425      -0.00618116      -0.01757837
C        3.49926197       3.64138805      28.51385205        0      -0.00510211      -0.00322867       0.00746414
