38
Lattice="8.421641763931781 0.0 0.0 4.2108208819658905 7.293355709136913 0.0 0.0 0.0 46.87624170604845" Properties=species:S:1:pos:R:3:tags:I:1:forces:R:3 charge=0 spin=0 energy=-202.8792104685377 free_energy=-202.8792104685377 stress="0.009736631996929646 0.000266660179477185 9.76769911176234e-07 0.000266660179477185 0.010076029226183891 -1.11427098090644e-05 9.76769911176234e-07 -1.11427098090644e-05 -0.0003527450026012957" pbc="T T T"
Pt      -0.00000010      -0.00000005      19.95723451        4       0.00020394       0.00010493       0.02178296
Pt       2.80721394      -0.00000020      19.95723457        4       0.00904685       0.01764353      -0.00635268
Pt       5.61442787      -0.00000008      19.95723465        4      -0.00363491       0.00245546       0.01306154
Pt       1.40360721       2.43111841      19.95723445        4      -0.00162390      -0.00299666       0.01779030
Pt       4.21082082       2.43111837      19.95723453        4       0.00400228      -0.00149529       0.00727844
Pt       7.01803480       2.43111844      19.95723439        4      -0.00267868      -0.00134724       0.01511894
Pt       2.80721416       4.86223734      19.95723425        4      -0.00163346       0.00161775       0.01978311
Pt       5.61442796       4.86223739      19.95723443        4      -0.01159023      -0.01586314      -0.00392764
Pt       8.42164143       4.86223725      19.95723447        4      -0.00763054       0.00524265       0.02552542
Pt       1.40360729       0.81037262      22.29206795        3       0.04223152      -0.03594178      -0.11214221
Pt       4.21082131       0.81037249      22.29206793        3      -0.03084112      -0.01831224      -0.08307956
Pt       7.01803470       0.81037255      22.29206785        3       0.00488640      -0.00462078      -0.00810117
Pt       2.80721448       3.24149122      22.29206774        3       0.00648836      -0.00222351      -0.06904008
Pt       5.61442764       3.24149121      22.29206791        3       0.00044121       0.03769137      -0.08539905
Pt       8.42164154       3.24149129      22.29206806        3      -0.01358396       0.00595304      -0.01886734
Pt       4.21082091       5.67260997      22.29206741        3       0.04993253      -0.01668170      -0.11155805
Pt       7.01803487       5.67261038      22.29206779        3      -0.07147122       0.03931105      -0.21882403
Pt       9.82524821       5.67261068      22.29206808        3      -0.02317737       0.00983336      -0.02021546
Pt      -0.00000053       1.62074567      24.58417372        2      -0.12748779       0.05759689       0.15466957
Pt       2.80721436       1.62074552      24.58417391        2      -0.00560098      -0.03460202      -0.07664955
Pt       5.61442781       1.62074537      24.58417374        2       0.06631078      -0.03987664       0.16146168
Pt       1.40360639       4.05186438      24.58417385        2      -0.00015523       0.00565790      -0.02964100
Pt       4.21082087       4.05186396      24.58417384        2       0.02445462       0.02496432      -0.06895739
Pt       7.01803504       4.05186408      24.58417403        2       0.03025349      -0.20082411       0.27102721
Pt       2.80721276       6.48298348      24.58417381        2      -0.11070881       0.07471674       0.14774555
Pt       5.61442804       6.48298329      24.58417396        2       0.04312736      -0.02377850      -0.16017938
Pt       8.42164223       6.48298338      24.58417376        2       0.20207798       0.07856163       0.27080053
Pt       0.06534608      -0.03664820      26.90186111        1      -0.03204955       0.01900351      -0.02578274
Pt       2.82331274      -0.01035957      26.90868084        1      -0.00263036      -0.00196241      -0.00050880
Pt       5.61625404      -0.01173405      27.06507618        1      -0.02645018       0.03157847      -0.01251813
Pt       1.40755613       2.43114376      26.90697515        1       0.00817350      -0.00820556      -0.00207379
Pt       4.16768902       2.45508317      26.89056160        1       0.02924400      -0.01496817       0.01070080
Pt       7.02830298       2.43751933      27.06268064        1      -0.04291699      -0.00655598      -0.00200205
Pt       2.81014500       4.86058758      26.90872556        1       0.00690281      -0.00232209      -0.00049601
Pt       5.63135823       4.85390190      26.90930763        1       0.00141771       0.00465159      -0.00021713
Pt       8.43355302       4.85577673      26.91243059        1      -0.02247424       0.01446697      -0.01707807
O        6.38520467       1.17613734      29.69932475        0       0.00663155      -0.00137831      -0.00940534
C        6.37107155       1.18470989      28.51111388        0       0.00251260       0.00290517       0.00627051
