38
Lattice="8.421641763931781 0.0 0.0 4.2108208819658905 7.293355709136913 0.0 0.0 0.0 46.87624170604845" Properties=species:S:1:pos:R:3:tags:I:1:forces:R:3 charge=0 spin=0 energy=-202.88602637887706 free_energy=-202.88602637887706 stress="0.009942456148564816 -1.9079099189411863e-08 3.2275762062994318e-09 -1.9079099189411863e-08 0.009942463599145412 -1.882824207655176e-08 3.2275762062994318e-09 -1.882824207655176e-08 -0.0004228598845656961" pbc="T T T"
Pt      -0.00000010      -0.00000005      19.95723451        4      -0.00211996       0.00158445       0.02361910
Pt       2.80721394      -0.00000020      19.95723457        4       0.00242052       0.00100687       0.02361868
Pt       5.61442787      -0.00000008      19.95723465        4       0.00069191      -0.01587758       0.00963572
Pt       1.40360721       2.43111841      19.95723445        4      -0.00176312       0.00275191       0.01080489
Pt       4.21082082       2.43111837      19.95723453        4      -0.01410331       0.00732439       0.00963479
Pt       7.01803480       2.43111844      19.95723439        4       0.01341177       0.00855587       0.00969611
Pt       2.80721416       4.86223734      19.95723425        4      -0.00153971      -0.00289463       0.01079611
Pt       5.61442796       4.86223739      19.95723443        4      -0.00030135      -0.00258937       0.02366009
Pt       8.42164143       4.86223725      19.95723447        4       0.00330369       0.00013822       0.01084715
Pt       1.40360729       0.81037262      22.29206795        3      -0.00362944       0.01224275      -0.02482835
Pt       4.21082131       0.81037249      22.29206793        3       0.05157238       0.03195160      -0.15863833
Pt       7.01803470       0.81037255      22.29206785        3      -0.05349524       0.02876886      -0.15858968
Pt       2.80721448       3.24149122      22.29206774        3       0.02150073      -0.01070224      -0.06294240
Pt       5.61442764       3.24149121      22.29206791        3       0.00192624      -0.06071408      -0.15862958
Pt       8.42164154       3.24149129      22.29206806        3      -0.01993240      -0.01328911      -0.06293037
Pt       4.21082091       5.67260997      22.29206741        3      -0.00880509      -0.00925276      -0.02492941
Pt       7.01803487       5.67261038      22.29206779        3       0.01242563      -0.00299054      -0.02498172
Pt       9.82524821       5.67261068      22.29206808        3      -0.00156003       0.02398551      -0.06305579
Pt      -0.00000053       1.62074567      24.58417372        2       0.09023956       0.04205681       0.11793846
Pt       2.80721436       1.62074552      24.58417391        2      -0.08557870       0.03871606       0.11624780
Pt       5.61442781       1.62074537      24.58417374        2      -0.00000536       0.00000710      -0.21476522
Pt       1.40360639       4.05186438      24.58417385        2       0.00000410       0.00000021       0.13543180
Pt       4.21082087       4.05186396      24.58417384        2      -0.08163659       0.05722883       0.11800946
Pt       7.01803504       4.05186408      24.58417403        2       0.07640955       0.05484214       0.11641342
Pt       2.80721276       6.48298348      24.58417381        2       0.00917403      -0.09356593       0.11623931
Pt       5.61442804       6.48298329      24.58417396        2      -0.00000179      -0.00000249      -0.01609559
Pt       8.42164223       6.48298338      24.58417376        2      -0.00861117      -0.09928374       0.11782456
Pt       0.00283230      -0.00248133      26.90937498        1      -0.00846893       0.00410766      -0.00030776
Pt       2.80364570      -0.00121312      26.90937902        1       0.00779920       0.00528695      -0.00032532
Pt       5.61342235       0.01810241      26.89737970        1       0.00095622       0.04052461      -0.00538296
Pt       1.40415077       2.41301789      27.01779490        1       0.00088754      -0.01629987      -0.01612262
Pt       4.22699788       2.42293766      26.89738079        1       0.03462080      -0.02109841      -0.00539233
Pt       7.00285579       2.42119511      26.89738106        1      -0.03556116      -0.01941294      -0.00539271
Pt       2.82261910       4.87175981      27.01779278        1       0.01366230       0.00891124      -0.01610956
Pt       5.61516030       4.86593370      26.90937572        1       0.00068897      -0.00940058      -0.00031571
Pt       8.40569792       4.87081560      27.01779397        1      -0.01457937       0.00737988      -0.01611475
O        9.82525118       4.05186237      29.55135516        0       0.00000109       0.00000613       0.03785053
C        9.82525111       4.05186394      28.35093769        0      -0.00000364      -0.00000372       0.02758224
