38
Lattice="8.421641763931781 0.0 0.0 4.2108208819658905 7.293355709136913 0.0 0.0 0.0 46.87624170604845" Properties=species:S:1:pos:R:3:tags:I:1:forces:R:3 charge=0 spin=0 energy=-202.81933021188487 free_energy=-202.81933021188487 stress="0.009625970385968685 -9.485660967811782e-08 1.59225843621158e-09 -9.485660967811782e-08 0.009625975042581558 -8.272101581496827e-08 1.59225843621158e-09 -8.272101581496827e-08 -0.00028536460013128817" pbc="T T T"
Pt      -0.00000010      -0.00000005      19.95723451        4       0.00897930       0.00287443       0.02010370
Pt       2.80721394      -0.00000020      19.95723457        4       0.00000064       0.00000351      -0.06861851
Pt       5.61442787      -0.00000008      19.95723465        4      -0.00790630       0.00284912       0.01954414
Pt       1.40360721       2.43111841      19.95723445        4       0.00150057      -0.00826807       0.01948578
Pt       4.21082082       2.43111837      19.95723453        4      -0.00200589      -0.00922225       0.02012564
Pt       7.01803480       2.43111844      19.95723439        4      -0.00000109      -0.00000044       0.01772226
Pt       2.80721416       4.86223734      19.95723425        4      -0.00000258      -0.00000370       0.02241009
Pt       5.61442796       4.86223739      19.95723443        4       0.00640627       0.00541914       0.01949844
Pt       8.42164143       4.86223725      19.95723447        4      -0.00696909       0.00634845       0.02007420
Pt       1.40360729       0.81037262      22.29206795        3       0.05471509      -0.02994767      -0.11477906
Pt       4.21082131       0.81037249      22.29206793        3      -0.05327268      -0.03235829      -0.11476570
Pt       7.01803470       0.81037255      22.29206785        3      -0.00413714       0.00290250      -0.02812432
Pt       2.80721448       3.24149122      22.29206774        3       0.00582997      -0.00201427      -0.06332320
Pt       5.61442764       3.24149121      22.29206791        3       0.00458475       0.00220261      -0.02834672
Pt       8.42164154       3.24149129      22.29206806        3      -0.00044471      -0.00510900      -0.02838175
Pt       4.21082091       5.67260997      22.29206741        3      -0.00114195       0.00609286      -0.06306226
Pt       7.01803487       5.67261038      22.29206779        3      -0.00144459       0.06231279      -0.11477646
Pt       9.82524821       5.67261068      22.29206808        3      -0.00468530      -0.00408702      -0.06309577
Pt      -0.00000053       1.62074567      24.58417372        2      -0.23976274       0.13654180       0.35021853
Pt       2.80721436       1.62074552      24.58417391        2      -0.00036520      -0.04597897      -0.12027360
Pt       5.61442781       1.62074537      24.58417374        2       0.23807755       0.13950168       0.35025415
Pt       1.40360639       4.05186438      24.58417385        2      -0.00360842       0.00281485      -0.02862480
Pt       4.21082087       4.05186396      24.58417384        2      -0.00075128      -0.00450010      -0.02866708
Pt       7.01803504       4.05186408      24.58417403        2       0.00171561      -0.27601528       0.35026461
Pt       2.80721276       6.48298348      24.58417381        2       0.00434487       0.00168852      -0.02887391
Pt       5.61442804       6.48298329      24.58417396        2       0.04006491       0.02276250      -0.12052910
Pt       8.42164223       6.48298338      24.58417376        2      -0.03972381       0.02317002      -0.12042759
Pt       0.01737734      -0.02517964      26.90089886        1      -0.00444078       0.00238394      -0.01107458
Pt       2.80720718      -0.00000336      26.92583511        1       0.00001685       0.00001639       0.00055581
Pt       5.59793291      -0.02528182      26.90176430        1       0.00198276       0.00399513      -0.00876136
Pt       1.43374335       2.42949245      26.90176235        1      -0.00444215      -0.00028666      -0.00878154
Pt       4.18032164       2.42865326      26.90091280        1       0.00428636       0.00266094      -0.01104923
Pt       7.01803492       2.43111858      27.07492483        1      -0.00000297       0.00000185      -0.00016611
Pt       2.80721966       4.86224129      26.92038352        1      -0.00001491      -0.00001266      -0.01126557
Pt       5.60078321       4.88915013      26.90176343        1       0.00247063      -0.00370708      -0.00881661
Pt       8.43476802       4.88988117      26.90093202        1       0.00014747      -0.00503141      -0.01103114
O        7.01803503       2.43111843      30.08954095        0      -0.00000114      -0.00000067       0.00440236
C        7.01803458       2.43111828      28.92711560        0       0.00000140       0.00000087      -0.00904357
