38
Lattice="8.421641763931781 0.0 0.0 4.2108208819658905 7.293355709136913 0.0 0.0 0.0 46.87624170604845" Properties=species:S:1:pos:R:3:tags:I:1:forces:R:3 charge=0 spin=0 energy=-202.8864936792921 free_energy=-202.8864936792921 stress="0.009958181530237198 -2.1825165674727032e-08 3.812478777120987e-09 -2.1825165674727032e-08 0.00995820015668869 -1.6356136001149935e-08 3.812478777120987e-09 -1.6356136001149935e-08 -0.00038516661152243614" pbc="T T T"
Pt      -0.00000010      -0.00000005      19.95723451        4       0.00065157      -0.01597086       0.00951365
Pt       2.80721394      -0.00000020      19.95723457        4      -0.00243099       0.00176187       0.02364813
Pt       5.61442787      -0.00000008      19.95723465        4       0.00273065       0.00118736       0.02364499
Pt       1.40360721       2.43111841      19.95723445        4       0.01351324       0.00857124       0.00957593
Pt       4.21082082       2.43111837      19.95723453        4      -0.00177312       0.00278562       0.01090097
Pt       7.01803480       2.43111844      19.95723439        4      -0.01416672       0.00740496       0.00951603
Pt       2.80721416       4.86223734      19.95723425        4       0.00333380       0.00013021       0.01095027
Pt       5.61442796       4.86223739      19.95723443        4      -0.00156145      -0.00292371       0.01088326
Pt       8.42164143       4.86223725      19.95723447        4      -0.00029651      -0.00294648       0.02369031
Pt       1.40360729       0.81037262      22.29206795        3      -0.05379357       0.02891497      -0.15789437
Pt       4.21082131       0.81037249      22.29206793        3      -0.00374000       0.01227656      -0.02538713
Pt       7.01803470       0.81037255      22.29206785        3       0.05184684       0.03213077      -0.15794581
Pt       2.80721448       3.24149122      22.29206774        3      -0.01996605      -0.01327926      -0.06213756
Pt       5.61442764       3.24149121      22.29206791        3       0.02151663      -0.01072937      -0.06214805
Pt       8.42164154       3.24149129      22.29206806        3       0.00195103      -0.06104217      -0.15793924
Pt       4.21082091       5.67260997      22.29206741        3      -0.00155718       0.02401322      -0.06224240
Pt       7.01803487       5.67261038      22.29206779        3      -0.00877493      -0.00936663      -0.02549748
Pt       9.82524821       5.67261068      22.29206808        3       0.01251835      -0.00291673      -0.02554000
Pt      -0.00000053       1.62074567      24.58417372        2       0.00000420       0.00000512      -0.24438770
Pt       2.80721436       1.62074552      24.58417391        2       0.09445674       0.04356819       0.11799450
Pt       5.61442781       1.62074537      24.58417374        2      -0.08974133       0.04043801       0.11567493
Pt       1.40360639       4.05186438      24.58417385        2       0.07998510       0.05759100       0.11584157
Pt       4.21082087       4.05186396      24.58417384        2      -0.00000040       0.00000506       0.13880821
Pt       7.01803504       4.05186408      24.58417403        2      -0.08505563       0.06013651       0.11807616
Pt       2.80721276       6.48298348      24.58417381        2      -0.00939878      -0.10370693       0.11786831
Pt       5.61442804       6.48298329      24.58417396        2       0.00975560      -0.09803035       0.11567529
Pt       8.42164223       6.48298338      24.58417376        2      -0.00000808      -0.00001198      -0.01335535
Pt      -0.00095357       0.02371125      26.89509243        1       0.00060109      -0.00789009       0.01007080
Pt       2.80846713      -0.00196089      26.90916584        1       0.00455363      -0.00181682      -0.00074215
Pt       5.61209987      -0.00010633      26.90916784        1      -0.00383969      -0.00303484      -0.00074648
Pt       1.38354526       2.41843841      26.89510247        1       0.00653943       0.00446329       0.01004264
Pt       4.21128451       2.41339096      27.01825753        1       0.00056060       0.00283523      -0.00013032
Pt       7.03904414       2.42008789      26.89509863        1      -0.00712954       0.00342041       0.01005453
Pt       2.79163072       4.87069714      27.01825704        1       0.00217232      -0.00189712      -0.00013059
Pt       5.62954922       4.87150266      27.01825630        1      -0.00273504      -0.00093272      -0.00013462
Pt       8.42271617       4.86430135      26.90917361        1      -0.00071636       0.00485679      -0.00076476
O        4.21082519       4.05186398      29.55867400        0      -0.00000285      -0.00000006      -0.00908969
C        4.21082389       4.05186414      28.35819598        0      -0.00000238      -0.00000010       0.00378307
