38
Lattice="8.421641763931781 0.0 0.0 4.2108208819658905 7.293355709136913 0.0 0.0 0.0 46.87624170604845" Properties=species:S:1:pos:R:3:tags:I:1:forces:R:3 charge=0 spin=0 energy=-202.9120645487379 free_energy=-202.9120645487379 stress="0.00998404435813427 6.196720025997138e-09 -2.2849089287291235e-09 6.196720025997138e-09 0.009984062984585762 4.022786015411839e-08 -2.2849089287291235e-09 4.022786015411839e-08 -0.00030093241366557777" pbc="T T T"
Pt      -0.00000010      -0.00000005      19.95723451        4      -0.00110404      -0.00370881       0.01340573
Pt       2.80721394      -0.00000020      19.95723457        4       0.00378149       0.00092434       0.01345853
Pt       5.61442787      -0.00000008      19.95723465        4      -0.00034885       0.00128938       0.01726668
Pt       1.40360721       2.43111841      19.95723445        4      -0.00267887       0.00279254       0.01343747
Pt       4.21082082       2.43111837      19.95723453        4      -0.01525287      -0.00890496       0.01066863
Pt       7.01803480       2.43111844      19.95723439        4       0.01529733      -0.00877281       0.01067735
Pt       2.80721416       4.86223734      19.95723425        4       0.00129223      -0.00037007       0.01721882
Pt       5.61442796       4.86223739      19.95723443        4      -0.00004339       0.01767293       0.01064037
Pt       8.42164143       4.86223725      19.95723447        4      -0.00094340      -0.00092337       0.01727088
Pt       1.40360729       0.81037262      22.29206795        3      -0.00000081       0.00000201      -0.07606129
Pt       4.21082131       0.81037249      22.29206793        3       0.01448575       0.03600265      -0.06512879
Pt       7.01803470       0.81037255      22.29206785        3      -0.00754277       0.03387863      -0.06636907
Pt       2.80721448       3.24149122      22.29206774        3       0.03302194      -0.01040795      -0.06642637
Pt       5.61442764       3.24149121      22.29206791        3       0.00000220      -0.00000045      -0.27931529
Pt       8.42164154       3.24149129      22.29206806        3      -0.03834305      -0.00538420      -0.06507564
Pt       4.21082091       5.67260997      22.29206741        3       0.02385684      -0.03061059      -0.06510720
Pt       7.01803487       5.67261038      22.29206779        3      -0.02548940      -0.02346850      -0.06645621
Pt       9.82524821       5.67261068      22.29206808        3       0.00000922      -0.00001088      -0.01061261
Pt      -0.00000053       1.62074567      24.58417372        2      -0.02529100       0.01192118      -0.05028150
Pt       2.80721436       1.62074552      24.58417391        2       0.02304167       0.01597775      -0.05033801
Pt       5.61442781       1.62074537      24.58417374        2      -0.00141011      -0.10707767       0.12827776
Pt       1.40360639       4.05186438      24.58417385        2       0.00036652       0.06672279       0.15598704
Pt       4.21082087       4.05186396      24.58417384        2      -0.09206720       0.05485298       0.12830383
Pt       7.01803504       4.05186408      24.58417403        2       0.09346190       0.05225300       0.12831362
Pt       2.80721276       6.48298348      24.58417381        2      -0.05797586      -0.03306286       0.15607464
Pt       5.61442804       6.48298329      24.58417396        2       0.00223966      -0.02791111      -0.05021354
Pt       8.42164223       6.48298338      24.58417376        2       0.05763675      -0.03367421       0.15603420
Pt       0.01622916       0.01126756      26.90198486        1       0.03228888       0.01666936      -0.01519126
Pt       2.78934382       0.00841968      26.90198745        1      -0.03059128       0.01963180      -0.01519307
Pt       5.61292668       0.02765812      27.01292631        1      -0.00041006      -0.02873559       0.03321335
Pt       1.40525258       2.41143278      26.90198452        1      -0.00171049      -0.03630008      -0.01518999
Pt       4.21736186       2.43365904      26.91239751        1      -0.02384624      -0.01069333      -0.01477099
Pt       7.01256419       2.43551386      26.91239552        1       0.02119258      -0.01530076      -0.01476599
Pt       2.83191891       4.84970895      27.01293323        1      -0.02467845       0.01472460       0.03318693
Pt       5.61335911       4.85530344      26.91240872        1       0.00264474       0.02600124      -0.01480335
Pt       8.39843645       4.84710916      27.01293320        1       0.02510476       0.01399926       0.03318956
O        9.82524693       5.67261296      29.54890546        0       0.00000115       0.00000001      -0.04361362
C        9.82524634       5.67260997      28.34771488        0       0.00000252       0.00000180      -0.03171157
