38
Lattice="8.421641763931781 0.0 0.0 4.2108208819658905 7.293355709136913 0.0 0.0 0.0 46.87624170604845" Properties=species:S:1:pos:R:3:tags:I:1:forces:R:3 charge=0 spin=0 energy=-202.8193721735548 free_energy=-202.8193721735548 stress="0.009599249809980392 -8.221150693543677e-08 -5.771059186088223e-09 -8.221150693543677e-08 0.00959926936775446 -4.6937543629610445e-08 -5.771059186088223e-09 -4.6937543629610445e-08 -0.0003772459749598056" pbc="T T T"
Pt      -0.00000010      -0.00000005      19.95723451        4      -0.00791117       0.00291344       0.01947842
Pt       2.80721394      -0.00000020      19.95723457        4       0.00897422       0.00291000       0.02002791
Pt       5.61442787      -0.00000008      19.95723465        4       0.00000074       0.00000319      -0.06873877
Pt       1.40360721       2.43111841      19.95723445        4       0.00000014       0.00000242       0.01773099
Pt       4.21082082       2.43111837      19.95723453        4       0.00144944      -0.00830632       0.01942022
Pt       7.01803480       2.43111844      19.95723439        4      -0.00197543      -0.00923587       0.02004937
Pt       2.80721416       4.86223734      19.95723425        4      -0.00700344       0.00632548       0.02000361
Pt       5.61442796       4.86223739      19.95723443        4      -0.00000035      -0.00000491       0.02236832
Pt       8.42164143       4.86223725      19.95723447        4       0.00646653       0.00539169       0.01943735
Pt       1.40360729       0.81037262      22.29206795        3      -0.00409609       0.00278596      -0.02735136
Pt       4.21082131       0.81037249      22.29206793        3       0.05496649      -0.03008333      -0.11474445
Pt       7.01803470       0.81037255      22.29206785        3      -0.05351816      -0.03251108      -0.11472652
Pt       2.80721448       3.24149122      22.29206774        3      -0.00037539      -0.00500951      -0.02760947
Pt       5.61442764       3.24149121      22.29206791        3       0.00582355      -0.00193780      -0.06376304
Pt       8.42164154       3.24149129      22.29206806        3       0.00446316       0.00222728      -0.02758059
Pt       4.21082091       5.67260997      22.29206741        3      -0.00462279      -0.00410031      -0.06351592
Pt       7.01803487       5.67261038      22.29206779        3      -0.00120184       0.00603717      -0.06351742
Pt       9.82524821       5.67261068      22.29206808        3      -0.00143987       0.06259315      -0.11474415
Pt      -0.00000053       1.62074567      24.58417372        2       0.24015574       0.14027919       0.34261927
Pt       2.80721436       1.62074552      24.58417391        2      -0.24148922       0.13795142       0.34257698
Pt       5.61442781       1.62074537      24.58417374        2      -0.00065895      -0.04906730      -0.12490317
Pt       1.40360639       4.05186438      24.58417385        2       0.00138493      -0.27820835       0.34261203
Pt       4.21082087       4.05186396      24.58417384        2      -0.00356736       0.00195209      -0.03596780
Pt       7.01803504       4.05186408      24.58417403        2      -0.00004055      -0.00403247      -0.03601618
Pt       2.80721276       6.48298348      24.58417381        2      -0.04223814       0.02497569      -0.12507659
Pt       5.61442804       6.48298329      24.58417396        2       0.00354434       0.00208361      -0.03622304
Pt       8.42164223       6.48298338      24.58417376        2       0.04290348       0.02406477      -0.12517922
Pt      -0.01702917      -0.02437537      26.89993701        1       0.00272091      -0.00136530      -0.00177608
Pt       2.82439104      -0.02463065      26.89839236        1      -0.00285227      -0.00176122      -0.00166933
Pt       5.61442720      -0.00000229      26.92751957        1      -0.00000261       0.00002250      -0.00440081
Pt       1.40360758       2.43111807      27.07456162        1       0.00000102       0.00000723      -0.04866963
Pt       4.24043630       2.42857124      26.89993283        1      -0.00013954       0.00304626      -0.00179365
Pt       6.98811340       2.42855199      26.89841416        1      -0.00012409       0.00335862      -0.00167523
Pt       2.81996255       4.88943904      26.89843373        1       0.00295747      -0.00161015      -0.00165106
Pt       5.61442940       4.86224049      26.91800369        1       0.00000194      -0.00002185      -0.00407227
Pt       8.40905299       4.88916287      26.89992341        1      -0.00255668      -0.00167542      -0.00178365
O        1.40360740       2.43111814      30.08662326        0      -0.00000051       0.00000019       0.02621028
C        1.40360715       2.43111838      28.92432871        0       0.00000055      -0.00000033       0.02461486
