38
Lattice="8.421641763931781 0.0 0.0 4.2108208819658905 7.293355709136913 0.0 0.0 0.0 46.87624170604845" Properties=species:S:1:pos:R:3:tags:I:1:forces:R:3 charge=0 spin=0 energy=-202.87921142221202 free_energy=-202.87921142221202 stress="0.009736627340316772 0.0002666560758370906 9.771961231308524e-07 0.0002666560758370906 0.010076017118990421 -1.1138125955767464e-05 9.771961231308524e-07 -1.1138125955767464e-05 -0.0003526198852341622" pbc="T T T"
Pt      -0.00000010      -0.00000005      19.95723451        4       0.00020381       0.00010490       0.02178310
Pt       2.80721394      -0.00000020      19.95723457        4       0.00904684       0.01764343      -0.00635261
Pt       5.61442787      -0.00000008      19.95723465        4      -0.00363488       0.00245557       0.01306152
Pt       1.40360721       2.43111841      19.95723445        4      -0.00162416      -0.00299651       0.01779047
Pt       4.21082082       2.43111837      19.95723453        4       0.00400251      -0.00149534       0.00727861
Pt       7.01803480       2.43111844      19.95723439        4      -0.00267864      -0.00134734       0.01511906
Pt       2.80721416       4.86223734      19.95723425        4      -0.00163366       0.00161763       0.01978319
Pt       5.61442796       4.86223739      19.95723443        4      -0.01159042      -0.01586315      -0.00392753
Pt       8.42164143       4.86223725      19.95723447        4      -0.00763051       0.00524270       0.02552544
Pt       1.40360729       0.81037262      22.29206795        3       0.04223159      -0.03594142      -0.11214229
Pt       4.21082131       0.81037249      22.29206793        3      -0.03084110      -0.01831198      -0.08307946
Pt       7.01803470       0.81037255      22.29206785        3       0.00488642      -0.00462084      -0.00810085
Pt       2.80721448       3.24149122      22.29206774        3       0.00648866      -0.00222383      -0.06904015
Pt       5.61442764       3.24149121      22.29206791        3       0.00044119       0.03769081      -0.08539876
Pt       8.42164154       3.24149129      22.29206806        3      -0.01358373       0.00595346      -0.01886659
Pt       4.21082091       5.67260997      22.29206741        3       0.04993273      -0.01668181      -0.11155844
Pt       7.01803487       5.67261038      22.29206779        3      -0.07147138       0.03931136      -0.21882451
Pt       9.82524821       5.67261068      22.29206808        3      -0.02317771       0.00983370      -0.02021517
Pt      -0.00000053       1.62074567      24.58417372        2      -0.12748893       0.05759734       0.15467216
Pt       2.80721436       1.62074552      24.58417391        2      -0.00560157      -0.03460201      -0.07664772
Pt       5.61442781       1.62074537      24.58417374        2       0.06631145      -0.03987616       0.16146174
Pt       1.40360639       4.05186438      24.58417385        2      -0.00015539       0.00565803      -0.02964008
Pt       4.21082087       4.05186396      24.58417384        2       0.02445400       0.02496476      -0.06895515
Pt       7.01803504       4.05186408      24.58417403        2       0.03025394      -0.20082514       0.27102816
Pt       2.80721276       6.48298348      24.58417381        2      -0.11070848       0.07471714       0.14774624
Pt       5.61442804       6.48298329      24.58417396        2       0.04312770      -0.02377876      -0.16017927
Pt       8.42164223       6.48298338      24.58417376        2       0.20207845       0.07856120       0.27079895
Pt       0.06534685      -0.03664872      26.90186183        1      -0.03205152       0.01900509      -0.02578273
Pt       2.82331348      -0.01035984      26.90868024        1      -0.00263529      -0.00195926      -0.00050931
Pt       5.61625417      -0.01173353      27.06507724        1      -0.02645450       0.03156462      -0.01252491
Pt       1.40755551       2.43114401      26.90697525        1       0.00817571      -0.00820692      -0.00207495
Pt       4.16768884       2.45508326      26.89056161        1       0.02924110      -0.01496658       0.01070016
Pt       7.02830228       2.43751890      27.06268243        1      -0.04290409      -0.00654118      -0.00202077
Pt       2.81014414       4.86058809      26.90872556        1       0.00690550      -0.00232355      -0.00049803
Pt       5.63135898       4.85390134      26.90930777        1       0.00141337       0.00465399      -0.00021724
Pt       8.43355308       4.85577668      26.91242953        1      -0.02247352       0.01446530      -0.01707773
O        6.38520515       1.17613686      29.69932688        0       0.00662740      -0.00137876      -0.00971403
C        6.37107146       1.18470997      28.51111243        0       0.00251708       0.00289965       0.00659952
