38
Lattice="8.421641763931781 0.0 0.0 4.2108208819658905 7.293355709136913 0.0 0.0 0.0 46.87624170604845" Properties=species:S:1:pos:R:3:tags:I:1:forces:R:3 charge=0 spin=0 energy=-202.87920760751476 free_energy=-202.87920760751476 stress="0.009736631996929646 0.00026666512712836266 9.748054026204045e-07 0.00026666512712836266 0.010076032020151615 -1.114007318392396e-05 9.748054026204045e-07 -1.114007318392396e-05 -0.00035280032898299396" pbc="T T T"
Pt      -0.00000010      -0.00000005      19.95723451        4      -0.00363584       0.00245577       0.01305995
Pt       2.80721394      -0.00000020      19.95723457        4       0.00020479       0.00010497       0.02178488
Pt       5.61442787      -0.00000008      19.95723465        4       0.00904700       0.01764311      -0.00635285
Pt       1.40360721       2.43111841      19.95723445        4      -0.00267749      -0.00134509       0.01511932
Pt       4.21082082       2.43111837      19.95723453        4      -0.00162211      -0.00299874       0.01778973
Pt       7.01803480       2.43111844      19.95723439        4       0.00399921      -0.00149541       0.00727911
Pt       2.80721416       4.86223734      19.95723425        4      -0.00763652       0.00524246       0.02553277
Pt       5.61442796       4.86223739      19.95723443        4      -0.00163043       0.00161648       0.01977316
Pt       8.42164143       4.86223725      19.95723447        4      -0.01158746      -0.01586200      -0.00392442
Pt       1.40360729       0.81037262      22.29206795        3       0.00488553      -0.00462093      -0.00809904
Pt       4.21082131       0.81037249      22.29206793        3       0.04223108      -0.03593777      -0.11214460
Pt       7.01803470       0.81037255      22.29206785        3      -0.03084077      -0.01831591      -0.08307983
Pt       2.80721448       3.24149122      22.29206774        3      -0.01359479       0.00595589      -0.01886753
Pt       5.61442764       3.24149121      22.29206791        3       0.00649749      -0.00222647      -0.06903875
Pt       8.42164154       3.24149129      22.29206806        3       0.00044299       0.03769135      -0.08540016
Pt       4.21082091       5.67260997      22.29206741        3      -0.02319056       0.00984487      -0.02019665
Pt       7.01803487       5.67261038      22.29206779        3       0.04993365      -0.01668640      -0.11157311
Pt       9.82524821       5.67261068      22.29206808        3      -0.07145917       0.03930368      -0.21882817
Pt      -0.00000053       1.62074567      24.58417372        2       0.06631535      -0.03988421       0.16145675
Pt       2.80721436       1.62074552      24.58417391        2      -0.12749235       0.05759988       0.15466930
Pt       5.61442781       1.62074537      24.58417374        2      -0.00560124      -0.03460147      -0.07665095
Pt       1.40360639       4.05186438      24.58417385        2       0.03026502      -0.20082453       0.27102804
Pt       4.21082087       4.05186396      24.58417384        2      -0.00016280       0.00566345      -0.02964025
Pt       7.01803504       4.05186408      24.58417403        2       0.02445048       0.02496306      -0.06895775
Pt       2.80721276       6.48298348      24.58417381        2       0.20209843       0.07855623       0.27079386
Pt       5.61442804       6.48298329      24.58417396        2      -0.11072726       0.07472274       0.14774445
Pt       8.42164223       6.48298338      24.58417376        2       0.04312636      -0.02377904      -0.16017194
Pt       0.00182600      -0.01173543      27.06507439        1      -0.02644122       0.03159166      -0.01250697
Pt       2.87256020      -0.03664811      26.90186134        1      -0.03205063       0.01900614      -0.02578095
Pt       5.63052644      -0.01035938      26.90868137        1      -0.00263357      -0.00196346      -0.00051168
Pt       1.41387554       2.43751933      27.06268020        1      -0.04291862      -0.00656307      -0.00199055
Pt       4.21477059       2.43114336      26.90697529        1       0.00816857      -0.00820415      -0.00207268
Pt       6.97490259       2.45508331      26.89056108        1       0.02924659      -0.01497017       0.01070901
Pt       2.81912584       4.85577692      26.91243085        1      -0.02247951       0.01446455      -0.01708608
Pt       5.61735869       4.86058754      26.90872539        1       0.00690176      -0.00232145      -0.00049550
Pt       8.43857145       4.85390221      26.90930820        1       0.00142564       0.00465005      -0.00021628
O        0.77077643       1.17613710      29.69932408        0       0.00663451      -0.00137920      -0.00925708
C        0.75664410       1.18471041      28.51111408        0       0.00250790       0.00290285       0.00610342
