38
Lattice="8.421641763931781 0.0 0.0 4.2108208819658905 7.293355709136913 0.0 0.0 0.0 46.87624170604845" Properties=species:S:1:pos:R:3:tags:I:1:forces:R:3 charge=0 spin=0 energy=-202.91223716378917 free_energy=-202.91223716378917 stress="0.00991490576416254 6.4916481079535515e-09 7.824401571099315e-09 6.4916481079535515e-09 0.009914920665323734 3.507583912210066e-08 7.824401571099315e-09 3.507583912210066e-08 -0.00044929893920198083" pbc="T T T"
Pt      -0.00000010      -0.00000005      19.95723451        4      -0.01509655      -0.00889206       0.01064085
Pt       2.80721394      -0.00000020      19.95723457        4       0.01520982      -0.00863622       0.01065196
Pt       5.61442787      -0.00000008      19.95723465        4      -0.00268240       0.00254217       0.01324600
Pt       1.40360721       2.43111841      19.95723445        4      -0.00011430       0.01753676       0.01061965
Pt       4.21082082       2.43111837      19.95723453        4      -0.00072739      -0.00061847       0.01699647
Pt       7.01803480       2.43111844      19.95723439        4       0.00092494      -0.00032951       0.01693651
Pt       2.80721416       4.86223734      19.95723425        4       0.00356291       0.00104511       0.01327418
Pt       5.61442796       4.86223739      19.95723443        4      -0.00019521       0.00094303       0.01698693
Pt       8.42164143       4.86223725      19.95723447        4      -0.00088153      -0.00359229       0.01321519
Pt       1.40360729       0.81037262      22.29206795        3      -0.00000099       0.00000070      -0.28188547
Pt       4.21082131       0.81037249      22.29206793        3      -0.03930386      -0.00576761      -0.06578065
Pt       7.01803470       0.81037255      22.29206785        3       0.03379066      -0.01058883      -0.06688375
Pt       2.80721448       3.24149122      22.29206774        3      -0.02602775      -0.02403298      -0.06692628
Pt       5.61442764       3.24149121      22.29206791        3       0.00000220      -0.00000131      -0.00723106
Pt       8.42164154       3.24149129      22.29206806        3       0.02467770      -0.03125041      -0.06582210
Pt       4.21082091       5.67260997      22.29206741        3       0.01462534       0.03702464      -0.06582054
Pt       7.01803487       5.67261038      22.29206779        3      -0.00777299       0.03462298      -0.06682984
Pt       9.82524821       5.67261068      22.29206808        3       0.00000856      -0.00000911      -0.07234120
Pt      -0.00000053       1.62074567      24.58417372        2      -0.09373640       0.05536648       0.13137737
Pt       2.80721436       1.62074552      24.58417391        2       0.09471974       0.05344625       0.13140774
Pt       5.61442781       1.62074537      24.58417374        2       0.00058003       0.07584274       0.14731884
Pt       1.40360639       4.05186438      24.58417385        2       0.00295745      -0.02852315      -0.08111113
Pt       4.21082087       4.05186396      24.58417384        2       0.06541955      -0.03840113       0.14738853
Pt       7.01803504       4.05186408      24.58417403        2      -0.06597541      -0.03740678       0.14743672
Pt       2.80721276       6.48298348      24.58417381        2       0.02323835       0.01690549      -0.08128801
Pt       5.61442804       6.48298329      24.58417396        2      -0.00099699      -0.10879516       0.13135003
Pt       8.42164223       6.48298338      24.58417376        2      -0.02620406       0.01156926      -0.08119619
Pt      -0.00162792      -0.00145843      26.90726152        1       0.02674782       0.01730757      -0.00429539
Pt       2.80931853      -0.00068612      26.90727357        1      -0.02845204       0.01451409      -0.00432959
Pt       5.61502843      -0.01796506      26.89432726        1       0.00196944      -0.03846122       0.01697456
Pt       1.40315185       2.43327325      26.90728893        1       0.00164074      -0.03185881      -0.00437017
Pt       4.19044101       2.41676217      27.01639028        1      -0.02167066      -0.00955896       0.00068546
Pt       7.04065134       2.42065870      27.01639530        1       0.01916553      -0.01402210       0.00065341
Pt       2.79134330       4.87070811      26.89433445        1      -0.03423747       0.01750525       0.01694132
Pt       5.61218024       4.88705975      27.01639070        1       0.00253765       0.02359527       0.00066966
Pt       8.43690525       4.87173137      26.89435422        1       0.03230764       0.02097491       0.01688109
O        5.61442418       3.24149245      29.54615957        0      -0.00001024      -0.00000041       0.00917837
C        5.61442300       3.24149188      28.34500032        0       0.00000029       0.00000371      -0.00471911
