38
Lattice="8.421641763931781 0.0 0.0 4.2108208819658905 7.293355709136913 0.0 0.0 0.0 46.87624170604845" Properties=species:S:1:pos:R:3:tags:I:1:forces:R:3 charge=0 spin=0 energy=-202.8194007837843 free_energy=-202.8194007837843 stress="0.009595608338713646 -8.369800497121105e-08 -5.473490549690041e-09 -8.369800497121105e-08 0.009595624171197414 -4.527362307271687e-08 -5.473490549690041e-09 -4.527362307271687e-08 -0.0003313942579552531" pbc="T T T"
Pt      -0.00000010      -0.00000005      19.95723451        4      -0.00000098       0.00000382       0.01782340
Pt       2.80721394      -0.00000020      19.95723457        4       0.00147654      -0.00833379       0.01937923
Pt       5.61442787      -0.00000008      19.95723465        4      -0.00200338      -0.00926279       0.02001574
Pt       1.40360721       2.43111841      19.95723445        4      -0.00701235       0.00637074       0.01996746
Pt       4.21082082       2.43111837      19.95723453        4       0.00000142      -0.00000078       0.02237239
Pt       7.01803480       2.43111844      19.95723439        4       0.00647464       0.00543551       0.01939937
Pt       2.80721416       4.86223734      19.95723425        4      -0.00795485       0.00289667       0.01944872
Pt       5.61442796       4.86223739      19.95723443        4       0.00901550       0.00289287       0.01999464
Pt       8.42164143       4.86223725      19.95723447        4       0.00000392      -0.00000298      -0.06854629
Pt       1.40360729       0.81037262      22.29206795        3      -0.00035019      -0.00505516      -0.02772069
Pt       4.21082131       0.81037249      22.29206793        3       0.00584297      -0.00194209      -0.06354884
Pt       7.01803470       0.81037255      22.29206785        3       0.00448592       0.00226615      -0.02769406
Pt       2.80721448       3.24149122      22.29206774        3      -0.00464521      -0.00411332      -0.06331870
Pt       5.61442764       3.24149121      22.29206791        3      -0.00119953       0.00606560      -0.06330573
Pt       8.42164154       3.24149129      22.29206806        3      -0.00145644       0.06240084      -0.11424628
Pt       4.21082091       5.67260997      22.29206741        3      -0.00414508       0.00279075      -0.02745212
Pt       7.01803487       5.67261038      22.29206779        3       0.05479303      -0.02997917      -0.11424324
Pt       9.82524821       5.67261068      22.29206808        3      -0.05332662      -0.03243036      -0.11423150
Pt      -0.00000053       1.62074567      24.58417372        2       0.00130520      -0.28040513       0.34524706
Pt       2.80721436       1.62074552      24.58417391        2      -0.00343176       0.00199892      -0.03853660
Pt       5.61442781       1.62074537      24.58417374        2      -0.00014978      -0.00393109      -0.03858988
Pt       1.40360639       4.05186438      24.58417385        2      -0.04300036       0.02552821      -0.12852760
Pt       4.21082087       4.05186396      24.58417384        2       0.00351747       0.00194589      -0.03879609
Pt       7.01803504       4.05186408      24.58417403        2       0.04375968       0.02445316      -0.12864362
Pt       2.80721276       6.48298348      24.58417381        2       0.24210623       0.14130107       0.34524298
Pt       5.61442804       6.48298329      24.58417396        2      -0.24335395       0.13911194       0.34519652
Pt       8.42164223       6.48298338      24.58417376        2      -0.00075776      -0.05000693      -0.12837332
Pt      -0.00000019       0.00000004      27.07653792        1       0.00000342       0.00000081      -0.00619774
Pt       2.83755037      -0.00223704      26.89926248        1      -0.00833012       0.00134194       0.00156380
Pt       5.58381884      -0.00237068      26.89771370        1       0.00797218       0.00200871       0.00183394
Pt       1.41686668       2.45881325      26.89773506        1      -0.00224574      -0.00790847       0.00183963
Pt       4.21082283       2.43111908      26.91822710        1      -0.00000292      -0.00000086      -0.00346566
Pt       7.00481757       2.45851033      26.89925483        1       0.00300751      -0.00788515       0.00156206
Pt       2.79009419       4.83708574      26.89926824        1       0.00532662       0.00654562       0.00156492
Pt       5.63177853       4.83691579      26.89769032        1      -0.00572675       0.00589951       0.00183636
Pt       8.42164034       4.86223750      26.92724993        1       0.00000211      -0.00000068      -0.00284596
O        0.00000047      -0.00000024      30.09112939        0       0.00000083      -0.00000140      -0.00757216
C        0.00000035      -0.00000041      28.92857366        0      -0.00000131       0.00000153       0.00156819
