38
Lattice="8.421641763931781 0.0 0.0 4.2108208819658905 7.293355709136913 0.0 0.0 0.0 46.87624170604845" Properties=species:S:1:pos:R:3:tags:I:1:forces:R:3 charge=0 spin=0 energy=-202.88632106424083 free_energy=-202.88632106424083 stress="0.01000885758548975 -2.1054878729387383e-08 1.8441191906859444e-09 -2.1054878729387383e-08 0.010008865967392921 -8.582922816913197e-09 1.8441191906859444e-09 -8.582922816913197e-09 -0.0002950761991087347" pbc="T T T"
Pt      -0.00000010      -0.00000005      19.95723451        4      -0.00248587       0.00173266       0.02371469
Pt       2.80721394      -0.00000020      19.95723457        4       0.00273199       0.00124951       0.02371404
Pt       5.61442787      -0.00000008      19.95723465        4       0.00064477      -0.01587602       0.00965924
Pt       1.40360721       2.43111841      19.95723445        4      -0.00175078       0.00274620       0.01099278
Pt       4.21082082       2.43111837      19.95723453        4      -0.01407726       0.00736391       0.00965884
Pt       7.01803480       2.43111844      19.95723439        4       0.01343323       0.00851436       0.00971923
Pt       2.80721416       4.86223734      19.95723425        4      -0.00154034      -0.00288153       0.01098527
Pt       5.61442796       4.86223739      19.95723443        4      -0.00024706      -0.00298036       0.02375668
Pt       8.42164143       4.86223725      19.95723447        4       0.00329176       0.00013082       0.01103549
Pt       1.40360729       0.81037262      22.29206795        3      -0.00368683       0.01226102      -0.02590382
Pt       4.21082131       0.81037249      22.29206793        3       0.05155908       0.03178945      -0.15754288
Pt       7.01803470       0.81037255      22.29206785        3      -0.05335123       0.02883922      -0.15749362
Pt       2.80721448       3.24149122      22.29206774        3       0.02125412      -0.01056433      -0.06246578
Pt       5.61442764       3.24149121      22.29206791        3       0.00179400      -0.06062068      -0.15753660
Pt       8.42164154       3.24149129      22.29206806        3      -0.01969012      -0.01314148      -0.06245221
Pt       4.21082091       5.67260997      22.29206741        3      -0.00879198      -0.00931043      -0.02600361
Pt       7.01803487       5.67261038      22.29206779        3       0.01246896      -0.00294973      -0.02605371
Pt       9.82524821       5.67261068      22.29206808        3      -0.00155668       0.02370219      -0.06257271
Pt      -0.00000053       1.62074567      24.58417372        2       0.09283604       0.04240225       0.12934436
Pt       2.80721436       1.62074552      24.58417391        2      -0.08745240       0.03870978       0.12689230
Pt       5.61442781       1.62074537      24.58417374        2      -0.00000296       0.00000385      -0.23093075
Pt       1.40360639       4.05186438      24.58417385        2       0.00000364       0.00000073       0.14669602
Pt       4.21082087       4.05186396      24.58417384        2      -0.08323324       0.05930112       0.12942031
Pt       7.01803504       4.05186408      24.58417403        2       0.07734189       0.05647367       0.12704551
Pt       2.80721276       6.48298348      24.58417381        2       0.01011537      -0.09518744       0.12689286
Pt       5.61442804       6.48298329      24.58417396        2      -0.00000302      -0.00000499       0.00365355
Pt       8.42164223       6.48298338      24.58417376        2      -0.00960448      -0.10170701       0.12923571
Pt       0.00116812      -0.00107500      26.91395010        1       0.00695429      -0.00563825      -0.01662415
Pt       2.80569906      -0.00047443      26.91395160        1      -0.00835730      -0.00320472      -0.01662898
Pt       5.61336276       0.02478966      26.89887817        1       0.00086973      -0.01390220      -0.00274151
Pt       1.40509017       2.41236594      27.01984426        1      -0.00252718       0.01112584      -0.00532195
Pt       4.23282333       2.41964387      26.89887731        1      -0.01247829       0.00619949      -0.00274319
Pt       6.99709777       2.41779971      26.89887633        1       0.01160390       0.00770901      -0.00273606
Pt       2.82271316       4.87289730      27.01984188        1      -0.00837004      -0.00775406      -0.00532109
Pt       5.61477463       4.86378517      26.91395166        1       0.00140817       0.00883983      -0.01663004
Pt       8.40466034       4.87032790      27.01984324        1       0.01089745      -0.00336705      -0.00532602
O        9.82525023       4.05186723      29.55952683        0      -0.00000081      -0.00000310      -0.01330867
C        9.82524950       4.05186571      28.35899202        0      -0.00000057      -0.00000152       0.00392028
