38
Lattice="8.421641763931781 0.0 0.0 4.2108208819658905 7.293355709136913 0.0 0.0 0.0 46.87624170604845" Properties=species:S:1:pos:R:3:tags:I:1:forces:R:3 charge=0 spin=0 energy=-202.9122333490919 free_energy=-202.9122333490919 stress="0.009914912283420563 9.309291115755514e-09 6.663857465838419e-09 9.309291115755514e-09 0.009914928115904331 3.5159612110646776e-08 6.663857465838419e-09 3.5159612110646776e-08 -0.00044929207069799304" pbc="T T T"
Pt      -0.00000010      -0.00000005      19.95723451        4      -0.00268330       0.00254238       0.01324422
Pt       2.80721394      -0.00000020      19.95723457        4      -0.01509559      -0.00889198       0.01064261
Pt       5.61442787      -0.00000008      19.95723465        4       0.01520975      -0.00863635       0.01065194
Pt       1.40360721       2.43111841      19.95723445        4       0.00092611      -0.00032707       0.01693666
Pt       4.21082082       2.43111837      19.95723453        4      -0.00011253       0.01753438       0.01061889
Pt       7.01803480       2.43111844      19.95723439        4      -0.00073048      -0.00061848       0.01699711
Pt       2.80721416       4.86223734      19.95723425        4      -0.00088741      -0.00359260       0.01322236
Pt       5.61442796       4.86223739      19.95723443        4       0.00356602       0.00104402       0.01326423
Pt       8.42164143       4.86223725      19.95723447        4      -0.00019230       0.00094432       0.01698994
Pt       1.40360729       0.81037262      22.29206795        3       0.03379003      -0.01058871      -0.06688210
Pt       4.21082131       0.81037249      22.29206793        3      -0.00000128       0.00000471      -0.28188869
Pt       7.01803470       0.81037255      22.29206785        3      -0.03930338      -0.00577142      -0.06578045
Pt       2.80721448       3.24149122      22.29206774        3       0.02466675      -0.03124745      -0.06582242
Pt       5.61442764       3.24149121      22.29206791        3      -0.02601860      -0.02403656      -0.06692490
Pt       8.42164154       3.24149129      22.29206806        3       0.00000382      -0.00000069      -0.00723172
Pt       4.21082091       5.67260997      22.29206741        3      -0.00000413       0.00000234      -0.07232204
Pt       7.01803487       5.67261038      22.29206779        3       0.01462600       0.03702001      -0.06583522
Pt       9.82524821       5.67261068      22.29206808        3      -0.00776069       0.03461564      -0.06683412
Pt      -0.00000053       1.62074567      24.58417372        2       0.00058396       0.07583720       0.14731829
Pt       2.80721436       1.62074552      24.58417391        2      -0.09374236       0.05536935       0.13137813
Pt       5.61442781       1.62074537      24.58417374        2       0.09472115       0.05345020       0.13140827
Pt       1.40360639       4.05186438      24.58417385        2      -0.06596792      -0.03740769       0.14743629
Pt       4.21082087       4.05186396      24.58417384        2       0.00295199      -0.02851906      -0.08111179
Pt       7.01803504       4.05186408      24.58417403        2       0.06541718      -0.03840332       0.14739367
Pt       2.80721276       6.48298348      24.58417381        2      -0.02618296       0.01156477      -0.08120435
Pt       5.61442804       6.48298329      24.58417396        2       0.02322029       0.01691076      -0.08128533
Pt       8.42164223       6.48298338      24.58417376        2      -0.00099964      -0.10879795       0.13135786
Pt       0.00060042      -0.01796526      26.89432646        1       0.00197326      -0.03846114       0.01697021
Pt       2.80558609      -0.00145852      26.90726137        1       0.02674739       0.01730679      -0.00429498
Pt       5.61653226      -0.00068591      26.90727485        1      -0.02845488       0.01451362      -0.00432656
Pt       1.42622407       2.42065892      27.01639499        1       0.01916123      -0.01402152       0.00065254
Pt       4.21036593       2.43327313      26.90728941        1       0.00164155      -0.03185737      -0.00436935
Pt       6.99765428       2.41676210      27.01639065        1      -0.02166686      -0.00955802       0.00068629
Pt       2.82247768       4.87173128      26.89435315        1       0.03230611       0.02097458       0.01688012
Pt       5.59855770       4.87070782      26.89433398        1      -0.03423840       0.01750563       0.01694106
Pt       8.41939382       4.88706009      27.01639181        1       0.00253969       0.02359482       0.00066234
O        8.42163805       3.24149217      29.54615889        0      -0.00001129      -0.00000187       0.00918054
C        8.42163679       3.24149186      28.34500054        0       0.00000197       0.00000399      -0.00471962
