38
Lattice="8.421641763931781 0.0 0.0 4.2108208819658905 7.293355709136913 0.0 0.0 0.0 46.87624170604845" Properties=species:S:1:pos:R:3:tags:I:1:forces:R:3 charge=0 spin=0 energy=-202.87923812509288 free_energy=-202.87923812509288 stress="0.00973307155072689 -0.00026221704320050776 1.939960384333972e-05 -0.00026221704320050776 0.009994963183999062 1.7868094801087864e-05 1.939960384333972e-05 1.7868094801087864e-05 -0.0004239093395881355" pbc="T T T"
Pt      -0.00000010      -0.00000005      19.95723451        4       0.00764145       0.00338510       0.02531193
Pt       2.80721394      -0.00000020      19.95723457        4       0.01053744      -0.01766813      -0.00690346
Pt       5.61442787      -0.00000008      19.95723465        4      -0.00246660       0.00226992       0.01799647
Pt       1.40360721       2.43111841      19.95723445        4      -0.00867786       0.01799668      -0.00431697
Pt       4.21082082       2.43111837      19.95723453        4      -0.00076539      -0.00098007       0.02180732
Pt       7.01803480       2.43111844      19.95723439        4      -0.00059484       0.00261107       0.01516001
Pt       2.80721416       4.86223734      19.95723425        4       0.00146695       0.00007991       0.02006714
Pt       5.61442796       4.86223739      19.95723443        4       0.00340808       0.00123743       0.01298304
Pt       8.42164143       4.86223725      19.95723447        4      -0.00390946      -0.00325754       0.00677799
Pt       1.40360729       0.81037262      22.29206795        3       0.06816766       0.04162517      -0.21911381
Pt       4.21082131       0.81037249      22.29206793        3      -0.05457749      -0.01981274      -0.11278270
Pt       7.01803470       0.81037255      22.29206785        3       0.00862971       0.00716906      -0.01855100
Pt       2.80721448       3.24149122      22.29206774        3      -0.04129351      -0.03629291      -0.11192666
Pt       5.61442764       3.24149121      22.29206791        3      -0.00985956      -0.00399096      -0.01093917
Pt       8.42164154       3.24149129      22.29206806        3       0.02979411      -0.02129693      -0.08309172
Pt       4.21082091       5.67260997      22.29206741        3       0.01728612       0.01271869      -0.02000995
Pt       7.01803487       5.67261038      22.29206779        3      -0.00361994       0.03480361      -0.08114583
Pt       9.82524821       5.67261068      22.29206808        3      -0.00785909      -0.00612652      -0.06918783
Pt      -0.00000053       1.62074567      24.58417372        2      -0.17688225       0.08845773       0.25932223
Pt       2.80721436       1.62074552      24.58417391        2      -0.04356172      -0.02545273      -0.16152370
Pt       5.61442781       1.62074537      24.58417374        2       0.12988745       0.07829673       0.13914719
Pt       1.40360639       4.05186438      24.58417385        2       0.02159482      -0.02965520      -0.06163618
Pt       4.21082087       4.05186396      24.58417384        2       0.12430397       0.07489858       0.13339020
Pt       7.01803504       4.05186408      24.58417403        2      -0.05467263      -0.02983087       0.14000522
Pt       2.80721276       6.48298348      24.58417381        2       0.00386522      -0.00264135      -0.02941133
Pt       5.61442804       6.48298329      24.58417396        2      -0.01486688      -0.20948145       0.25713569
Pt       8.42164223       6.48298338      24.58417376        2      -0.01855162       0.03212348      -0.07001475
Pt       0.00113903       0.00067368      26.90168709        1       0.00527990       0.00521656       0.01927874
Pt       2.79845946      -0.00195171      26.91339873        1       0.02247349       0.01909320      -0.01722866
Pt       5.62375298       0.00595283      26.90958990        1      -0.01276157      -0.01468363      -0.01392901
Pt       1.39724678       2.42585208      26.91368533        1       0.02755700       0.00733088      -0.01657911
Pt       4.16191892       2.40191765      26.88976470        1       0.00431097       0.00548887       0.01180562
Pt       7.03292664       2.43412611      27.05749900        1       0.00019259      -0.01938185       0.00825016
Pt       2.81708148       4.86648764      26.91155361        1      -0.01522276      -0.00126539      -0.01367700
Pt       5.62287774       4.87429179      27.05904578        1      -0.01638064       0.01008116       0.00726126
Pt       8.47514283       4.89512977      26.88914228        1       0.00271787      -0.00278184       0.01742525
O        6.30729269       3.64203450      29.69754490        0      -0.03324379      -0.02023604       0.01377127
C        6.29686069       3.63523024      28.50968064        0       0.03065266       0.01995249      -0.00492759
