38
Lattice="8.421641763931781 0.0 0.0 4.2108208819658905 7.293355709136913 0.0 0.0 0.0 46.87624170604845" Properties=species:S:1:pos:R:3:tags:I:1:forces:R:3 charge=0 spin=0 energy=-202.87920856118907 free_energy=-202.87920856118907 stress="0.009736635722219944 0.00026666512712836266 9.748422371558263e-07 0.00026666512712836266 0.010076034814119339 -1.1142358744109515e-05 9.748422371558263e-07 -1.1142358744109515e-05 -0.00035279730218462646" pbc="T T T"
Pt      -0.00000010      -0.00000005      19.95723451        4      -0.00162541      -0.00299537       0.01778598
Pt       2.80721394      -0.00000020      19.95723457        4       0.00400038      -0.00149176       0.00727685
Pt       5.61442787      -0.00000008      19.95723465        4      -0.00267778      -0.00134409       0.01511658
Pt       1.40360721       2.43111841      19.95723445        4      -0.00163042       0.00162307       0.01977796
Pt       4.21082082       2.43111837      19.95723453        4      -0.01158867      -0.01585893      -0.00392372
Pt       7.01803480       2.43111844      19.95723439        4      -0.00763473       0.00524540       0.02552733
Pt       2.80721416       4.86223734      19.95723425        4       0.00020208       0.00009822       0.02179307
Pt       5.61442796       4.86223739      19.95723443        4       0.00904735       0.01763569      -0.00635456
Pt       8.42164143       4.86223725      19.95723447        4      -0.00363154       0.00244950       0.01306273
Pt       1.40360729       0.81037262      22.29206795        3       0.00649418      -0.00222589      -0.06903740
Pt       4.21082131       0.81037249      22.29206793        3       0.00043759       0.03769517      -0.08540077
Pt       7.01803470       0.81037255      22.29206785        3      -0.01358777       0.00595379      -0.01886644
Pt       2.80721448       3.24149122      22.29206774        3       0.04992982      -0.01667933      -0.11157683
Pt       5.61442764       3.24149121      22.29206791        3      -0.07146563       0.03931430      -0.21882658
Pt       8.42164154       3.24149129      22.29206806        3      -0.02318237       0.00984479      -0.02021539
Pt       4.21082091       5.67260997      22.29206741        3       0.04222793      -0.03594126      -0.11212549
Pt       7.01803487       5.67261038      22.29206779        3      -0.03084344      -0.01832052      -0.08307549
Pt       9.82524821       5.67261068      22.29206808        3       0.00489526      -0.00463271      -0.00810189
Pt      -0.00000053       1.62074567      24.58417372        2      -0.00016004       0.00565565      -0.02963612
Pt       2.80721436       1.62074552      24.58417391        2       0.02445261       0.02496140      -0.06895285
Pt       5.61442781       1.62074537      24.58417374        2       0.03025523      -0.20082003       0.27103254
Pt       1.40360639       4.05186438      24.58417385        2      -0.11071619       0.07472765       0.14774624
Pt       4.21082087       4.05186396      24.58417384        2       0.04313242      -0.02376933      -0.16017865
Pt       7.01803504       4.05186408      24.58417403        2       0.20208190       0.07856867       0.27079841
Pt       2.80721276       6.48298348      24.58417381        2      -0.12747672       0.05758855       0.15466449
Pt       5.61442804       6.48298329      24.58417396        2      -0.00560446      -0.03460820      -0.07665682
Pt       8.42164223       6.48298338      24.58417376        2       0.06630635      -0.03988562       0.16146047
Pt       0.00394951       0.00002550      26.90697553        1       0.00817152      -0.00820565      -0.00207300
Pt       2.76408215       0.02396469      26.89056090        1       0.02924491      -0.01496812       0.01070663
Pt       5.62469636       0.00640189      27.06268063        1      -0.04292027      -0.00656792      -0.00199508
Pt       1.40653790       2.42946894      26.90872598        1       0.00690313      -0.00232069      -0.00049533
Pt       4.22775149       2.42278377      26.90930853        1       0.00141883       0.00464937      -0.00022245
Pt       7.02994576       2.42465824      26.91243136        1      -0.02247493       0.01446592      -0.01708337
Pt       2.87256036       4.82558931      26.90186060        1      -0.03205146       0.01900548      -0.02578275
Pt       5.63052619       4.85187764      26.90868021        1      -0.00262781      -0.00196256      -0.00050918
Pt       8.42346761       4.85050279      27.06507427        1      -0.02644581       0.03158255      -0.01251538
O        9.19241803       6.03837291      29.69932370        0       0.00663056      -0.00137822      -0.00925432
C        9.17828510       6.04694618      28.51111434        0       0.00251352       0.00291078       0.00611054
