38
Lattice="8.421641763931781 0.0 0.0 4.2108208819658905 7.293355709136913 0.0 0.0 0.0 46.87624170604845" Properties=species:S:1:pos:R:3:tags:I:1:forces:R:3 charge=0 spin=0 energy=-202.8798150980543 free_energy=-202.8798150980543 stress="0.010148705914616585 1.7172225852846168e-05 6.280631623667432e-06 1.7172225852846168e-05 0.009566967375576496 -2.518373730708845e-05 6.280631623667432e-06 -2.518373730708845e-05 -0.0004379278398118913" pbc="T T T"
Pt      -0.00000010      -0.00000005      19.95723451        4      -0.02037500       0.00014519      -0.00680702
Pt       2.80721394      -0.00000020      19.95723457        4       0.01982786      -0.00100351      -0.00436341
Pt       5.61442787      -0.00000008      19.95723465        4      -0.00091631       0.00521052       0.00689631
Pt       1.40360721       2.43111841      19.95723445        4      -0.00093955      -0.00809660       0.02545425
Pt       4.21082082       2.43111837      19.95723453        4       0.00248207      -0.00092226       0.01514302
Pt       7.01803480       2.43111844      19.95723439        4      -0.00056588      -0.00373349       0.01292986
Pt       2.80721416       4.86223734      19.95723425        4       0.00333153       0.00112894       0.01792188
Pt       5.61442796       4.86223739      19.95723443        4      -0.00030418       0.00108303       0.02186915
Pt       8.42164143       4.86223725      19.95723447        4      -0.00074866      -0.00099501       0.01984106
Pt       1.40360729       0.81037262      22.29206795        3       0.00208948      -0.08004425      -0.21952730
Pt       4.21082131       0.81037249      22.29206793        3      -0.03296325      -0.01526597      -0.08303531
Pt       7.01803470       0.81037255      22.29206785        3       0.03181135      -0.01441105      -0.08086506
Pt       2.80721448       3.24149122      22.29206774        3       0.00261683      -0.01051829      -0.01683110
Pt       5.61442764       3.24149121      22.29206791        3       0.00171665       0.01041680      -0.01011011
Pt       8.42164154       3.24149129      22.29206806        3       0.00211507      -0.02074925      -0.01830419
Pt       4.21082091       5.67260997      22.29206741        3       0.01076132       0.05830448      -0.11342865
Pt       7.01803487       5.67261038      22.29206779        3      -0.01142953       0.05486073      -0.11218394
Pt       9.82524821       5.67261068      22.29206808        3      -0.00145456       0.01077336      -0.06871686
Pt      -0.00000053       1.62074567      24.58417372        2      -0.17099524       0.12562603       0.26351011
Pt       2.80721436       1.62074552      24.58417391        2       0.16243634       0.11687405       0.26495624
Pt       5.61442781       1.62074537      24.58417374        2       0.00113814       0.06695006       0.14909236
Pt       1.40360639       4.05186438      24.58417385        2      -0.00463170      -0.01696377      -0.03456738
Pt       4.21082087       4.05186396      24.58417384        2       0.00272820      -0.16284192       0.13629501
Pt       7.01803504       4.05186408      24.58417403        2       0.00224140      -0.15619121       0.12954633
Pt       2.80721276       6.48298348      24.58417381        2       0.03053934       0.00441091      -0.08890717
Pt       5.61442804       6.48298329      24.58417396        2       0.00005439       0.04517195      -0.18824087
Pt       8.42164223       6.48298338      24.58417376        2      -0.03172021      -0.00046488      -0.08025050
Pt       0.00356523       0.00239272      26.90605697        1      -0.00391886       0.00390508       0.01042993
Pt       2.80380116       0.00240803      26.90671576        1       0.00316179       0.00424788       0.01037169
Pt       5.61463740      -0.06138321      26.88950814        1       0.00038512       0.01239623       0.02188814
Pt       1.40395188       2.42752368      26.90889263        1      -0.00005083      -0.00396966      -0.00853757
Pt       4.20359439       2.41695679      27.06280377        1       0.00192015      -0.00360696       0.00020481
Pt       7.02670080       2.41725004      27.06405563        1      -0.00294162      -0.00353703      -0.00060635
Pt       2.80533429       4.85433768      26.90360055        1       0.00367560      -0.01108147       0.01047593
Pt       5.61368049       4.91486442      26.88766493        1       0.00029500      -0.01517839       0.01922358
Pt       8.42170804       4.85327292      26.90578862        1      -0.00118560      -0.01043218       0.00937983
O        5.61480026       2.44140488      29.70210375        0       0.00006152       0.01247175      -0.01758946
C        5.61472533       2.44221943      28.51385373        0      -0.00024808       0.00603014       0.00744277
