38
Lattice="8.421641763931781 0.0 0.0 4.2108208819658905 7.293355709136913 0.0 0.0 0.0 46.87624170604845" Properties=species:S:1:pos:R:3:tags:I:1:forces:R:3 charge=0 spin=0 energy=-202.88649654031505 free_energy=-202.88649654031505 stress="0.009958193637430668 -2.1437605468577203e-08 5.363859578721986e-09 -2.1437605468577203e-08 0.009958204813301563 -1.418657902263476e-08 5.363859578721986e-09 -1.418657902263476e-08 -0.000385098421247676" pbc="T T T"
Pt      -0.00000010      -0.00000005      19.95723451        4      -0.00243195       0.00176199       0.02364584
Pt       2.80721394      -0.00000020      19.95723457        4       0.00273067       0.00118775       0.02364514
Pt       5.61442787      -0.00000008      19.95723465        4       0.00065235      -0.01597119       0.00951516
Pt       1.40360721       2.43111841      19.95723445        4      -0.00177467       0.00278768       0.01090167
Pt       4.21082082       2.43111837      19.95723453        4      -0.01416388       0.00740495       0.00951516
Pt       7.01803480       2.43111844      19.95723439        4       0.01351209       0.00856869       0.00957578
Pt       2.80721416       4.86223734      19.95723425        4      -0.00156478      -0.00292275       0.01089316
Pt       5.61442796       4.86223739      19.95723443        4      -0.00029926      -0.00294792       0.02368719
Pt       8.42164143       4.86223725      19.95723447        4       0.00333991       0.00013065       0.01094323
Pt       1.40360729       0.81037262      22.29206795        3      -0.00373958       0.01227286      -0.02538402
Pt       4.21082131       0.81037249      22.29206793        3       0.05184586       0.03213418      -0.15794663
Pt       7.01803470       0.81037255      22.29206785        3      -0.05379264       0.02891522      -0.15789625
Pt       2.80721448       3.24149122      22.29206774        3       0.02150767      -0.01072614      -0.06215055
Pt       5.61442764       3.24149121      22.29206791        3       0.00194944      -0.06104276      -0.15793873
Pt       8.42164154       3.24149129      22.29206806        3      -0.01995556      -0.01328177      -0.06213625
Pt       4.21082091       5.67260997      22.29206741        3      -0.00877522      -0.00936252      -0.02548357
Pt       7.01803487       5.67261038      22.29206779        3       0.01250609      -0.00290958      -0.02553525
Pt       9.82524821       5.67261068      22.29206808        3      -0.00154454       0.02400178      -0.06226031
Pt      -0.00000053       1.62074567      24.58417372        2       0.09446281       0.04356615       0.11799490
Pt       2.80721436       1.62074552      24.58417391        2      -0.08974292       0.04043437       0.11567574
Pt       5.61442781       1.62074537      24.58417374        2      -0.00000090       0.00001004      -0.24438544
Pt       1.40360639       4.05186438      24.58417385        2       0.00000345       0.00000180       0.13880956
Pt       4.21082087       4.05186396      24.58417384        2      -0.08505195       0.06013889       0.11807247
Pt       7.01803504       4.05186408      24.58417403        2       0.07997764       0.05759354       0.11584554
Pt       2.80721276       6.48298348      24.58417381        2       0.00977096      -0.09803548       0.11567619
Pt       5.61442804       6.48298329      24.58417396        2      -0.00000559      -0.00001028      -0.01336053
Pt       8.42164223       6.48298338      24.58417376        2      -0.00941733      -0.10370450       0.11787756
Pt       0.00125258      -0.00196100      26.90916574        1       0.00455728      -0.00181632      -0.00074395
Pt       2.80488627      -0.00010649      26.90916752        1      -0.00384183      -0.00303310      -0.00074817
Pt       5.61347418       0.02371177      26.89509313        1       0.00060077      -0.00789239       0.01006895
Pt       1.40407061       2.41339151      27.01825791        1       0.00056079       0.00282853      -0.00013056
Pt       4.23183061       2.42008761      26.89509832        1      -0.00713117       0.00342071       0.01005400
Pt       6.99797319       2.41843828      26.89510159        1       0.00654105       0.00446412       0.01004367
Pt       2.82233492       4.87150249      27.01825676        1      -0.00273413      -0.00093003      -0.00013304
Pt       5.61550236       4.86430137      26.90917360        1      -0.00071648       0.00485755      -0.00076529
Pt       8.40605878       4.87069705      27.01825842        1       0.00217033      -0.00189476      -0.00013298
O        9.82525325       4.05186360      29.55867531        0      -0.00000298      -0.00000011      -0.00923291
C        9.82525118       4.05186412      28.35819695        0      -0.00000191      -0.00000020       0.00392327
