38
Lattice="8.421641763931781 0.0 0.0 4.2108208819658905 7.293355709136913 0.0 0.0 0.0 46.87624170604845" Properties=species:S:1:pos:R:3:tags:I:1:forces:R:3 charge=0 spin=0 energy=-202.88649463296642 free_energy=-202.88649463296642 stress="0.00995820015668869 -2.2366693386288716e-08 5.199580765946621e-09 -2.2366693386288716e-08 0.009958207607269287 -1.4846241569443919e-08 5.199580765946621e-09 -1.4846241569443919e-08 -0.00038515435880981386" pbc="T T T"
Pt      -0.00000010      -0.00000005      19.95723451        4      -0.00243190       0.00176217       0.02364608
Pt       2.80721394      -0.00000020      19.95723457        4       0.00273057       0.00118787       0.02364504
Pt       5.61442787      -0.00000008      19.95723465        4       0.00065248      -0.01597124       0.00951533
Pt       1.40360721       2.43111841      19.95723445        4      -0.00177476       0.00278777       0.01090167
Pt       4.21082082       2.43111837      19.95723453        4      -0.01416402       0.00740506       0.00951524
Pt       7.01803480       2.43111844      19.95723439        4       0.01351229       0.00856866       0.00957578
Pt       2.80721416       4.86223734      19.95723425        4      -0.00156479      -0.00292268       0.01089306
Pt       5.61442796       4.86223739      19.95723443        4      -0.00029928      -0.00294790       0.02368732
Pt       8.42164143       4.86223725      19.95723447        4       0.00333992       0.00013043       0.01094312
Pt       1.40360729       0.81037262      22.29206795        3      -0.00373963       0.01227279      -0.02538407
Pt       4.21082131       0.81037249      22.29206793        3       0.05184579       0.03213422      -0.15794675
Pt       7.01803470       0.81037255      22.29206785        3      -0.05379274       0.02891517      -0.15789638
Pt       2.80721448       3.24149122      22.29206774        3       0.02150746      -0.01072609      -0.06214986
Pt       5.61442764       3.24149121      22.29206791        3       0.00194921      -0.06104274      -0.15793875
Pt       8.42164154       3.24149129      22.29206806        3      -0.01995532      -0.01328191      -0.06213639
Pt       4.21082091       5.67260997      22.29206741        3      -0.00877486      -0.00936252      -0.02548350
Pt       7.01803487       5.67261038      22.29206779        3       0.01250606      -0.00290958      -0.02553573
Pt       9.82524821       5.67261068      22.29206808        3      -0.00154440       0.02400192      -0.06226016
Pt      -0.00000053       1.62074567      24.58417372        2       0.09446297       0.04356590       0.11799520
Pt       2.80721436       1.62074552      24.58417391        2      -0.08974349       0.04043461       0.11567511
Pt       5.61442781       1.62074537      24.58417374        2      -0.00000048       0.00001021      -0.24438404
Pt       1.40360639       4.05186438      24.58417385        2       0.00000439       0.00000103       0.13880770
Pt       4.21082087       4.05186396      24.58417384        2      -0.08505207       0.06013889       0.11807265
Pt       7.01803504       4.05186408      24.58417403        2       0.07997696       0.05759318       0.11584434
Pt       2.80721276       6.48298348      24.58417381        2       0.00977091      -0.09803547       0.11567564
Pt       5.61442804       6.48298329      24.58417396        2      -0.00000594      -0.00001032      -0.01335947
Pt       8.42164223       6.48298338      24.58417376        2      -0.00941770      -0.10370362       0.11787545
Pt       0.00125217      -0.00196084      26.90916573        1       0.00455944      -0.00181706      -0.00074446
Pt       2.80488660      -0.00010628      26.90916781        1      -0.00384494      -0.00303517      -0.00074881
Pt       5.61347404       0.02371118      26.89509307        1       0.00060321      -0.00788745       0.01006952
Pt       1.40407063       2.41339174      27.01825721        1       0.00056027       0.00282919      -0.00012844
Pt       4.23183009       2.42008785      26.89509825        1      -0.00712786       0.00342024       0.01005438
Pt       6.99797366       2.41843865      26.89510194        1       0.00653804       0.00446164       0.01004365
Pt       2.82233479       4.87150233      27.01825628        1      -0.00273191      -0.00093040      -0.00013194
Pt       5.61550238       4.86430096      26.90917358        1      -0.00071626       0.00486056      -0.00076588
Pt       8.40605901       4.87069690      27.01825772        1       0.00216806      -0.00189654      -0.00012433
O        9.82525327       4.05186361      29.55867661        0      -0.00000452       0.00000044      -0.00909836
C        9.82525124       4.05186408      28.35819754        0      -0.00000121      -0.00000132       0.00378086
