38
Lattice="8.421641763931781 0.0 0.0 4.2108208819658905 7.293355709136913 0.0 0.0 0.0 46.87624170604845" Properties=species:S:1:pos:R:3:tags:I:1:forces:R:3 charge=0 spin=0 energy=-202.91268252969493 free_energy=-202.91268252969493 stress="0.00991794839501381 6.473064306788956e-09 4.579681522898227e-09 6.473064306788956e-09 0.00991795677691698 4.1787131976889214e-08 4.579681522898227e-09 4.1787131976889214e-08 -0.0004364242486190051" pbc="T T T"
Pt      -0.00000010      -0.00000005      19.95723451        4      -0.00030772       0.00117485       0.01723218
Pt       2.80721394      -0.00000020      19.95723457        4      -0.00100909      -0.00365791       0.01328947
Pt       5.61442787      -0.00000008      19.95723465        4       0.00369036       0.00098128       0.01334038
Pt       1.40360721       2.43111841      19.95723445        4       0.01522118      -0.00864511       0.01075765
Pt       4.21082082       2.43111837      19.95723453        4      -0.00267964       0.00268212       0.01332138
Pt       7.01803480       2.43111844      19.95723439        4      -0.01510841      -0.00890090       0.01074861
Pt       2.80721416       4.86223734      19.95723425        4      -0.00087105      -0.00082911       0.01724764
Pt       5.61442796       4.86223739      19.95723443        4       0.00117443      -0.00035063       0.01717722
Pt       8.42164143       4.86223725      19.95723447        4      -0.00011044       0.01754475       0.01072226
Pt       1.40360729       0.81037262      22.29206795        3      -0.00769032       0.03397267      -0.06673465
Pt       4.21082131       0.81037249      22.29206793        3      -0.00000179       0.00000582      -0.07411996
Pt       7.01803470       0.81037255      22.29206785        3       0.01472485       0.03627831      -0.06543300
Pt       2.80721448       3.24149122      22.29206774        3      -0.03871327      -0.00531254      -0.06537879
Pt       5.61442764       3.24149121      22.29206791        3       0.03318668      -0.01033167      -0.06678575
Pt       8.42164154       3.24149129      22.29206806        3       0.00000402       0.00000092      -0.28143728
Pt       4.21082091       5.67260997      22.29206741        3      -0.00000421       0.00000054      -0.00958983
Pt       7.01803487       5.67261038      22.29206779        3       0.02397798      -0.03096373      -0.06542653
Pt       9.82524821       5.67261068      22.29206808        3      -0.02548626      -0.02364898      -0.06682593
Pt      -0.00000053       1.62074567      24.58417372        2      -0.00141863      -0.10812496       0.12026259
Pt       2.80721436       1.62074552      24.58417391        2      -0.02375310       0.01097679      -0.06624755
Pt       5.61442781       1.62074537      24.58417374        2       0.02146607       0.01511097      -0.06630504
Pt       1.40360639       4.05186438      24.58417385        2       0.09436973       0.05276005       0.12029415
Pt       4.21082087       4.05186396      24.58417384        2       0.00032579       0.07095855       0.15456066
Pt       7.01803504       4.05186408      24.58417403        2      -0.09296779       0.05537661       0.12028450
Pt       2.80721276       6.48298348      24.58417381        2       0.06133694      -0.03575728       0.15462434
Pt       5.61442804       6.48298329      24.58417396        2      -0.06163607      -0.03519915       0.15467387
Pt       8.42164223       6.48298338      24.58417376        2       0.00228298      -0.02610115      -0.06615873
Pt      -0.00178421       0.02874689      27.01570410        1      -0.00002008      -0.00747394      -0.00289109
Pt       2.82324831       0.01088058      26.89884894        1       0.02960137       0.01575982      -0.00265421
Pt       5.59699662       0.00844014      26.89885161        1      -0.02847560       0.01777092      -0.00265657
Pt       1.40094733       2.43328070      26.90697069        1       0.00470134      -0.00364719       0.00034137
Pt       4.21223658       2.41179914      26.89883900        1      -0.00117955      -0.03353259      -0.00262319
Pt       7.02124284       2.43234400      26.90697818        1      -0.00552330      -0.00224903       0.00032347
Pt       2.78320493       4.84631666      27.01570291        1       0.00650503       0.00373056      -0.00288302
Pt       5.64021119       4.84941277      27.01570471        1      -0.00644059       0.00374114      -0.00290181
Pt       8.42109161       4.85885184      26.90698522        1       0.00083324       0.00589975       0.00030547
O        4.21081840       5.67261154      29.53989683        0      -0.00000695      -0.00000244       0.01446553
C        4.21081693       5.67261019      28.33849651        0       0.00000182       0.00000213       0.01308008
