38
Lattice="8.421641763931781 0.0 0.0 4.2108208819658905 7.293355709136913 0.0 0.0 0.0 46.87624170604845" Properties=species:S:1:pos:R:3:tags:I:1:forces:R:3 charge=0 spin=0 energy=-202.91206264138927 free_energy=-202.91206264138927 stress="0.009984036907553673 5.463943519856684e-09 -1.51817536320209e-09 5.463943519856684e-09 0.009984055534005165 4.378972917606916e-08 -1.51817536320209e-09 4.378972917606916e-08 -0.000300994812278077" pbc="T T T"
Pt      -0.00000010      -0.00000005      19.95723451        4      -0.00094778      -0.00091684       0.01726840
Pt       2.80721394      -0.00000020      19.95723457        4       0.00129487      -0.00036344       0.01721089
Pt       5.61442787      -0.00000008      19.95723465        4      -0.00004377       0.01768029       0.01064251
Pt       1.40360721       2.43111841      19.95723445        4      -0.00034867       0.00128849       0.01726959
Pt       4.21082082       2.43111837      19.95723453        4      -0.00110110      -0.00371241       0.01340968
Pt       7.01803480       2.43111844      19.95723439        4       0.00378081       0.00092088       0.01346116
Pt       2.80721416       4.86223734      19.95723425        4       0.01529529      -0.00877587       0.01068286
Pt       5.61442796       4.86223739      19.95723443        4      -0.00267849       0.00278596       0.01343304
Pt       8.42164143       4.86223725      19.95723447        4      -0.01525165      -0.00890784       0.01066765
Pt       1.40360729       0.81037262      22.29206795        3      -0.00000067       0.00000101      -0.01061040
Pt       4.21082131       0.81037249      22.29206793        3       0.02385990      -0.03060617      -0.06512540
Pt       7.01803470       0.81037255      22.29206785        3      -0.02548609      -0.02346368      -0.06646045
Pt       2.80721448       3.24149122      22.29206774        3      -0.00754875       0.03388049      -0.06637024
Pt       5.61442764       3.24149121      22.29206791        3       0.00000245       0.00000116      -0.07606186
Pt       8.42164154       3.24149129      22.29206806        3       0.01449047       0.03599821      -0.06512818
Pt       4.21082091       5.67260997      22.29206741        3      -0.03835103      -0.00538394      -0.06505750
Pt       7.01803487       5.67261038      22.29206779        3       0.03302569      -0.01041466      -0.06642207
Pt       9.82524821       5.67261068      22.29206808        3       0.00000829      -0.00001073      -0.27931696
Pt      -0.00000053       1.62074567      24.58417372        2       0.05764556      -0.03367042       0.15603089
Pt       2.80721436       1.62074552      24.58417391        2      -0.05799006      -0.03305286       0.15607803
Pt       5.61442781       1.62074537      24.58417374        2       0.00224295      -0.02790411      -0.05020605
Pt       1.40360639       4.05186438      24.58417385        2      -0.00140346      -0.10708103       0.12827387
Pt       4.21082087       4.05186396      24.58417384        2      -0.02529324       0.01192854      -0.05028598
Pt       7.01803504       4.05186408      24.58417403        2       0.02304129       0.01597955      -0.05033911
Pt       2.80721276       6.48298348      24.58417381        2       0.09347654       0.05224131       0.12831031
Pt       5.61442804       6.48298329      24.58417396        2       0.00035732       0.06671614       0.15598279
Pt       8.42164223       6.48298338      24.58417376        2      -0.09207334       0.05484223       0.12830879
Pt      -0.02320495      -0.01512829      27.01293226        1       0.02510237       0.01400184       0.03319386
Pt       2.83191851      -0.01252799      27.01293273        1      -0.02467970       0.01472505       0.03319431
Pt       5.61335908      -0.00693385      26.91241022        1       0.00264541       0.02600061      -0.01480751
Pt       1.40210598       2.45877638      27.01292522        1      -0.00041142      -0.02873380       0.03320863
Pt       4.22705023       2.44238595      26.90198510        1       0.03228886       0.01667040      -0.01518959
Pt       7.00016441       2.43953818      26.90198727        1      -0.03059116       0.01963031      -0.01519384
Pt       2.80174325       4.86663220      26.91239477        1       0.02119379      -0.01529942      -0.01476762
Pt       5.61607381       4.84255131      26.90198441        1      -0.00171217      -0.03630091      -0.01519025
Pt       8.42818264       4.86477770      26.91239802        1      -0.02384533      -0.01069366      -0.01477076
O        1.40360525       0.81037648      29.54890511        0       0.00000068      -0.00000228      -0.04347230
C        1.40360468       0.81037314      28.34771453        0       0.00000529       0.00000138      -0.03185107
