38
Lattice="8.421641763931781 0.0 0.0 4.2108208819658905 7.293355709136913 0.0 0.0 0.0 46.87624170604845" Properties=species:S:1:pos:R:3:tags:I:1:forces:R:3 charge=0 spin=0 energy=-202.8860282862257 free_energy=-202.8860282862257 stress="0.00994244497269392 -2.1604920519280313e-08 4.721854574007978e-10 -2.1604920519280313e-08 0.009942453354597092 -1.5196391700555978e-08 4.721854574007978e-10 -1.5196391700555978e-08 -0.0004228040634188801" pbc="T T T"
Pt      -0.00000010      -0.00000005      19.95723451        4      -0.00030269      -0.00258173       0.02366039
Pt       2.80721394      -0.00000020      19.95723457        4       0.00330029       0.00014430       0.01084647
Pt       5.61442787      -0.00000008      19.95723465        4      -0.00153678      -0.00288849       0.01078799
Pt       1.40360721       2.43111841      19.95723445        4       0.00242081       0.00100565       0.02362133
Pt       4.21082082       2.43111837      19.95723453        4       0.00069398      -0.01588076       0.00963776
Pt       7.01803480       2.43111844      19.95723439        4      -0.00211977       0.00158090       0.02362351
Pt       2.80721416       4.86223734      19.95723425        4      -0.01410791       0.00732108       0.00964079
Pt       5.61442796       4.86223739      19.95723443        4       0.01341307       0.00855187       0.00969156
Pt       8.42164143       4.86223725      19.95723447        4      -0.00176031       0.00274674       0.01080330
Pt       1.40360729       0.81037262      22.29206795        3       0.01242789      -0.00298586      -0.02498305
Pt       4.21082131       0.81037249      22.29206793        3      -0.00157082       0.02400107      -0.06305563
Pt       7.01803470       0.81037255      22.29206785        3      -0.00880131      -0.00925212      -0.02494741
Pt       2.80721448       3.24149122      22.29206774        3       0.05156674       0.03195049      -0.15863840
Pt       5.61442764       3.24149121      22.29206791        3      -0.05349288       0.02876809      -0.15858872
Pt       8.42164154       3.24149129      22.29206806        3      -0.00362449       0.01224262      -0.02483042
Pt       4.21082091       5.67260997      22.29206741        3       0.00191974      -0.06071249      -0.15861204
Pt       7.01803487       5.67261038      22.29206779        3      -0.01993958      -0.01329293      -0.06292742
Pt       9.82524821       5.67261068      22.29206808        3       0.02151564      -0.01071570      -0.06294131
Pt      -0.00000053       1.62074567      24.58417372        2       0.00000282      -0.00000083      -0.01609204
Pt       2.80721436       1.62074552      24.58417391        2      -0.00860548      -0.09927733       0.11782176
Pt       5.61442781       1.62074537      24.58417374        2       0.00916132      -0.09355183       0.11624797
Pt       1.40360639       4.05186438      24.58417385        2      -0.08556974       0.03871736       0.11624250
Pt       4.21082087       4.05186396      24.58417384        2      -0.00000342       0.00000782      -0.21476983
Pt       7.01803504       4.05186408      24.58417403        2       0.09023254       0.04205944       0.11794017
Pt       2.80721276       6.48298348      24.58417381        2      -0.08162411       0.05721363       0.11800932
Pt       5.61442804       6.48298329      24.58417396        2       0.07640686       0.05483492       0.11641107
Pt       8.42164223       6.48298338      24.58417376        2      -0.00000617      -0.00000495       0.13543640
Pt       0.00073222       0.00369636      26.90937581        1       0.00069083      -0.00940134      -0.00031578
Pt       2.79127068       0.00857812      27.01779457        1      -0.01458904       0.00738496      -0.01612032
Pt       5.62983281       0.00952241      27.01779471        1       0.01367112       0.00891628      -0.01611885
Pt       1.40003859       2.42990503      26.90937896        1       0.00780263       0.00528691      -0.00031997
Pt       4.20981587       2.44922089      26.89737964        1       0.00095592       0.04052608      -0.00538552
Pt       7.02086716       2.42863711      26.90937588        1      -0.00847225       0.00410863      -0.00031136
Pt       2.82339109       4.85405641      26.89738011        1       0.03462119      -0.02109861      -0.00539439
Pt       5.59924865       4.85231379      26.89738062        1      -0.03556120      -0.01941547      -0.00539481
Pt       8.42218534       4.84413702      27.01779613        1       0.00088795      -0.01631079      -0.01612640
O        8.42164389       6.48298069      29.55135562        0      -0.00000066       0.00000512       0.03771970
C        8.42164408       6.48298252      28.35093501        0      -0.00000243      -0.00000265       0.02773137
