32
Lattice="8.421641763931781 0.0 0.0 4.2108208819658905 7.293355709136913 0.0 0.0 0.0 44.584161137365626" Properties=species:S:1:pos:R:3:tags:I:1:forces:R:3 charge=0 spin=0 energy=-161.48146972173186 free_energy=-161.48146972173186 stress="0.012249176390469074 -3.572575224097818e-05 -1.7775653759599663e-05 -3.572575224097818e-05 0.012273777276277542 7.383031515928451e-06 -1.7775653759599663e-05 7.383031515928451e-06 -0.000232254431466572" pbc="T T T"
Pt       1.40360727       0.81037244      19.95766877        3       0.00484157       0.00080224      -0.02300795
Pt       4.21082123       0.81037256      19.95766888        3       0.00756166       0.00144824      -0.02340844
Pt       7.01803445       0.81037243      19.95766851        3       0.00594781       0.00128943      -0.02502603
Pt       2.80721413       3.24149135      19.95766844        3       0.00737754      -0.00024801      -0.02404209
Pt       5.61442751       3.24149134      19.95766853        3       0.00622846      -0.00020779      -0.02355047
Pt       8.42164211       3.24149148      19.95766852        3       0.00530247      -0.00025779      -0.02542101
Pt       4.21082074       5.67261030      19.95766878        3       0.00693739      -0.00137300      -0.02433759
Pt       7.01803477       5.67261047      19.95766871        3       0.00551824      -0.00253394      -0.02290308
Pt       9.82524854       5.67261039      19.95766860        3       0.00665032      -0.00053305      -0.02432158
Pt       0.00000046       1.62074540      22.29208304        2      -0.00444329      -0.00789982       0.01715664
Pt       2.80721419       1.62074531      22.29208311        2      -0.01570462      -0.00332926       0.02765138
Pt       5.61442748       1.62074566      22.29208290        2      -0.01961624      -0.00368614       0.00869959
Pt       1.40360675       4.05186459      22.29208313        2      -0.01191856       0.00227857       0.01908446
Pt       4.21082083       4.05186449      22.29208278        2      -0.01331045       0.00244436       0.02679463
Pt       7.01803481       4.05186460      22.29208288        2      -0.01643811       0.01090397       0.01212364
Pt       2.80721463       6.48298242      22.29208276        2      -0.01129329      -0.00348043       0.02242788
Pt       5.61442775       6.48298327      22.29208278        2      -0.01114843       0.00077843       0.03612834
Pt       8.42164096       6.48298261      22.29208273        2      -0.01764411       0.00242438       0.02256098
Pt      -0.02224063      -0.00070026      24.63223344        1       0.02357472      -0.00055701      -0.00046401
Pt       2.78681754       0.00051457      24.63353507        1      -0.00048284      -0.00292286      -0.00808882
Pt       5.59366827       0.00142322      24.62958396        1       0.00776063      -0.01131186       0.01157098
Pt       1.38361787       2.43304400      24.63104371        1       0.01067674      -0.01514041       0.00742670
Pt       4.19153581       2.43058882      24.63269791        1      -0.00501601       0.00275929      -0.00714426
Pt       6.99841360       2.43185121      24.62563163        1       0.00750807      -0.00421046       0.02474807
Pt       2.78692496       4.86174097      24.63218537        1       0.00910736       0.00551726      -0.00131217
Pt       5.59431123       4.86078071      24.63531373        1       0.00245098       0.01833683      -0.02076124
Pt       8.40084410       4.86191827      24.63032318        1       0.00939981       0.00945637       0.00853753
C        5.63249984       3.25967246      29.33616005        0       0.00222644       0.00012944      -0.01880385
H        5.57863985       4.08665041      30.06062305        0       0.01753325      -0.01545353       0.01175834
H        5.25768309       2.33461183      29.79868654        0      -0.01416567      -0.00496489       0.02334518
H        6.67475436       3.11099747      29.01730506        0       0.02890963       0.01421784       0.01736536
H        5.01802619       3.50398411      28.45789445        0      -0.03433166       0.00532360      -0.02478744
