31
Lattice="8.421641763931781 0.0 0.0 4.2108208819658905 7.293355709136913 0.0 0.0 0.0 44.584161137365626" Properties=species:S:1:pos:R:3:tags:I:1:forces:R:3 energy=-172.60189819335938 free_energy=-172.60189819335938 stress="0.01051889918744564 -1.7064095914065547e-08 -1.537756411096325e-08 -1.7064095914065547e-08 0.010518905706703663 9.52255385655576e-10 -1.537756411096325e-08 9.52255385655576e-10 -1.579208401381038e-05" pbc="T T T"
Pt       1.40360696       0.81037286      20.00000000        3       0.00000117      -0.00000265      -0.00634632
Pt       4.21082088       0.81037286      20.00000000        3      -0.00067203       0.00123269      -0.00134167
Pt       7.01803480       0.81037286      20.00000000        3       0.00067142       0.00123200      -0.00134322
Pt       2.80721392       3.24149143      20.00000000        3       0.00073379      -0.00120176      -0.00134394
Pt       5.61442784       3.24149143      20.00000000        3      -0.00000159      -0.00000013       0.01187199
Pt       8.42164176       3.24149143      20.00000000        3      -0.00073090      -0.00120058      -0.00134405
Pt       4.21082088       5.67261000      20.00000000        3       0.00140809      -0.00003199      -0.00134370
Pt       7.01803480       5.67261000      20.00000000        3      -0.00140859      -0.00003117      -0.00134397
Pt       9.82524872       5.67261000      20.00000000        3      -0.00000118       0.00000258      -0.00860026
Pt      -0.00000000       1.62074571      22.29208057        2      -0.04278433       0.02470172      -0.01080337
Pt       2.80721392       1.62074571      22.29208057        2       0.04278759       0.02470112      -0.01080264
Pt       5.61442784       1.62074571      22.29208057        2      -0.00000340       0.05406208       0.04110377
Pt       1.40360696       4.05186428      22.29208057        2       0.00000119      -0.01915002      -0.03130408
Pt       4.21082088       4.05186428      22.29208057        2       0.04682126      -0.02703225       0.04110439
Pt       7.01803480       4.05186428      22.29208057        2      -0.04682263      -0.02703062       0.04110528
Pt       2.80721392       6.48298285      22.29208057        2       0.01658369       0.00957598      -0.03130622
Pt       5.61442784       6.48298285      22.29208057        2       0.00000005      -0.04940459      -0.01080467
Pt       8.42164176       6.48298285      22.29208057        2      -0.01658379       0.00957852      -0.03130543
Pt       0.00154942       0.00089432      24.57688613        1      -0.00320222      -0.00184859      -0.00631106
Pt       2.80566465       0.00089443      24.57688618        1       0.00320276      -0.00184963      -0.00631961
Pt       5.61442779      -0.00688235      24.57748798        1       0.00000040       0.02060894      -0.00907636
Pt       1.40360711       2.42932954      24.57688624        1      -0.00000058       0.00369721      -0.00631925
Pt       4.19942512       2.42453918      24.59691390        1       0.01708643       0.00986584       0.02064809
Pt       7.02943040       2.42453927      24.59691417        1      -0.01708714       0.00986480       0.02065064
Pt       2.80125379       4.86567834      24.57748814        1       0.01784851      -0.01030523      -0.00907627
Pt       5.61442779       4.87539588      24.59691401        1       0.00000073      -0.01973007       0.02064869
Pt       8.42760185       4.86567842      24.57748828        1      -0.01784872      -0.01030440      -0.00907463
N        5.61442681       3.24149180      27.59227006        0       0.00010818      -0.00001326      -0.02899578
H        5.61442791       4.18641784      27.19286774        0      -0.00000698      -0.02892652       0.00912088
H        6.43275860       2.76902791      27.19286727        0      -0.02510862       0.01449534       0.00915200
H        4.79609804       2.76902839      27.19286777        0       0.02500729       0.01444470       0.00910067
