32
Lattice="8.421641763931781 0.0 0.0 4.2108208819658905 7.293355709136913 0.0 0.0 0.0 44.584161137365626" Properties=species:S:1:pos:R:3:tags:I:1:forces:R:3 charge=0 spin=0 energy=-161.48110160344572 free_energy=-161.48110160344572 stress="0.012317919172346592 -8.234536835516337e-06 4.616106537014275e-07 -8.234536835516337e-06 0.012229454703629017 6.1372634263534565e-06 4.616106537014275e-07 6.1372634263534565e-06 -0.00021381446276791394" pbc="T T T"
Pt       1.40360727       0.81037244      19.95766877        3       0.00212876      -0.01102864      -0.02430085
Pt       4.21082123       0.81037256      19.95766888        3      -0.00087027      -0.00820776      -0.02620815
Pt       7.01803445       0.81037243      19.95766851        3       0.00102769      -0.00726265      -0.02351535
Pt       2.80721413       3.24149135      19.95766844        3       0.00305048      -0.00848412      -0.02444995
Pt       5.61442751       3.24149134      19.95766853        3       0.00136168      -0.00940601      -0.02484957
Pt       8.42164211       3.24149148      19.95766852        3      -0.00152510      -0.00824959      -0.02191491
Pt       4.21082074       5.67261030      19.95766878        3       0.00157519      -0.01002614      -0.02469936
Pt       7.01803477       5.67261047      19.95766871        3       0.00093734      -0.00923473      -0.02522166
Pt       9.82524854       5.67261039      19.95766860        3      -0.00087484      -0.01043223      -0.02322033
Pt       0.00000046       1.62074540      22.29208304        2      -0.01270954       0.02060986       0.02812337
Pt       2.80721419       1.62074531      22.29208311        2      -0.00081710       0.01724109       0.02237231
Pt       5.61442748       1.62074566      22.29208290        2       0.00879567       0.02250845       0.03135621
Pt       1.40360675       4.05186459      22.29208313        2      -0.00737255       0.02732948       0.02327349
Pt       4.21082083       4.05186449      22.29208278        2      -0.01382058       0.01889704       0.01161022
Pt       7.01803481       4.05186460      22.29208288        2       0.01248854       0.00811570       0.02433092
Pt       2.80721463       6.48298242      22.29208276        2      -0.00126626       0.01983908       0.02787006
Pt       5.61442775       6.48298327      22.29208278        2      -0.00546714       0.03110073       0.01341814
Pt       8.42164096       6.48298261      22.29208273        2       0.00342816       0.01443070       0.02975533
Pt      -0.00378027       0.03255279      24.63221261        1       0.00014392      -0.02553393       0.00008537
Pt       2.80574719       0.02618031      24.63058599        1      -0.00899312       0.00781560       0.00362705
Pt       5.61144500       0.03022914      24.63113918        1       0.00262250      -0.01594910       0.00743321
Pt       1.39893266       2.46095941      24.62843231        1       0.01060302      -0.01633678       0.01527583
Pt       4.20876485       2.46022306      24.63001575        1      -0.00837343      -0.01365492       0.00648308
Pt       7.01446759       2.46279541      24.64137758        1       0.00206928      -0.02698114      -0.04146891
Pt       2.80160610       4.89112300      24.63201786        1       0.01057907      -0.00375960       0.00038070
Pt       5.61212518       4.89051126      24.62332395        1      -0.01093985      -0.00237631       0.03826109
Pt       8.41729758       4.89036312      24.63851580        1       0.01170997      -0.00253359      -0.02703226
C        7.02909256       3.97734119      29.46971813        0       0.01251215       0.00601747       0.00196624
H        7.06934939       3.17250572      30.21881088        0      -0.01265605      -0.00811290       0.01300630
H        7.41039651       4.90969684      29.91127184        0       0.00872028       0.02408811       0.02066135
H        5.98994254       4.12644887      29.14172741        0      -0.02345541      -0.00823638      -0.00086287
H        7.65087633       3.70387726      28.60520097        0       0.01538744      -0.01218655      -0.03154567
