31
Lattice="8.421641763931781 0.0 0.0 4.2108208819658905 7.293355709136913 0.0 0.0 0.0 44.584161137365626" Properties=species:S:1:pos:R:3:tags:I:1:forces:R:3 energy=-172.8059844970703 free_energy=-172.8059844970703 stress="0.010280277580022812 -4.541009346326064e-09 1.1209405625933755e-09 -4.541009346326064e-09 0.010280288755893707 5.737933683747087e-09 1.1209405625933755e-09 5.737933683747087e-09 -5.393596802605316e-05" pbc="T T T"
Pt       1.40360696       0.81037286      20.00000000        3       0.00105090       0.00060396      -0.00947282
Pt       4.21082088       0.81037286      20.00000000        3      -0.00104879       0.00060489      -0.00947267
Pt       7.01803480       0.81037286      20.00000000        3      -0.00000179       0.00276118      -0.00425321
Pt       2.80721392       3.24149143      20.00000000        3       0.00000151      -0.00121355      -0.00947395
Pt       5.61442784       3.24149143      20.00000000        3       0.00058962       0.00034128       0.01770380
Pt       8.42164176       3.24149143      20.00000000        3      -0.00059013       0.00034224       0.01770216
Pt       4.21082088       5.67261000      20.00000000        3       0.00239546      -0.00138014      -0.00425261
Pt       7.01803480       5.67261000      20.00000000        3      -0.00000243      -0.00068065       0.01770368
Pt       9.82524872       5.67261000      20.00000000        3      -0.00239386      -0.00137918      -0.00425294
Pt      -0.00000000       1.62074571      22.29208057        2      -0.11650766       0.09124091       0.00165141
Pt       2.80721392       1.62074571      22.29208057        2       0.00000102      -0.00000069      -0.09937733
Pt       5.61442784       1.62074571      22.29208057        2       0.11650727       0.09124202       0.00165105
Pt       1.40360696       4.05186428      22.29208057        2      -0.13726994       0.05527942       0.00165328
Pt       4.21082088       4.05186428      22.29208057        2       0.13727260       0.05527944       0.00165280
Pt       7.01803480       4.05186428      22.29208057        2      -0.00000343       0.00000056       0.08201368
Pt       2.80721392       6.48298285      22.29208057        2       0.00000044      -0.00000083      -0.07234848
Pt       5.61442784       6.48298285      22.29208057        2       0.02076237      -0.14652081       0.00164956
Pt       8.42164176       6.48298285      22.29208057        2      -0.02076329      -0.14651862       0.00165033
Pt      -0.00067042      -0.00038757      24.56074774        1      -0.00382784      -0.00220771       0.01202163
Pt       2.80721390       0.00600159      24.56729942        1       0.00000128       0.04490070       0.00588273
Pt       5.61509854      -0.00038737      24.56074786        1       0.00382712      -0.00220857       0.01202090
Pt       1.40880461       2.42811767      24.56729917        1       0.03888447      -0.02245123       0.00588375
Pt       4.20562336       2.42811769      24.56729911        1      -0.03888442      -0.02245047       0.00588356
Pt       7.01803473       2.40924904      24.61409005        1      -0.00000068       0.00594448       0.00153015
Pt       2.80721398       4.86301160      24.56074848        1       0.00000071       0.00441747       0.01201139
Pt       5.59548811       4.87317195      24.61408924        1       0.00514945      -0.00297333       0.00153024
Pt       8.44058093       4.87317193      24.61409028        1      -0.00515014      -0.00297227       0.00153022
N        7.01803512       4.05186446      26.95105658        0      -0.00000936      -0.00002365       0.00442922
H        7.83794532       4.52523979      26.52528389        0       0.02161852       0.01248384       0.00171124
H        7.01803501       3.10511290      26.52528365        0      -0.00000009      -0.02493909       0.00172244
H        6.19812412       4.52524014      26.52528389        0      -0.02160890       0.01247831       0.00171503
