32
Lattice="8.421641763931781 0.0 0.0 4.2108208819658905 7.293355709136913 0.0 0.0 0.0 44.584161137365626" Properties=species:S:1:pos:R:3:tags:I:1:forces:R:3 charge=0 spin=0 energy=-161.47940406316252 free_energy=-161.47940406316252 stress="0.01238865964114666 -3.49780784745235e-05 2.996733030613541e-07 -3.49780784745235e-05 0.0122841726988554 2.2984433599049225e-05 2.996733030613541e-07 2.2984433599049225e-05 -0.00011363525118213147" pbc="T T T"
Pt       1.40360727       0.81037244      19.95766877        3       0.00633605      -0.00995028      -0.02195522
Pt       4.21082123       0.81037256      19.95766888        3       0.00845264      -0.01050388      -0.02474732
Pt       7.01803445       0.81037243      19.95766851        3       0.00527656      -0.01022755      -0.02532726
Pt       2.80721413       3.24149135      19.95766844        3       0.00953593      -0.01065323      -0.02586339
Pt       5.61442751       3.24149134      19.95766853        3       0.00785783      -0.01320925      -0.02534433
Pt       8.42164211       3.24149148      19.95766852        3       0.00669969      -0.01025536      -0.02627143
Pt       4.21082074       5.67261030      19.95766878        3       0.00767713      -0.01408359      -0.02405933
Pt       7.01803477       5.67261047      19.95766871        3       0.00755598      -0.01422816      -0.02420237
Pt       9.82524854       5.67261039      19.95766860        3       0.00775677      -0.01132811      -0.02686218
Pt       0.00000046       1.62074540      22.29208304        2       0.00002950       0.01329955       0.03398699
Pt       2.80721419       1.62074531      22.29208311        2      -0.02336969       0.01626335       0.04441903
Pt       5.61442748       1.62074566      22.29208290        2      -0.01632896       0.02262860       0.01597665
Pt       1.40360675       4.05186459      22.29208313        2      -0.01427951       0.02090378       0.04447967
Pt       4.21082083       4.05186449      22.29208278        2      -0.02218645       0.03236065       0.03085481
Pt       7.01803481       4.05186460      22.29208288        2      -0.01583839       0.03733140       0.02232813
Pt       2.80721463       6.48298242      22.29208276        2      -0.00982262       0.02174517       0.04409826
Pt       5.61442775       6.48298327      22.29208278        2      -0.01487869       0.02955631       0.04550239
Pt       8.42164096       6.48298261      22.29208273        2      -0.02199486       0.02852258       0.03866392
Pt      -0.02583970       0.03487612      24.63876179        1       0.00714229      -0.00960279      -0.02438986
Pt       2.77781558       0.03431845      24.63939945        1       0.02473847       0.00073620      -0.02820298
Pt       5.58742708       0.04236276      24.63181401        1       0.00947217      -0.04123559       0.00083361
Pt       1.38015644       2.46620718      24.63814786        1       0.00901970      -0.00413031      -0.02304171
Pt       4.18689100       2.46931866      24.63089698        1      -0.00733509      -0.01997082      -0.00130555
Pt       7.00079653       2.46848581      24.62744863        1      -0.02862067      -0.01357155       0.02045917
Pt       2.77683403       4.90056110      24.63701228        1       0.02285151      -0.01568756      -0.02288654
Pt       5.58542685       4.89719757      24.63561029        1       0.01728807      -0.00097301      -0.01618664
Pt       8.39435816       4.90085456      24.63368142        1       0.01763370      -0.01250405      -0.00586432
C        5.43797610       3.12005480      29.42261454        0       0.02093415      -0.02384314       0.02347259
H        6.21288593       3.89965005      29.38019166        0       0.01213358       0.01873534      -0.01870771
H        4.88317057       3.21112962      30.36889812        0      -0.02058307      -0.00537091      -0.00861473
H        5.91438815       2.12913608      29.37132119        0      -0.00002501      -0.00373532       0.00344275
H        4.74814073       3.23730456      28.57378496        0      -0.01312870       0.01298129       0.00531491
