32
Lattice="8.421641763931781 0.0 0.0 4.2108208819658905 7.293355709136913 0.0 0.0 0.0 44.584161137365626" Properties=species:S:1:pos:R:3:tags:I:1:forces:R:3 charge=0 spin=0 energy=-161.48362693303557 free_energy=-161.48362693303557 stress="0.012328319251537323 2.1351914256229065e-05 4.982489372196142e-06 2.1351914256229065e-05 0.012283800169825554 6.65839161229087e-06 4.982489372196142e-06 6.65839161229087e-06 -0.000156044727191329" pbc="T T T"
Pt       1.40360727       0.81037244      19.95766877        3      -0.00508203      -0.00467062      -0.02350386
Pt       4.21082123       0.81037256      19.95766888        3      -0.00382421      -0.00448462      -0.02374175
Pt       7.01803445       0.81037243      19.95766851        3      -0.00408825      -0.00266837      -0.02443602
Pt       2.80721413       3.24149135      19.95766844        3      -0.00419556      -0.00395069      -0.02392313
Pt       5.61442751       3.24149134      19.95766853        3      -0.00277258      -0.00352410      -0.02451100
Pt       8.42164211       3.24149148      19.95766852        3      -0.00620770      -0.00344987      -0.02477841
Pt       4.21082074       5.67261030      19.95766878        3      -0.00301972      -0.00489363      -0.02457321
Pt       7.01803477       5.67261047      19.95766871        3      -0.00455694      -0.00613325      -0.02502779
Pt       9.82524854       5.67261039      19.95766860        3      -0.00583468      -0.00487850      -0.02489760
Pt       0.00000046       1.62074540      22.29208304        2       0.01196330       0.00386097       0.02636900
Pt       2.80721419       1.62074531      22.29208311        2       0.00902524       0.01015801       0.02884467
Pt       5.61442748       1.62074566      22.29208290        2       0.00760182       0.00516602       0.02657409
Pt       1.40360675       4.05186459      22.29208313        2       0.01233586       0.01096456       0.02877364
Pt       4.21082083       4.05186449      22.29208278        2       0.00291915       0.01022558       0.02777892
Pt       7.01803481       4.05186460      22.29208288        2       0.01011009       0.01045658       0.02461803
Pt       2.80721463       6.48298242      22.29208276        2       0.00857689       0.00872944       0.03673958
Pt       5.61442775       6.48298327      22.29208278        2       0.00679525       0.01158006       0.02652288
Pt       8.42164096       6.48298261      22.29208273        2       0.01268917       0.01307667       0.02840330
Pt       0.01443133       0.01450455      24.63422800        1      -0.00886980      -0.00626922      -0.00550968
Pt       2.82117714       0.01393023      24.63195726        1      -0.00417578      -0.00191633      -0.00010174
Pt       5.62792039       0.01447191      24.63429974        1      -0.00123040      -0.00696565      -0.00695677
Pt       1.41718993       2.44596474      24.63217093        1      -0.00049299      -0.00784655      -0.00272359
Pt       4.22545549       2.44577794      24.63228361        1      -0.00956789      -0.00786191      -0.00292646
Pt       7.03219481       2.44461858      24.63137228        1      -0.00525229      -0.00137604      -0.00199092
Pt       2.82109813       4.87634540      24.63414962        1      -0.00328440      -0.00119654      -0.00798149
Pt       5.62748716       4.87691867      24.63171839        1      -0.00095845      -0.00621412      -0.00205057
Pt       8.43631065       4.87701609      24.63255905        1      -0.00698065      -0.00629010      -0.00524263
C        6.97522520       3.99637010      29.55318387        0      -0.00099315       0.00091658       0.00341945
H        7.85565093       4.24747329      30.16456649        0      -0.00351457      -0.00071124      -0.00264266
H        6.12019663       3.78098825      30.21237640        0       0.00401729       0.00030403      -0.00179804
H        7.19652381       3.11169308      28.93721892        0       0.00086214      -0.00507042       0.00135727
H        6.72816907       4.84557722      28.89821893        0      -0.00199454       0.00493307      -0.00008375
