31
Lattice="8.421641763931781 0.0 0.0 4.2108208819658905 7.293355709136913 0.0 0.0 0.0 44.584161137365626" Properties=species:S:1:pos:R:3:tags:I:1:forces:R:3 energy=-172.64501953125 free_energy=-172.64501953125 stress="0.010480817407369614 -3.0031048758871748e-09 -3.3247316011397743e-09 -3.0031048758871748e-09 0.01048082485795021 -2.2772506103052592e-09 -3.3247316011397743e-09 -2.2772506103052592e-09 5.026659437135095e-06" pbc="T T T"
Pt       1.40360696       0.81037286      20.00000000        3       0.00206542       0.00118933      -0.00083387
Pt       4.21082088       0.81037286      20.00000000        3      -0.00206257       0.00119019      -0.00083324
Pt       7.01803480       0.81037286      20.00000000        3      -0.00000261       0.00430147       0.00125399
Pt       2.80721392       3.24149143      20.00000000        3       0.00000132      -0.00238431      -0.00083521
Pt       5.61442784       3.24149143      20.00000000        3       0.00082722       0.00047840       0.03291202
Pt       8.42164176       3.24149143      20.00000000        3      -0.00082758       0.00047894       0.03291082
Pt       4.21082088       5.67261000      20.00000000        3       0.00372980      -0.00215059       0.00125507
Pt       7.01803480       5.67261000      20.00000000        3      -0.00000183      -0.00095489       0.03291169
Pt       9.82524872       5.67261000      20.00000000        3      -0.00372817      -0.00214936       0.00125426
Pt      -0.00000000       1.62074571      22.29208057        2      -0.08613276       0.09566984      -0.01345605
Pt       2.80721392       1.62074571      22.29208057        2       0.00000085      -0.00000147      -0.05686361
Pt       5.61442784       1.62074571      22.29208057        2       0.08613238       0.09567089      -0.01345811
Pt       1.40360696       4.05186428      22.29208057        2      -0.12592115       0.02675831      -0.01345645
Pt       4.21082088       4.05186428      22.29208057        2       0.12592213       0.02675736      -0.01345921
Pt       7.01803480       4.05186428      22.29208057        2      -0.00000223       0.00000014       0.03622627
Pt       2.80721392       6.48298285      22.29208057        2       0.00000040       0.00000161      -0.08502214
Pt       5.61442784       6.48298285      22.29208057        2       0.03978578      -0.12242792      -0.01345868
Pt       8.42164176       6.48298285      22.29208057        2      -0.03978637      -0.12242742      -0.01345835
Pt      -0.00147960      -0.00085448      24.55778835        1      -0.00109009      -0.00063159       0.03598818
Pt       2.80721417       0.00255798      24.58008591        1      -0.00000141       0.02804163       0.00056867
Pt       5.61590757      -0.00085449      24.55778852        1       0.00109150      -0.00063153       0.03598830
Pt       1.40582242       2.42983934      24.58008612        1       0.02428608      -0.01402109       0.00056964
Pt       4.20860569       2.42983911      24.58008517        1      -0.02428694      -0.01401989       0.00056896
Pt       7.01803424       2.40505191      24.63193035        1       0.00000121       0.03446632      -0.01021242
Pt       2.80721408       4.86394581      24.55778924        1       0.00000101       0.00126056       0.03598955
Pt       5.59185395       4.87527002      24.63192942        1       0.02984848      -0.01723099      -0.01020357
Pt       8.44421543       4.87527058      24.63193106        1      -0.02985008      -0.01723390      -0.01020944
N        7.01803464       4.05186388      26.87786989        0       0.00001754       0.00000967       0.01672831
H        7.01803492       4.97111349      26.36492443        0      -0.00000227      -0.01589645      -0.00312185
H        7.81412804       3.59223996      26.36492422        0      -0.01376393       0.00794640      -0.00311628
H        6.22194175       3.59223995      26.36492422        0       0.01374906       0.00794038      -0.00312737
