32
Lattice="8.421641763931781 0.0 0.0 4.2108208819658905 7.293355709136913 0.0 0.0 0.0 44.584161137365626" Properties=species:S:1:pos:R:3:tags:I:1:forces:R:3 charge=0 spin=0 energy=-161.4815994214389 free_energy=-161.4815994214389 stress="0.012243122793734074 2.7457528631202877e-05 6.6401471485733055e-06 2.7457528631202877e-05 0.012299683876335621 2.0374672260459192e-07 6.6401471485733055e-06 2.0374672260459192e-07 -0.0002101610298268497" pbc="T T T"
Pt       1.40360727       0.81037244      19.95766877        3      -0.00762904       0.00696029      -0.02417173
Pt       4.21082123       0.81037256      19.95766888        3      -0.00571947       0.00659927      -0.02405852
Pt       7.01803445       0.81037243      19.95766851        3      -0.00676603       0.00710049      -0.02454527
Pt       2.80721413       3.24149135      19.95766844        3      -0.00682625       0.00466424      -0.02498093
Pt       5.61442751       3.24149134      19.95766853        3      -0.00616449       0.00642598      -0.02491263
Pt       8.42164211       3.24149148      19.95766852        3      -0.00774232       0.00653511      -0.02499387
Pt       4.21082074       5.67261030      19.95766878        3      -0.00492908       0.00495447      -0.02373628
Pt       7.01803477       5.67261047      19.95766871        3      -0.00695558       0.00337828      -0.02326824
Pt       9.82524854       5.67261039      19.95766860        3      -0.00876290       0.00517828      -0.02373036
Pt       0.00000046       1.62074540      22.29208304        2       0.02165969      -0.02210831       0.01759056
Pt       2.80721419       1.62074531      22.29208311        2       0.01340732      -0.00988658       0.02243281
Pt       5.61442748       1.62074566      22.29208290        2       0.01112109      -0.01876127       0.01378554
Pt       1.40360675       4.05186459      22.29208313        2       0.01535184      -0.00782182       0.02735932
Pt       4.21082083       4.05186449      22.29208278        2       0.01475286      -0.00594989       0.03200492
Pt       7.01803481       4.05186460      22.29208288        2       0.01214470      -0.00021099       0.02049650
Pt       2.80721463       6.48298242      22.29208276        2       0.01752216      -0.01264263       0.03025892
Pt       5.61442775       6.48298327      22.29208278        2       0.01032572      -0.01828740       0.03017339
Pt       8.42164096       6.48298261      22.29208273        2       0.02004188      -0.01449903       0.02225447
Pt       0.02378601      -0.01879390      24.63368964        1      -0.01359782       0.00639946      -0.00506095
Pt       2.83009829      -0.01850754      24.62919572        1      -0.01240861       0.01200880       0.01037862
Pt       5.63651271      -0.01868813      24.63235405        1      -0.00393933       0.00649601       0.00154813
Pt       1.42473702       2.41501165      24.63087257        1       0.00259942      -0.00292667       0.00303237
Pt       4.23413942       2.41369920      24.63054280        1      -0.01714777       0.00443068       0.00487558
Pt       7.04027163       2.41415534      24.62598028        1      -0.00651954      -0.00374177       0.02651080
Pt       2.82988122       4.84467687      24.63268161        1      -0.00596489       0.00678551      -0.00048151
Pt       5.63810119       4.84306319      24.63788013        1      -0.01975482       0.01716123      -0.02921408
Pt       8.44320931       4.84381570      24.63501061        1       0.00035364       0.01228634      -0.01295707
C        6.95530320       4.10292119      29.45203945        0       0.00286572      -0.00271457      -0.00976093
H        7.95745274       3.95974879      29.88161561        0       0.02898264       0.00451641       0.02067264
H        6.28850889       4.54184439      30.20897077        0      -0.01192066      -0.00520853       0.01730096
H        6.55729856       3.13101546      29.12600089        0      -0.02481148      -0.02526822       0.00270722
H        7.02026516       4.77807162      28.58687952        0       0.00643130       0.02814708      -0.02751044
