32
Lattice="8.421641763931781 0.0 0.0 4.2108208819658905 7.293355709136913 0.0 0.0 0.0 44.584161137365626" Properties=species:S:1:pos:R:3:tags:I:1:forces:R:3 charge=0 spin=0 energy=-161.48429069035979 free_energy=-161.48429069035979 stress="0.012272912077605724 -3.948719950130908e-06 2.409373109912849e-07 -3.948719950130908e-06 0.01228910032659769 -4.280283860680356e-07 2.409373109912849e-07 -4.280283860680356e-07 -0.000189244223292917" pbc="T T T"
Pt       1.40360727       0.81037244      19.95766877        3       0.00041020       0.00046066      -0.02432207
Pt       4.21082123       0.81037256      19.95766888        3      -0.00002117      -0.00149350      -0.02389716
Pt       7.01803445       0.81037243      19.95766851        3      -0.00074404       0.00056956      -0.02425347
Pt       2.80721413       3.24149135      19.95766844        3      -0.00148091       0.00133721      -0.02394292
Pt       5.61442751       3.24149134      19.95766853        3       0.00134178       0.00127339      -0.02432529
Pt       8.42164211       3.24149148      19.95766852        3      -0.00016015       0.00109279      -0.02449923
Pt       4.21082074       5.67261030      19.95766878        3      -0.00014698      -0.00038893      -0.02406719
Pt       7.01803477       5.67261047      19.95766871        3       0.00050066      -0.00038480      -0.02440237
Pt       9.82524854       5.67261039      19.95766860        3      -0.00063249      -0.00018372      -0.02442506
Pt       0.00000046       1.62074540      22.29208304        2       0.00105774      -0.00025558       0.02676650
Pt       2.80721419       1.62074531      22.29208311        2      -0.00063493      -0.00197377       0.02516324
Pt       5.61442748       1.62074566      22.29208290        2       0.00212709      -0.00080189       0.02550534
Pt       1.40360675       4.05186459      22.29208313        2       0.00362751      -0.00339840       0.02478152
Pt       4.21082083       4.05186449      22.29208278        2      -0.00037821       0.00066929       0.02404194
Pt       7.01803481       4.05186460      22.29208288        2      -0.00383554      -0.00299437       0.02501504
Pt       2.80721463       6.48298242      22.29208276        2      -0.00058135       0.00058689       0.02606327
Pt       5.61442775       6.48298327      22.29208278        2       0.00011719      -0.00086203       0.02617055
Pt       8.42164096       6.48298261      22.29208273        2       0.00074326       0.00409823       0.02552742
Pt       0.00042081      -0.00087947      24.63124211        1      -0.00033087       0.00082699       0.00337679
Pt       2.80729255      -0.00040425      24.63286566        1       0.00163313      -0.00275464      -0.00501627
Pt       5.61485560      -0.00036141      24.63286894        1      -0.00096470      -0.00359100      -0.00572441
Pt       1.40417921       2.42993615      24.63282505        1      -0.00277791       0.00323539      -0.00497439
Pt       4.21111979       2.43028479      24.63028373        1      -0.00009637      -0.00029429       0.00611627
Pt       7.01828911       2.42971270      24.63279006        1       0.00137246       0.00363752      -0.00539619
Pt       2.80821259       4.86135342      24.63257639        1      -0.00455674       0.00109877      -0.00417834
Pt       5.61416340       4.86143212      24.63251118        1       0.00475103       0.00045542      -0.00424950
Pt       8.42201732       4.86146196      24.63005048        1      -0.00038045       0.00003352       0.00150767
C        8.42050843       4.86066484      29.78913285        0       0.00001781      -0.00001671       0.01667669
H        8.18626767       5.72898877      30.42401757        0       0.00018327      -0.00358348      -0.00410645
H        8.65189229       3.99283938      30.42574898        0      -0.00021523       0.00364660      -0.00421101
H        9.28847927       5.09345781      29.15454436        0       0.01758986       0.00435696      -0.00031115
H        7.55540549       4.62738606      29.15081765        0      -0.01753459      -0.00440203      -0.00040978
