32
Lattice="8.421641763931781 0.0 0.0 4.2108208819658905 7.293355709136913 0.0 0.0 0.0 44.584161137365626" Properties=species:S:1:pos:R:3:tags:I:1:forces:R:3 charge=0 spin=0 energy=-161.48244533055754 free_energy=-161.48244533055754 stress="0.012330452911555767 1.4530072803609073e-05 3.1102445063879713e-06 1.4530072803609073e-05 0.012339254841208458 -3.1738954930915497e-06 3.1102445063879713e-06 -3.1738954930915497e-06 -0.0001344458432868123" pbc="T T T"
Pt       1.40360727       0.81037244      19.95766877        3      -0.00151765       0.00210393      -0.02404054
Pt       4.21082123       0.81037256      19.95766888        3      -0.00121828       0.00071108      -0.02379321
Pt       7.01803445       0.81037243      19.95766851        3      -0.00004734       0.00354093      -0.02598375
Pt       2.80721413       3.24149135      19.95766844        3      -0.00152007       0.00389651      -0.02245942
Pt       5.61442751       3.24149134      19.95766853        3       0.00226862       0.00337676      -0.02424323
Pt       8.42164211       3.24149148      19.95766852        3      -0.00407413       0.00404997      -0.02639675
Pt       4.21082074       5.67261030      19.95766878        3       0.00025178       0.00231800      -0.02413530
Pt       7.01803477       5.67261047      19.95766871        3      -0.00121441       0.00301840      -0.02461231
Pt       9.82524854       5.67261039      19.95766860        3      -0.00222758       0.00125434      -0.02515996
Pt       0.00000046       1.62074540      22.29208304        2       0.00169842      -0.01125423       0.04229453
Pt       2.80721419       1.62074531      22.29208311        2       0.00463793      -0.00632945       0.03387640
Pt       5.61442748       1.62074566      22.29208290        2       0.00143823      -0.00411418       0.04272610
Pt       1.40360675       4.05186459      22.29208313        2       0.01379540      -0.00233806       0.02835532
Pt       4.21082083       4.05186449      22.29208278        2      -0.00917719      -0.00555791       0.02772074
Pt       7.01803481       4.05186460      22.29208288        2       0.00140870      -0.01685314       0.02643895
Pt       2.80721463       6.48298242      22.29208276        2       0.00331141      -0.00656417       0.04894176
Pt       5.61442775       6.48298327      22.29208278        2       0.00195309      -0.00190244       0.02840638
Pt       8.42164096       6.48298261      22.29208273        2       0.00164724       0.00404619       0.02386075
Pt       0.00872127      -0.01196315      24.63583352        1      -0.03127966       0.02427598      -0.01686075
Pt       2.80959050      -0.00802462      24.63478519        1       0.00378366       0.00428392      -0.01439682
Pt       5.61459561      -0.00863412      24.63293456        1       0.02184011       0.00870665      -0.00643240
Pt       1.40840034       2.42712051      24.63220273        1      -0.01562848      -0.02203841       0.00046737
Pt       4.21077939       2.42646328      24.63449199        1       0.02270170      -0.02419830      -0.00824945
Pt       7.02278521       2.41760736      24.63563133        1      -0.00550322       0.01387576      -0.02471100
Pt       2.81267349       4.85514747      24.63932711        1      -0.01324151       0.00908831      -0.02620421
Pt       5.61698870       4.84932399      24.63023107        1       0.00984959       0.01765859       0.00575963
Pt       8.42540504       4.85498698      24.62800709        1      -0.00336694      -0.00508056       0.01207967
C        6.96600608       4.93136082      29.56050298        0      -0.00006971       0.00015790      -0.03639503
H        6.35752707       4.27038720      30.19642053        0       0.02642242       0.00976074       0.03279792
H        7.53835326       5.63409159      30.18508524        0      -0.02681448      -0.00852893       0.03165010
H        6.30250139       5.49509100      28.88760296        0       0.00873435       0.00932819      -0.01666235
H        7.66556163       4.32577792      28.96487176        0      -0.00884184      -0.01069232      -0.01463916
