32
Lattice="8.421641763931781 0.0 0.0 4.2108208819658905 7.293355709136913 0.0 0.0 0.0 44.584161137365626" Properties=species:S:1:pos:R:3:tags:I:1:forces:R:3 charge=0 spin=0 energy=-161.48129329198332 free_energy=-161.48129329198332 stress="0.0123183224350214 1.6229165339609608e-05 -3.5266309623693815e-06 1.6229165339609608e-05 0.012258877046406269 3.0526814498443855e-06 -3.5266309623693815e-06 3.0526814498443855e-06 -0.00020088674500584602" pbc="T T T"
Pt       1.40360727       0.81037244      19.95766877        3      -0.00284756      -0.00786635      -0.02218987
Pt       4.21082123       0.81037256      19.95766888        3      -0.00277632      -0.00577786      -0.02429773
Pt       7.01803445       0.81037243      19.95766851        3      -0.00390201      -0.00610900      -0.02310047
Pt       2.80721413       3.24149135      19.95766844        3      -0.00140703      -0.00685713      -0.02566912
Pt       5.61442751       3.24149134      19.95766853        3      -0.00245883      -0.00716800      -0.02570358
Pt       8.42164211       3.24149148      19.95766852        3      -0.00489026      -0.00673528      -0.02339565
Pt       4.21082074       5.67261030      19.95766878        3      -0.00236472      -0.00964864      -0.02445750
Pt       7.01803477       5.67261047      19.95766871        3      -0.00310413      -0.00921810      -0.02517298
Pt       9.82524854       5.67261039      19.95766860        3      -0.00471483      -0.00882459      -0.02401717
Pt       0.00000046       1.62074540      22.29208304        2       0.00763199       0.01020079       0.02109159
Pt       2.80721419       1.62074531      22.29208311        2       0.00301286       0.00700105       0.02102539
Pt       5.61442748       1.62074566      22.29208290        2       0.01031027       0.00871345       0.01673269
Pt       1.40360675       4.05186459      22.29208313        2       0.00098453       0.02221699       0.01926605
Pt       4.21082083       4.05186449      22.29208278        2      -0.00102848       0.02096561       0.00809725
Pt       7.01803481       4.05186460      22.29208288        2       0.01446195       0.01533548       0.02871215
Pt       2.80721463       6.48298242      22.29208276        2       0.00737693       0.02152031       0.03149842
Pt       5.61442775       6.48298327      22.29208278        2       0.00446726       0.02835404       0.01789169
Pt       8.42164096       6.48298261      22.29208273        2       0.00915221       0.01554592       0.03147727
Pt       0.01141867       0.02735583      24.63484269        1      -0.01409517      -0.01792700      -0.00943861
Pt       2.81820336       0.02084038      24.63356218        1      -0.00782831       0.01032482      -0.00584190
Pt       5.62278009       0.02425219      24.63433250        1       0.00328742      -0.00882736      -0.00487783
Pt       1.41445505       2.45745507      24.62908428        1      -0.01316589      -0.01797837       0.01624635
Pt       4.22068833       2.45666839      24.62610611        1      -0.00403106      -0.01611120       0.02214479
Pt       7.02763199       2.45174257      24.63165515        1      -0.00135982       0.01658769      -0.00325436
Pt       2.81463862       4.88805451      24.63054409        1       0.00533831      -0.00628489       0.00765280
Pt       5.62195956       4.89022788      24.62660689        1       0.00981836      -0.02884547       0.02165015
Pt       8.43110781       4.88632704      24.63622045        1      -0.00837842      -0.01125817      -0.01793907
C        6.88988255       3.64376487      29.66909835        0      -0.03979348      -0.01696185       0.00927425
H        6.58849343       4.69078460      29.50712428        0       0.00551665      -0.03120438       0.01954988
H        6.55681210       3.30995015      30.66446789        0       0.01157338       0.03796315      -0.00437832
H        7.98506169       3.56157406      29.60227857        0       0.00661039      -0.00160227      -0.00559210
H        6.42475141       3.00519270      28.90262247        0       0.01860412       0.01047650      -0.02298442
