31
Lattice="8.421641763931781 0.0 0.0 4.2108208819658905 7.293355709136913 0.0 0.0 0.0 44.584161137365626" Properties=species:S:1:pos:R:3:tags:I:1:forces:R:3 energy=-172.57716369628906 free_energy=-172.57716369628906 stress="0.010478957556188107 1.283844280886015e-10 6.333858770801726e-09 1.283844280886015e-10 0.010478952899575233 -1.7140596719755763e-09 6.333858770801726e-09 -1.7140596719755763e-09 -0.0001822222984628752" pbc="T T T"
Pt       1.40360696       0.81037286      20.00000000        3       0.00091344       0.00070189      -0.00487122
Pt       4.21082088       0.81037286      20.00000000        3      -0.00106454       0.00043706      -0.00487041
Pt       7.01803480       0.81037286      20.00000000        3       0.00008559       0.00047757      -0.00420880
Pt       2.80721392       3.24149143      20.00000000        3       0.00015470      -0.00114319      -0.00487179
Pt       5.61442784       3.24149143      20.00000000        3       0.00009654      -0.00000948       0.00331885
Pt       8.42164176       3.24149143      20.00000000        3      -0.00003965       0.00009040       0.00331783
Pt       4.21082088       5.67261000      20.00000000        3       0.00037356      -0.00031497      -0.00420821
Pt       7.01803480       5.67261000      20.00000000        3      -0.00005928      -0.00007854       0.00331786
Pt       9.82524872       5.67261000      20.00000000        3      -0.00046063      -0.00016121      -0.00420940
Pt      -0.00000000       1.62074571      22.29208057        2      -0.02598188       0.03246832      -0.00567564
Pt       2.80721392       1.62074571      22.29208057        2       0.00000175       0.00000099      -0.05327319
Pt       5.61442784       1.62074571      22.29208057        2       0.02726740       0.03339292      -0.00389163
Pt       1.40360696       4.05186428      22.29208057        2      -0.04255418       0.00691897      -0.00388970
Pt       4.21082088       4.05186428      22.29208057        2       0.04111344       0.00626607      -0.00567528
Pt       7.01803480       4.05186428      22.29208057        2      -0.00000329      -0.00000048       0.05031807
Pt       2.80721392       6.48298285      22.29208057        2       0.00000063       0.00000141      -0.03515384
Pt       5.61442784       6.48298285      22.29208057        2       0.01528198      -0.04031260      -0.00389411
Pt       8.42164176       6.48298285      22.29208057        2      -0.01512520      -0.03873535      -0.00567762
Pt      -0.00112212      -0.00153381      24.57707630        1       0.00738569      -0.00062383      -0.00708443
Pt       2.80671871       0.00689238      24.57902237        1      -0.00323637      -0.01788849      -0.00409606
Pt       5.61631710      -0.00020519      24.57707620        1      -0.00315378       0.00670852      -0.00708488
Pt       1.40982367       2.42810107      24.57902254        1      -0.01387143       0.01174837      -0.00410619
Pt       4.20509957       2.42724349      24.57902242        1       0.01710935       0.00614027      -0.00410712
Pt       7.02062602       2.41651286      24.58942637        1       0.00550755       0.02318186       0.00538601
Pt       2.80644705       4.86397596      24.57707632        1      -0.00423411      -0.00608524      -0.00708345
Pt       5.60048313       4.86729577      24.58942610        1       0.01732407      -0.01636104       0.00538464
Pt       8.43299490       4.87178438      24.58942645        1      -0.02283157      -0.00682040       0.00538577
N        7.01803541       4.05186423      27.59415621        0      -0.00004377       0.00001346       0.00237387
H        7.48640890       3.23095335      27.19876118        0      -0.03265087       0.00884441       0.03303425
H        6.07291770       4.05669573      27.19876082        0       0.02402720       0.02385693       0.03305534
H        7.49477726       4.86794365      27.19876105        0       0.00866762      -0.03271477       0.03304039
