32
Lattice="8.421641763931781 0.0 0.0 4.2108208819658905 7.293355709136913 0.0 0.0 0.0 44.584161137365626" Properties=species:S:1:pos:R:3:tags:I:1:forces:R:3 charge=0 spin=0 energy=-161.48183021062346 free_energy=-161.48183021062346 stress="0.012219325639307499 -6.35647722901922e-07 -1.815760128920374e-07 -6.35647722901922e-07 0.012328204698860645 -1.2793562746082898e-05 -1.815760128920374e-07 -1.2793562746082898e-05 -0.00020892138127237558" pbc="T T T"
Pt       1.40360727       0.81037244      19.95766877        3       0.00190985       0.00975124      -0.02385093
Pt       4.21082123       0.81037256      19.95766888        3       0.00110388       0.00967613      -0.02385738
Pt       7.01803445       0.81037243      19.95766851        3       0.00204814       0.01240905      -0.02448195
Pt       2.80721413       3.24149135      19.95766844        3       0.00152302       0.01209097      -0.02229937
Pt       5.61442751       3.24149134      19.95766853        3       0.00359732       0.01266863      -0.02451978
Pt       8.42164211       3.24149148      19.95766852        3       0.00015696       0.01257852      -0.02488545
Pt       4.21082074       5.67261030      19.95766878        3       0.00317153       0.01057766      -0.02452563
Pt       7.01803477       5.67261047      19.95766871        3       0.00149402       0.01043780      -0.02403836
Pt       9.82524854       5.67261039      19.95766860        3       0.00063968       0.01063862      -0.02451403
Pt       0.00000046       1.62074540      22.29208304        2      -0.00403556      -0.02511871       0.02069921
Pt       2.80721419       1.62074531      22.29208311        2      -0.00193665      -0.02173142       0.02149512
Pt       5.61442748       1.62074566      22.29208290        2      -0.00228207      -0.02392254       0.02091174
Pt       1.40360675       4.05186459      22.29208313        2       0.00160594      -0.02457182       0.02038977
Pt       4.21082083       4.05186449      22.29208278        2      -0.01056534      -0.02471646       0.02014219
Pt       7.01803481       4.05186460      22.29208288        2      -0.00294206      -0.02724222       0.02051874
Pt       2.80721463       6.48298242      22.29208276        2      -0.00521657      -0.02539603       0.02383485
Pt       5.61442775       6.48298327      22.29208278        2      -0.00316602      -0.02109510       0.01684794
Pt       8.42164096       6.48298261      22.29208273        2      -0.00259439      -0.01911001       0.01864857
Pt      -0.00429764      -0.03721810      24.63082134        1      -0.00055457       0.01485914       0.01000035
Pt       2.80280240      -0.03620337      24.63206740        1       0.00088940       0.00862709      -0.00072112
Pt       5.60926093      -0.03721782      24.63128661        1       0.00634999       0.01309807       0.00828433
Pt       1.39853828       2.39412179      24.63094653        1       0.00389329       0.01414802       0.00773993
Pt       4.20736585       2.39398753      24.63120266        1      -0.00299009       0.01432938       0.00720390
Pt       7.01335161       2.39403958      24.63249704        1       0.00308662       0.01471318      -0.00247506
Pt       2.80291979       4.82478149      24.63384622        1       0.00063205       0.01375203      -0.00135074
Pt       5.60847281       4.82569453      24.63017687        1       0.01084437       0.00922744       0.00143844
Pt       8.41867884       4.82587369      24.63029951        1      -0.00671709       0.00948822       0.00041249
C        7.00896628       4.87098069      29.34652909        0      -0.00014418       0.00032115       0.01568692
H        6.51371028       4.12251538      29.98481534        0       0.00912886       0.00862655      -0.01399480
H        7.50659253       5.62138170      29.98067317        0      -0.00863685      -0.00882652      -0.01328647
H        6.25863178       5.36484211      28.71087341        0      -0.00610689       0.00509898       0.00706365
H        7.75684271       4.37522317      28.70945492        0       0.00581362      -0.00538704       0.00748293
