32
Lattice="8.421641763931781 0.0 0.0 4.2108208819658905 7.293355709136913 0.0 0.0 0.0 44.584161137365626" Properties=species:S:1:pos:R:3:tags:I:1:forces:R:3 charge=0 spin=0 energy=-161.4838148068759 free_energy=-161.4838148068759 stress="0.012269786559045315 -1.5361989426310174e-05 -3.177143980792607e-06 -1.5361989426310174e-05 0.01230675633996725 -6.007901447446784e-06 -3.177143980792607e-06 -6.007901447446784e-06 -0.0001908376143546775" pbc="T T T"
Pt       1.40360727       0.81037244      19.95766877        3       0.00450976       0.00498263      -0.02438157
Pt       4.21082123       0.81037256      19.95766888        3       0.00358429       0.00305411      -0.02461128
Pt       7.01803445       0.81037243      19.95766851        3       0.00271953       0.00516305      -0.02397129
Pt       2.80721413       3.24149135      19.95766844        3       0.00252852       0.00553407      -0.02455585
Pt       5.61442751       3.24149134      19.95766853        3       0.00448903       0.00562124      -0.02498874
Pt       8.42164211       3.24149148      19.95766852        3       0.00359837       0.00552870      -0.02409474
Pt       4.21082074       5.67261030      19.95766878        3       0.00376614       0.00383419      -0.02423110
Pt       7.01803477       5.67261047      19.95766871        3       0.00392629       0.00409186      -0.02436166
Pt       9.82524854       5.67261039      19.95766860        3       0.00343822       0.00448652      -0.02425017
Pt       0.00000046       1.62074540      22.29208304        2      -0.00800482      -0.00978098       0.02704290
Pt       2.80721419       1.62074531      22.29208311        2      -0.00990588      -0.01163735       0.02497101
Pt       5.61442748       1.62074566      22.29208290        2      -0.00337353      -0.01125862       0.02962954
Pt       1.40360675       4.05186459      22.29208313        2      -0.00542998      -0.01304588       0.02369583
Pt       4.21082083       4.05186449      22.29208278        2      -0.00772192      -0.00793556       0.02918990
Pt       7.01803481       4.05186460      22.29208288        2      -0.01059610      -0.01197288       0.02366613
Pt       2.80721463       6.48298242      22.29208276        2      -0.00967493      -0.00856117       0.02519871
Pt       5.61442775       6.48298327      22.29208278        2      -0.00822125      -0.01098789       0.02566732
Pt       8.42164096       6.48298261      22.29208273        2      -0.00614394      -0.00557135       0.02726167
Pt      -0.01185314      -0.01627129      24.63077361        1       0.00643506       0.00768073       0.00524770
Pt       2.79521577      -0.01553286      24.63286159        1       0.00752596       0.00581620      -0.00362408
Pt       5.60343048      -0.01568225      24.63402456        1       0.00344878       0.00829590      -0.00989389
Pt       1.39162428       2.41536902      24.63298810        1       0.00830286       0.00548476      -0.00403413
Pt       4.19947260       2.41416241      24.62967773        1       0.00561472       0.01348645       0.00647984
Pt       7.00789190       2.41690417      24.63355583        1      -0.00292984      -0.00374952      -0.00686211
Pt       2.79509464       4.84673334      24.63247347        1       0.01294440       0.00256477      -0.00364778
Pt       5.60477349       4.84648662      24.63286406        1      -0.00690064       0.00469652      -0.00538635
Pt       8.41093546       4.84716326      24.63128495        1       0.00226512       0.00454586       0.00115205
C        8.42377860       4.86724531      29.81943492        0      -0.00029160      -0.00032049      -0.00085096
H        8.63421480       3.99513936      30.45615569        0       0.00442175      -0.01569495       0.01323213
H        8.21520335       5.74164874      30.45360737        0      -0.00416134       0.01580502       0.01323713
H        7.54855825       4.65579638      29.18692028        0       0.00172090       0.00052757      -0.01115202
H        9.29707910       5.07639497      29.18349224        0      -0.00188391      -0.00068348      -0.01077422
