32
Lattice="8.421641763931781 0.0 0.0 4.2108208819658905 7.293355709136913 0.0 0.0 0.0 44.584161137365626" Properties=species:S:1:pos:R:3:tags:I:1:forces:R:3 charge=0 spin=0 energy=-161.48110255712004 free_energy=-161.48110255712004 stress="0.012258831411600113 4.1574909118935466e-05 3.2303607895300956e-06 4.1574909118935466e-05 0.012288772501051426 -3.247000904593733e-06 3.2303607895300956e-06 -3.247000904593733e-06 -0.00021369330352172256" pbc="T T T"
Pt       1.40360727       0.81037244      19.95766877        3      -0.00668071       0.00486551      -0.02621168
Pt       4.21082123       0.81037256      19.95766888        3      -0.00887844       0.00159962      -0.02444107
Pt       7.01803445       0.81037243      19.95766851        3      -0.00860623       0.00598429      -0.02320774
Pt       2.80721413       3.24149135      19.95766844        3      -0.01062518       0.00367877      -0.02429743
Pt       5.61442751       3.24149134      19.95766853        3      -0.00638083       0.00544714      -0.02191837
Pt       8.42164211       3.24149148      19.95766852        3      -0.00847355       0.00380645      -0.02522033
Pt       4.21082074       5.67261030      19.95766878        3      -0.00680696       0.00274886      -0.02353268
Pt       7.01803477       5.67261047      19.95766871        3      -0.00882558       0.00351840      -0.02486369
Pt       9.82524854       5.67261039      19.95766860        3      -0.00947484       0.00365231      -0.02469828
Pt       0.00000046       1.62074540      22.29208304        2       0.01077395      -0.01018110       0.02976820
Pt       2.80721419       1.62074531      22.29208311        2       0.01532464      -0.00789361       0.02238231
Pt       5.61442748       1.62074566      22.29208290        2       0.02735044      -0.00729183       0.02326452
Pt       1.40360675       4.05186459      22.29208313        2       0.02967652      -0.01081465       0.01345765
Pt       4.21082083       4.05186449      22.29208278        2       0.02419071       0.00070148       0.02817341
Pt       7.01803481       4.05186460      22.29208288        2       0.00077463      -0.01490624       0.02435906
Pt       2.80721463       6.48298242      22.29208276        2       0.01780118      -0.00880151       0.02792778
Pt       5.61442775       6.48298327      22.29208278        2       0.01509401      -0.01886808       0.03139307
Pt       8.42164096       6.48298261      22.29208273        2       0.02329508       0.00257632       0.01160687
Pt       0.02768220      -0.01253630      24.63115780        1      -0.01510343       0.00568074       0.00759008
Pt       2.83344901      -0.01277025      24.63001814        1      -0.00762517       0.01404555       0.00623168
Pt       5.64225794      -0.00958805      24.63203259        1      -0.00853409      -0.00730260       0.00050233
Pt       1.42702051       2.41929245      24.63059370        1       0.01122582       0.00391051       0.00340181
Pt       4.23900882       2.42024787      24.62843299        1      -0.01945584      -0.00101369       0.01529902
Pt       7.04457140       2.42080801      24.63852244        1      -0.00802772      -0.00881429      -0.02692643
Pt       2.83730593       4.84923237      24.63221962        1      -0.02218687       0.01263732       0.00014892
Pt       5.64363745       4.84949398      24.64138238        1      -0.02431119       0.01163313      -0.04149371
Pt       8.44728603       4.85009651      24.62330866        1       0.00338607       0.01062412       0.03807791
C        6.94797198       4.07954782      29.46969486        0      -0.00110914      -0.01386057       0.00216625
H        7.56476010       3.28315063      29.91125190        0       0.01655049      -0.01956759       0.02066957
H        6.23083216       4.44709754      30.21878704        0      -0.00072367       0.01498462       0.01301140
H        6.40025459       3.67778903      28.60518425        0      -0.01826504      -0.00718983      -0.03165841
H        7.59666724       4.90493772      29.14172187        0       0.00465120       0.02441042      -0.00096196
