32
Lattice="8.421641763931781 0.0 0.0 4.2108208819658905 7.293355709136913 0.0 0.0 0.0 44.584161137365626" Properties=species:S:1:pos:R:3:tags:I:1:forces:R:3 charge=0 spin=0 energy=-161.4835525464389 free_energy=-161.4835525464389 stress="0.012322928756475449 -1.5968837033142336e-05 -5.77511991650681e-06 -1.5968837033142336e-05 0.012318829074501991 -4.454538611753378e-06 -5.77511991650681e-06 -4.454538611753378e-06 -0.00013773885439150035" pbc="T T T"
Pt       1.40360727       0.81037244      19.95766877        3       0.00499939      -0.00054880      -0.02344056
Pt       4.21082123       0.81037256      19.95766888        3       0.00684891       0.00052253      -0.02446034
Pt       7.01803445       0.81037243      19.95766851        3       0.00519318       0.00052444      -0.02491229
Pt       2.80721413       3.24149135      19.95766844        3       0.00705620      -0.00023570      -0.02434913
Pt       5.61442751       3.24149134      19.95766853        3       0.00590804      -0.00058909      -0.02359582
Pt       8.42164211       3.24149148      19.95766852        3       0.00423559      -0.00040980      -0.02507972
Pt       4.21082074       5.67261030      19.95766878        3       0.00597706      -0.00150396      -0.02453479
Pt       7.01803477       5.67261047      19.95766871        3       0.00495851      -0.00206184      -0.02453286
Pt       9.82524854       5.67261039      19.95766860        3       0.00593526      -0.00050049      -0.02480129
Pt       0.00000046       1.62074540      22.29208304        2      -0.00765010      -0.00173869       0.03153072
Pt       2.80721419       1.62074531      22.29208311        2      -0.01511118      -0.00062556       0.03303716
Pt       5.61442748       1.62074566      22.29208290        2      -0.01360968      -0.00008463       0.02671531
Pt       1.40360675       4.05186459      22.29208313        2      -0.01345651      -0.00054581       0.02997455
Pt       4.21082083       4.05186449      22.29208278        2      -0.01318217       0.00014955       0.02774940
Pt       7.01803481       4.05186460      22.29208288        2      -0.01156813       0.00304126       0.02606875
Pt       2.80721463       6.48298242      22.29208276        2      -0.01110244       0.00030144       0.02872446
Pt       5.61442775       6.48298327      22.29208278        2      -0.01067470       0.00438974       0.03191123
Pt       8.42164096       6.48298261      22.29208273        2      -0.01362256       0.00224528       0.02985025
Pt      -0.01874722       0.00079534      24.63367728        1       0.00794947       0.00268968      -0.00467505
Pt       2.78874566       0.00120823      24.63378603        1       0.00434985      -0.00065720      -0.00780051
Pt       5.59586744       0.00186588      24.63197323        1       0.00657131      -0.00518737      -0.00139582
Pt       1.38546775       2.43255924      24.63395569        1       0.00577513      -0.00251994      -0.00598255
Pt       4.19168010       2.43186819      24.63372317        1       0.00880407       0.00154224      -0.00986522
Pt       7.00034695       2.43220572      24.63207684        1       0.00334260       0.00038653      -0.00527064
Pt       2.78902121       4.86305400      24.63219212        1       0.00427110       0.00157082       0.00043609
Pt       5.59588028       4.86399441      24.63306645        1       0.00581841      -0.00347172      -0.00746130
Pt       8.40226186       4.86316901      24.63238063        1       0.01207048       0.00211115      -0.00314022
C        5.67720928       3.23490018      29.55804150        0      -0.00181260       0.00603266       0.03615681
H        6.31079532       3.86798555      30.19995748        0      -0.02308844      -0.02323055      -0.01873316
H        5.03553446       2.59820744      30.18818504        0       0.02238961       0.02187649      -0.01926337
H        6.31539078       2.60102662      28.92420768        0       0.00501026      -0.00619129      -0.00002741
H        5.04703550       3.87316161      28.92018038        0      -0.00258591       0.00271857       0.00116732
