31
Lattice="8.421641763931781 0.0 0.0 4.2108208819658905 7.293355709136913 0.0 0.0 0.0 44.584161137365626" Properties=species:S:1:pos:R:3:tags:I:1:forces:R:3 energy=-172.59942626953125 free_energy=-172.59942626953125 stress="0.01052538026124239 -4.5384269675707856e-09 4.472879400196916e-09 -4.5384269675707856e-09 0.010525391437113285 4.4130232801364855e-09 4.472879400196916e-09 4.4130232801364855e-09 1.607461513231101e-06" pbc="T T T"
Pt       1.40360696       0.81037286      20.00000000        3       0.00089454       0.00051299      -0.00636721
Pt       4.21082088       0.81037286      20.00000000        3      -0.00089178       0.00051426      -0.00636688
Pt       7.01803480       0.81037286      20.00000000        3      -0.00000227       0.00103747      -0.00327584
Pt       2.80721392       3.24149143      20.00000000        3       0.00000160      -0.00103191      -0.00636834
Pt       5.61442784       3.24149143      20.00000000        3       0.00061114       0.00035398       0.00581092
Pt       8.42164176       3.24149143      20.00000000        3      -0.00061193       0.00035437       0.00580996
Pt       4.21082088       5.67261000      20.00000000        3       0.00090273      -0.00051840      -0.00327498
Pt       7.01803480       5.67261000      20.00000000        3      -0.00000208      -0.00070537       0.00581023
Pt       9.82524872       5.67261000      20.00000000        3      -0.00090176      -0.00051737      -0.00327611
Pt      -0.00000000       1.62074571      22.29208057        2      -0.03869992       0.04042483       0.00523447
Pt       2.80721392       1.62074571      22.29208057        2       0.00000061      -0.00000127      -0.05875601
Pt       5.61442784       1.62074571      22.29208057        2       0.03869976       0.04042602       0.00523339
Pt       1.40360696       4.05186428      22.29208057        2      -0.05436029       0.01330244       0.00523336
Pt       4.21082088       4.05186428      22.29208057        2       0.05436334       0.01330294       0.00523383
Pt       7.01803480       4.05186428      22.29208057        2      -0.00000344       0.00000016       0.06418578
Pt       2.80721392       6.48298285      22.29208057        2       0.00000056       0.00000165      -0.03006056
Pt       5.61442784       6.48298285      22.29208057        2       0.01565833      -0.05372855       0.00523244
Pt       8.42164176       6.48298285      22.29208057        2      -0.01565942      -0.05372734       0.00523274
Pt      -0.00139355      -0.00080481      24.57666922        1       0.00477583       0.00275863      -0.00865549
Pt       2.80721393       0.00735035      24.57767267        1      -0.00000042      -0.01971480      -0.00594878
Pt       5.61582151      -0.00080476      24.57666925        1      -0.00477529       0.00275834      -0.00865576
Pt       1.40997280       2.42744317      24.57767294        1      -0.01707302       0.00985714      -0.00594899
Pt       4.20445526       2.42744320      24.57767274        1       0.01707246       0.00985735      -0.00594828
Pt       7.01803458       2.41886800      24.59704306        1       0.00000090       0.01957920       0.02004094
Pt       2.80721407       4.86384669      24.57666945        1       0.00000080      -0.00551696      -0.00865379
Pt       5.60381865       4.86836247      24.59704315        1       0.01695707      -0.00978965       0.02004005
Pt       8.43225080       4.86836260      24.59704309        1      -0.01695774      -0.00978962       0.02004121
N        7.01803514       4.05186457      27.59093168        0      -0.00001690      -0.00001814      -0.03130120
H        7.83671632       4.52453021      27.19264441        0      -0.02516361      -0.01452775       0.00656676
H        7.01803472       3.10653227      27.19264414        0       0.00000009       0.02908216       0.00657782
H        6.19935318       4.52453021      27.19264417        0       0.02517980      -0.01453690       0.00657424
