32
Lattice="8.421641763931781 0.0 0.0 4.2108208819658905 7.293355709136913 0.0 0.0 0.0 44.584161137365626" Properties=species:S:1:pos:R:3:tags:I:1:forces:R:3 charge=0 spin=0 energy=-161.48372897618742 free_energy=-161.48372897618742 stress="0.0122803570702672 -1.693253761914093e-05 -5.42782572665601e-06 -1.693253761914093e-05 0.012281958013772964 -2.270171762575046e-06 -5.42782572665601e-06 -2.270171762575046e-06 -0.00020262927864678204" pbc="T T T"
Pt       1.40360727       0.81037244      19.95766877        3       0.00676695       0.00024617      -0.02422572
Pt       4.21082123       0.81037256      19.95766888        3       0.00597430      -0.00182665      -0.02492056
Pt       7.01803445       0.81037243      19.95766851        3       0.00478810       0.00018965      -0.02400481
Pt       2.80721413       3.24149135      19.95766844        3       0.00427749       0.00044449      -0.02467919
Pt       5.61442751       3.24149134      19.95766853        3       0.00675814       0.00010323      -0.02510559
Pt       8.42164211       3.24149148      19.95766852        3       0.00551047      -0.00017540      -0.02404451
Pt       4.21082074       5.67261030      19.95766878        3       0.00582728      -0.00141708      -0.02412332
Pt       7.01803477       5.67261047      19.95766871        3       0.00625122      -0.00103814      -0.02397114
Pt       9.82524854       5.67261039      19.95766860        3       0.00557638      -0.00013231      -0.02400220
Pt       0.00000046       1.62074540      22.29208304        2      -0.01148663       0.00021804       0.02450808
Pt       2.80721419       1.62074531      22.29208311        2      -0.01554041      -0.00261600       0.02678955
Pt       5.61442748       1.62074566      22.29208290        2      -0.00848366      -0.00102389       0.03285929
Pt       1.40360675       4.05186459      22.29208313        2      -0.00736617      -0.00363008       0.02147489
Pt       4.21082083       4.05186449      22.29208278        2      -0.01185586       0.00481716       0.02858313
Pt       7.01803481       4.05186460      22.29208288        2      -0.01737010      -0.00061191       0.01745894
Pt       2.80721463       6.48298242      22.29208276        2      -0.01334799       0.00127657       0.02488274
Pt       5.61442775       6.48298327      22.29208278        2      -0.01358529      -0.00045533       0.02759248
Pt       8.42164096       6.48298261      22.29208273        2      -0.01143321       0.00636589       0.01819786
Pt      -0.02023707       0.00091675      24.63037647        1       0.01290070      -0.00131137       0.00540211
Pt       2.78894286      -0.00126389      24.63275838        1      -0.00007620       0.01531869      -0.00224944
Pt       5.59422412      -0.00093289      24.63338605        1       0.01745820       0.01853620      -0.00723783
Pt       1.38402420       2.43167401      24.63319999        1       0.01445564      -0.00414665      -0.00473701
Pt       4.19074928       2.43240597      24.62908755        1       0.01565690      -0.00298427       0.00718442
Pt       7.00137993       2.43494241      24.63266386        1      -0.00984319      -0.02223102      -0.00348455
Pt       2.78787879       4.86334220      24.63301689        1       0.01737887      -0.00229405      -0.00444123
Pt       5.59825841       4.86295467      24.63338156        1      -0.01247245       0.00069793      -0.00598423
Pt       8.40403304       4.86340934      24.62966591        1       0.00387059      -0.00219839       0.01322734
C        8.42374576       4.85880308      29.84066135        0      -0.00058970      -0.00028246      -0.00561115
H        9.08431749       4.24793858      30.47300996        0       0.02070644      -0.01652271       0.02351817
H        7.78177133       5.48362582      30.47852179        0      -0.01972168       0.01686766       0.02310667
H        7.79572643       4.19818647      29.22428427        0       0.00429116       0.00799859      -0.02091622
H        9.03327808       5.50539946      29.19172999        0      -0.00527627      -0.00818261      -0.02104688
