32
Lattice="8.421641763931781 0.0 0.0 4.2108208819658905 7.293355709136913 0.0 0.0 0.0 44.584161137365626" Properties=species:S:1:pos:R:3:tags:I:1:forces:R:3 charge=0 spin=0 energy=-161.4836288403842 free_energy=-161.4836288403842 stress="0.01227588765323162 8.037429324758705e-06 2.252592594231828e-06 8.037429324758705e-06 0.012335948646068573 -8.82991935213795e-06 2.252592594231828e-06 -8.82991935213795e-06 -0.00015623503713868558" pbc="T T T"
Pt       1.40360727       0.81037244      19.95766877        3      -0.00198307       0.00556630      -0.02373912
Pt       4.21082123       0.81037256      19.95766888        3      -0.00133586       0.00562004      -0.02391993
Pt       7.01803445       0.81037243      19.95766851        3      -0.00131477       0.00750400      -0.02489313
Pt       2.80721413       3.24149135      19.95766844        3      -0.00151771       0.00675092      -0.02350549
Pt       5.61442751       3.24149134      19.95766853        3       0.00010836       0.00710321      -0.02478055
Pt       8.42164211       3.24149148      19.95766852        3      -0.00303780       0.00701798      -0.02502457
Pt       4.21082074       5.67261030      19.95766878        3      -0.00027638       0.00488620      -0.02444522
Pt       7.01803477       5.67261047      19.95766871        3      -0.00166769       0.00416691      -0.02451115
Pt       9.82524854       5.67261039      19.95766860        3      -0.00273228       0.00507336      -0.02456929
Pt       0.00000046       1.62074540      22.29208304        2       0.00499119      -0.01755367       0.02834316
Pt       2.80721419       1.62074531      22.29208311        2       0.00429617      -0.01292564       0.02882857
Pt       5.61442748       1.62074566      22.29208290        2       0.00334019      -0.01620039       0.02872277
Pt       1.40360675       4.05186459      22.29208313        2       0.00664345      -0.01169844       0.02650298
Pt       4.21082083       4.05186449      22.29208278        2      -0.00260991      -0.01232526       0.02637483
Pt       7.01803481       4.05186460      22.29208288        2       0.00401912      -0.01400300       0.02458481
Pt       2.80721463       6.48298242      22.29208276        2       0.00328258      -0.01179782       0.03671977
Pt       5.61442775       6.48298327      22.29208278        2       0.00071386      -0.00917138       0.02658441
Pt       8.42164096       6.48298261      22.29208273        2       0.00741534      -0.00763917       0.02777190
Pt       0.00581257      -0.01895080      24.63430161        1      -0.00544095       0.00458272      -0.00696389
Pt       2.81261773      -0.02003645      24.63229051        1      -0.00202274       0.01220922      -0.00294143
Pt       5.61973119      -0.01911181      24.63414665        1       0.00058882       0.00347810      -0.00795293
Pt       1.40872420       2.41203031      24.63195568        1       0.00042299       0.00457244      -0.00011457
Pt       4.21691365       2.41190873      24.63216828        1      -0.00654750       0.00434482      -0.00268861
Pt       7.02352831       2.41100396      24.63254980        1      -0.00196371       0.00920094      -0.00521536
Pt       2.81258657       4.84245461      24.63421596        1      -0.00101958       0.01083488      -0.00545085
Pt       5.61906040       4.84319863      24.63136673        1       0.00141468       0.00524132      -0.00195330
Pt       8.42785423       4.84355002      24.63171013        1      -0.00489787       0.00394692      -0.00201893
C        6.99138331       4.11668661      29.55315448        0       0.00131125       0.00041424       0.00331612
H        7.23237262       4.96484857      30.21234537        0      -0.00172116      -0.00352237      -0.00174758
H        6.76863347       3.22866918      30.16453476        0       0.00110672       0.00326836      -0.00258286
H        7.85034375       3.90603927      28.89818532        0       0.00529146      -0.00074626      -0.00008302
H        6.11458260       4.36737551      28.93718922        0      -0.00485726       0.00180058       0.00135249
