32
Lattice="8.421641763931781 0.0 0.0 4.2108208819658905 7.293355709136913 0.0 0.0 0.0 44.584161137365626" Properties=species:S:1:pos:R:3:tags:I:1:forces:R:3 charge=0 spin=0 energy=-161.48147449010344 free_energy=-161.48147449010344 stress="0.012235967442393303 2.8398013455444016e-05 2.6801371859619394e-06 2.8398013455444016e-05 0.012286826968193054 -2.0585972379194573e-05 2.6801371859619394e-06 -2.0585972379194573e-05 -0.0002324008964933455" pbc="T T T"
Pt       1.40360727       0.81037244      19.95766877        3      -0.00311385       0.00379443      -0.02300818
Pt       4.21082123       0.81037256      19.95766888        3      -0.00228667       0.00668916      -0.02432222
Pt       7.01803445       0.81037243      19.95766851        3      -0.00346706       0.00651877      -0.02402818
Pt       2.80721413       3.24149135      19.95766844        3      -0.00057319       0.00603580      -0.02290155
Pt       5.61442751       3.24149134      19.95766853        3      -0.00292891       0.00549089      -0.02355174
Pt       8.42164211       3.24149148      19.95766852        3      -0.00504809       0.00582167      -0.02340848
Pt       4.21082074       5.67261030      19.95766878        3      -0.00242059       0.00472237      -0.02543606
Pt       7.01803477       5.67261047      19.95766871        3      -0.00409157       0.00450131      -0.02503721
Pt       9.82524854       5.67261039      19.95766860        3      -0.00287256       0.00601911      -0.02431497
Pt       0.00000046       1.62074540      22.29208304        2       0.01067867      -0.01191220       0.02759867
Pt       2.80721419       1.62074531      22.29208311        2       0.00493628      -0.01001945       0.03606655
Pt       5.61442748       1.62074566      22.29208290        2       0.00454721      -0.01276338       0.02680085
Pt       1.40360675       4.05186459      22.29208313        2       0.00672057      -0.01646944       0.02254647
Pt       4.21082083       4.05186449      22.29208278        2      -0.00122343      -0.01970686       0.01210683
Pt       7.01803481       4.05186460      22.29208288        2       0.01301669      -0.01515920       0.00873865
Pt       2.80721463       6.48298242      22.29208276        2       0.00395189      -0.01147677       0.01903113
Pt       5.61442775       6.48298327      22.29208278        2       0.00906718       0.00007205       0.01709063
Pt       8.42164096       6.48298261      22.29208273        2       0.00869367      -0.00804775       0.02242719
Pt       0.00832379      -0.01827445      24.63102005        1       0.00778189       0.01684222       0.00753297
Pt       2.81894611      -0.01890606      24.63220616        1      -0.01130684       0.02067588      -0.00031215
Pt       5.62500319      -0.01731929      24.63219433        1      -0.00936669       0.00516343      -0.00133944
Pt       1.41336253       2.41319870      24.63350615        1       0.00278594       0.00101564      -0.00807797
Pt       4.22214894       2.41443222      24.63532026        1      -0.01715243      -0.00708494      -0.02077416
Pt       7.02813597       2.41468742      24.63270784        1       0.00016955      -0.00569810      -0.00715373
Pt       2.81789462       4.84438357      24.63032633        1      -0.01292284       0.00340515       0.00845627
Pt       5.62360973       4.84488045      24.62562705        1      -0.00009650       0.00863316       0.02486997
Pt       8.43079320       4.84354661      24.62959141        1       0.00596211       0.01241481       0.01152507
C        5.58963986       3.24804717      29.33633616        0      -0.00118892       0.00185212      -0.01875472
H        6.57818209       3.38597884      29.79884818        0       0.01132889      -0.00979927       0.02330457
H        4.90040444       2.78789587      30.06080656        0       0.00463143       0.02290978       0.01173532
H        5.68528572       2.59375532      28.45805702        0       0.01254580      -0.03234428      -0.02475313
H        5.19725185       4.22500725      29.01751057        0      -0.02675770       0.01790388       0.01734245
