31
Lattice="8.421641763931781 0.0 0.0 4.2108208819658905 7.293355709136913 0.0 0.0 0.0 44.584161137365626" Properties=species:S:1:pos:R:3:tags:I:1:forces:R:3 energy=-173.71240234375 free_energy=-173.71240234375 stress="0.010804620571434498 -2.4070072157655886e-08 -1.7190249224086074e-08 -2.4070072157655886e-08 0.010804644785821438 -2.2130584031998524e-09 -1.7190249224086074e-08 -2.2130584031998524e-09 0.00011953146895393729" pbc="T T T"
Pt       1.40360696       0.81037286      20.00000000        3       0.00531860       0.00306770      -0.00782242
Pt       4.21082088       0.81037286      20.00000000        3       0.00000169       0.00336336      -0.00487283
Pt       7.01803480       0.81037286      20.00000000        3      -0.00531991       0.00306800      -0.00782323
Pt       2.80721392       3.24149143      20.00000000        3       0.00291519      -0.00168293      -0.00487483
Pt       5.61442784       3.24149143      20.00000000        3      -0.00291561      -0.00168198      -0.00487378
Pt       8.42164176       3.24149143      20.00000000        3       0.00000112       0.00485973       0.01284638
Pt       4.21082088       5.67261000      20.00000000        3       0.00000211      -0.00613903      -0.00782329
Pt       7.01803480       5.67261000      20.00000000        3       0.00420597      -0.00242734       0.01284745
Pt       9.82524872       5.67261000      20.00000000        3      -0.00420904      -0.00242721       0.01284704
Pt      -0.00000000       1.62074571      22.29208057        2       0.00000172       0.05838867       0.05123270
Pt       2.80721392       1.62074571      22.29208057        2      -0.00409832      -0.00236812       0.01918613
Pt       5.61442784       1.62074571      22.29208057        2       0.00409698      -0.00236800       0.01918606
Pt       1.40360696       4.05186428      22.29208057        2      -0.06503872       0.03755059      -0.01545699
Pt       4.21082088       4.05186428      22.29208057        2       0.00000141       0.00473310       0.01918669
Pt       7.01803480       4.05186428      22.29208057        2       0.06503721       0.03755121      -0.01545640
Pt       2.80721392       6.48298285      22.29208057        2      -0.05056758      -0.02919450       0.05123221
Pt       5.61442784       6.48298285      22.29208057        2       0.05056700      -0.02919398       0.05123169
Pt       8.42164176       6.48298285      22.29208057        2       0.00000072      -0.07509823      -0.01545868
Pt       0.00000037      -0.00000023      24.59631289        1      -0.00000035      -0.00000028      -0.03171483
Pt       2.80449237       0.00918249      24.60522870        1      -0.00508901      -0.00390496      -0.01702298
Pt       5.61714930       0.00918247      24.60522810        1       0.00508836      -0.00390446      -0.01702343
Pt       1.41019859       2.42417033      24.60522846        1      -0.00592658      -0.00245306      -0.01702330
Pt       4.21082083       2.43111839      24.59619178        1       0.00000083      -0.00000074      -0.03323200
Pt       7.01144324       2.42417024      24.60522857        1       0.00592547      -0.00245341      -0.01702204
Pt       2.81652715       4.86000279      24.60522810        1      -0.00083795       0.00635807      -0.01702192
Pt       5.60511448       4.86000256      24.60522862        1       0.00083828       0.00635977      -0.01702304
Pt       8.42164135       4.86223764      24.66368029        1       0.00000036       0.00000273      -0.02415004
N        8.42164349       4.86223818      26.72837001        0      -0.00015080      -0.00006272       0.01971793
H        9.26263971       5.34778683      27.05000644        0       0.00038253       0.00022006       0.00209387
H        8.42164243       3.89113530      27.05000570        0       0.00000518      -0.00030397       0.00205375
H        7.58064303       5.34778779      27.05001059        0      -0.00023683       0.00014195       0.00203398
