32
Lattice="8.421641763931781 0.0 0.0 4.2108208819658905 7.293355709136913 0.0 0.0 0.0 44.584161137365626" Properties=species:S:1:pos:R:3:tags:I:1:forces:R:3 charge=0 spin=0 energy=-161.48165950292082 free_energy=-161.48165950292082 stress="0.012248377315700054 3.401711364858784e-05 1.718134808470495e-05 3.401711364858784e-05 0.0122779980301857 1.0153011317015626e-05 1.718134808470495e-05 1.0153011317015626e-05 -0.00022942470968700945" pbc="T T T"
Pt       1.40360727       0.81037244      19.95766877        3      -0.00472768       0.00196587      -0.02310956
Pt       4.21082123       0.81037256      19.95766888        3      -0.00559186       0.00167762      -0.02543827
Pt       7.01803445       0.81037243      19.95766851        3      -0.00750344       0.00266730      -0.02326497
Pt       2.80721413       3.24149135      19.95766844        3      -0.00497996       0.00032226      -0.02501202
Pt       5.61442751       3.24149134      19.95766853        3      -0.00597768       0.00077447      -0.02350634
Pt       8.42164211       3.24149148      19.95766852        3      -0.00715417       0.00084084      -0.02424928
Pt       4.21082074       5.67261030      19.95766878        3      -0.00545045      -0.00142069      -0.02289510
Pt       7.01803477       5.67261047      19.95766871        3      -0.00683624      -0.00045408      -0.02422349
Pt       9.82524854       5.67261039      19.95766860        3      -0.00643684       0.00034163      -0.02443490
Pt       0.00000046       1.62074540      22.29208304        2       0.01405250      -0.00628563       0.02765179
Pt       2.80721419       1.62074531      22.29208311        2       0.00345940      -0.00859088       0.01772163
Pt       5.61442748       1.62074566      22.29208290        2       0.02114258      -0.00483108       0.00935928
Pt       1.40360675       4.05186459      22.29208313        2       0.00949041       0.00005570       0.01855309
Pt       4.21082083       4.05186449      22.29208278        2       0.01523918       0.00861540       0.01161010
Pt       7.01803481       4.05186460      22.29208288        2       0.01167378       0.00174228       0.02755764
Pt       2.80721463       6.48298242      22.29208276        2       0.01818189      -0.00083533       0.02265264
Pt       5.61442775       6.48298327      22.29208278        2       0.01291848      -0.00094109       0.03691082
Pt       8.42164096       6.48298261      22.29208273        2       0.01221058      -0.00265437       0.02393090
Pt       0.01977465      -0.00106901      24.63356720        1       0.00075072      -0.00319172      -0.00791056
Pt       2.82844523      -0.00271991      24.63236204        1      -0.02165258      -0.00001061      -0.00168740
Pt       5.63516373      -0.00032537      24.62977534        1      -0.01061497      -0.01069477       0.01017275
Pt       1.42305178       2.43129262      24.63111941        1      -0.00943279      -0.01477515       0.00736656
Pt       4.23001720       2.42977488      24.62542520        1      -0.00747172      -0.00596338       0.02579734
Pt       7.03719802       2.42928069      24.63315390        1       0.00240463       0.00214521      -0.00868524
Pt       2.82736231       4.85978922      24.63032312        1      -0.00925385       0.01209576       0.00876234
Pt       5.63319977       4.85866803      24.63545991        1       0.00177747       0.02096729      -0.02172984
Pt       8.44156598       4.85985876      24.63196341        1      -0.01016263       0.00728008      -0.00060297
C        5.59525752       3.26781306      29.33807955        0      -0.00329939      -0.00068604      -0.01770698
H        5.65522447       4.08672978      30.07122272        0      -0.01673119      -0.01672230       0.01060418
H        5.97016050       2.33678015      29.78832159        0       0.01564312      -0.00519199       0.02476280
H        6.20511718       3.52093679      28.45910208        0       0.03334364       0.00632427      -0.02496213
H        4.55093172       3.12421298      29.02367087        0      -0.02901101       0.01543320       0.01600553
