31
Lattice="8.421641763931781 0.0 0.0 4.2108208819658905 7.293355709136913 0.0 0.0 0.0 44.584161137365626" Properties=species:S:1:pos:R:3:tags:I:1:forces:R:3 energy=-172.76148986816406 free_energy=-172.76148986816406 stress="0.010289769619703293 -1.7939950339496136e-05 -0.00014317799650598317 -1.7939950339496136e-05 0.010455918498337269 2.1177015696594026e-06 -0.00014317799650598317 2.1177015696594026e-06 3.077270230278373e-05" pbc="T T T"
Pt       1.40360696       0.81037286      20.00000000        3       0.00350942       0.00066603       0.00238055
Pt       4.21082088       0.81037286      20.00000000        3      -0.00218667       0.00061662       0.00321981
Pt       7.01803480       0.81037286      20.00000000        3       0.00083599       0.00283991      -0.00485620
Pt       2.80721392       3.24149143      20.00000000        3       0.00090457      -0.00002952      -0.00353831
Pt       5.61442784       3.24149143      20.00000000        3      -0.00146622       0.00183412       0.01590532
Pt       8.42164176       3.24149143      20.00000000        3       0.00228631       0.00241097       0.01940778
Pt       4.21082088       5.67261000      20.00000000        3       0.00348700      -0.00157637       0.00172389
Pt       7.01803480       5.67261000      20.00000000        3       0.00195044      -0.00240347       0.03659725
Pt       9.82524872       5.67261000      20.00000000        3      -0.00199612      -0.00220017       0.00399721
Pt      -0.00000000       1.62074571      22.29208057        2      -0.02897034       0.06047652      -0.03392372
Pt       2.80721392       1.62074571      22.29208057        2      -0.01690152      -0.06630301      -0.05669624
Pt       5.61442784       1.62074571      22.29208057        2      -0.00069929       0.04355066      -0.04282313
Pt       1.40360696       4.05186428      22.29208057        2      -0.18249889       0.07137529       0.06492959
Pt       4.21082088       4.05186428      22.29208057        2       0.11816753       0.05243686       0.01836709
Pt       7.01803480       4.05186428      22.29208057        2       0.02830507       0.06735751       0.02686920
Pt       2.80721392       6.48298285      22.29208057        2      -0.01797762      -0.01325234      -0.05894396
Pt       5.61442784       6.48298285      22.29208057        2       0.03652367      -0.09004822      -0.01966770
Pt       8.42164176       6.48298285      22.29208057        2      -0.05331967      -0.12697342       0.02739306
Pt      -0.02980893       0.00975748      24.57063951        1      -0.00260042       0.00682506      -0.00685832
Pt       2.77876445      -0.01586944      24.60180000        1       0.01504624       0.03898989       0.00961341
Pt       5.60391408       0.00627071      24.57091233        1      -0.00372774      -0.00178827      -0.01211916
Pt       1.39503551       2.41224950      24.57390702        1       0.00815349       0.01363359      -0.02148542
Pt       4.18120161       2.41098345      24.57289300        1      -0.02226138      -0.00303220      -0.01404509
Pt       6.98930472       2.43565458      24.60072379        1       0.01824174      -0.01235158       0.01102091
Pt       2.79800559       4.85843526      24.55895343        1      -0.00364307      -0.01374401       0.00540505
Pt       5.56165097       4.85389449      24.61622978        1       0.00413311      -0.01564282       0.00466157
Pt       8.45328386       4.85352788      24.62803495        1       0.01854606      -0.01474537      -0.01594329
N        7.00396626       4.87508721      26.87165546        0       0.03195062       0.00018711       0.02699336
H        8.00073001       4.87025152      26.56866902        0       0.00442277      -0.00256488       0.01814466
H        6.63752020       4.05406583      26.33079344        0       0.02119899       0.01856213      -0.00592217
H        6.64501133       5.69696649      26.32759796        0       0.02058601      -0.01510654       0.00019300
