31
Lattice="8.421641763931781 0.0 0.0 4.2108208819658905 7.293355709136913 0.0 0.0 0.0 44.584161137365626" Properties=species:S:1:pos:R:3:tags:I:1:forces:R:3 energy=-173.71255493164062 free_energy=-173.71255493164062 stress="0.010737690143287182 -1.841118191237001e-08 -9.511670562289964e-09 -1.841118191237001e-08 0.010737701319158077 -6.314813560948096e-09 -9.511670562289964e-09 -6.314813560948096e-09 1.2311649697949179e-05" pbc="T T T"
Pt       1.40360696       0.81037286      20.00000000        3       0.00546899       0.00315423      -0.01009336
Pt       4.21082088       0.81037286      20.00000000        3       0.00000168       0.00357008      -0.00688383
Pt       7.01803480       0.81037286      20.00000000        3      -0.00547090       0.00315437      -0.01009384
Pt       2.80721392       3.24149143      20.00000000        3       0.00309454      -0.00178627      -0.00688592
Pt       5.61442784       3.24149143      20.00000000        3      -0.00309566      -0.00178626      -0.00688544
Pt       8.42164176       3.24149143      20.00000000        3       0.00000130       0.00539037       0.01372892
Pt       4.21082088       5.67261000      20.00000000        3       0.00000231      -0.00631245      -0.01009351
Pt       7.01803480       5.67261000      20.00000000        3       0.00466566      -0.00269215       0.01372930
Pt       9.82524872       5.67261000      20.00000000        3      -0.00466860      -0.00269209       0.01373041
Pt      -0.00000000       1.62074571      22.29208057        2       0.00000134       0.06621493       0.03225527
Pt       2.80721392       1.62074571      22.29208057        2      -0.00482818      -0.00279004       0.00163805
Pt       5.61442784       1.62074571      22.29208057        2       0.00482722      -0.00279025       0.00163749
Pt       1.40360696       4.05186428      22.29208057        2      -0.07609544       0.04393460      -0.02059983
Pt       4.21082088       4.05186428      22.29208057        2       0.00000206       0.00557664       0.00163845
Pt       7.01803480       4.05186428      22.29208057        2       0.07609343       0.04393468      -0.02059915
Pt       2.80721392       6.48298285      22.29208057        2      -0.05734566      -0.03310751       0.03225416
Pt       5.61442784       6.48298285      22.29208057        2       0.05734438      -0.03310689       0.03225311
Pt       8.42164176       6.48298285      22.29208057        2       0.00000120      -0.08786556      -0.02060106
Pt       0.00000045      -0.00000021      24.58858476        1      -0.00000124      -0.00000041       0.00282037
Pt       2.80441123       0.00900067      24.60083905        1      -0.00085606      -0.00627046       0.00067444
Pt       5.61723064       0.00900077      24.60083938        1       0.00085714      -0.00627124       0.00067486
Pt       1.41000039       2.42419074      24.60083926        1      -0.00585719       0.00239394       0.00067593
Pt       4.21082087       2.43111855      24.59054648        1       0.00000089       0.00000177      -0.00889429
Pt       7.01164118       2.42419064      24.60083941        1       0.00585841       0.00239261       0.00067636
Pt       2.81641065       4.86016415      24.60083907        1      -0.00500328       0.00387664       0.00067560
Pt       5.60523188       4.86016396      24.60083894        1       0.00500017       0.00387531       0.00067498
Pt       8.42164164       4.86223680      24.67001130        1       0.00000320      -0.00000181      -0.03261632
N        8.42164267       4.86223699      26.73726602        0      -0.00009435      -0.00003673      -0.01467413
H        8.42164176       3.88851178      27.05381722        0       0.00000197       0.04900429       0.00638099
H        7.57837026       5.34910005      27.05381480        0       0.04245624      -0.02450720       0.00638510
H        9.26491175       5.34909940      27.05381479        0      -0.04236571      -0.02445726       0.00641684
