31
Lattice="8.421641763931781 0.0 0.0 4.2108208819658905 7.293355709136913 0.0 0.0 0.0 44.584161137365626" Properties=species:S:1:pos:R:3:tags:I:1:forces:R:3 energy=-172.80535888671875 free_energy=-172.80535888671875 stress="0.010314863175153732 5.325949015144715e-09 -1.8827448489133758e-09 5.325949015144715e-09 0.010264916345477104 -6.445376493502408e-05 -1.8827448489133758e-09 -6.445376493502408e-05 -1.5536954379058443e-05" pbc="T T T"
Pt       1.40360696       0.81037286      20.00000000        3       0.00093128       0.00201179      -0.00832874
Pt       4.21082088       0.81037286      20.00000000        3      -0.00092901       0.00201338      -0.00832808
Pt       7.01803480       0.81037286      20.00000000        3      -0.00000242       0.00254201      -0.00997007
Pt       2.80721392       3.24149143      20.00000000        3       0.00000116      -0.00056369      -0.00643292
Pt       5.61442784       3.24149143      20.00000000        3      -0.00182680       0.00281436       0.01604879
Pt       8.42164176       3.24149143      20.00000000        3       0.00182589       0.00281457       0.01604721
Pt       4.21082088       5.67261000      20.00000000        3       0.00275820      -0.00174943       0.00135776
Pt       7.01803480       5.67261000      20.00000000        3      -0.00000226      -0.00165663       0.02707806
Pt       9.82524872       5.67261000      20.00000000        3      -0.00275708      -0.00174823       0.00135580
Pt      -0.00000000       1.62074571      22.29208057        2      -0.05991092       0.06153017      -0.03975280
Pt       2.80721392       1.62074571      22.29208057        2       0.00000107      -0.01343437      -0.10786543
Pt       5.61442784       1.62074571      22.29208057        2       0.05991028       0.06153154      -0.03975445
Pt       1.40360696       4.05186428      22.29208057        2      -0.15451667       0.06490250       0.03627411
Pt       4.21082088       4.05186428      22.29208057        2       0.15451999       0.06490263       0.03627610
Pt       7.01803480       4.05186428      22.29208057        2      -0.00000311       0.04678629       0.07277321
Pt       2.80721392       6.48298285      22.29208057        2       0.00000135      -0.04094727      -0.07370364
Pt       5.61442784       6.48298285      22.29208057        2       0.02177871      -0.17521809       0.02284711
Pt       8.42164176       6.48298285      22.29208057        2      -0.02178041      -0.17521620       0.02284692
Pt      -0.01123059      -0.01385162      24.56335413        1       0.04619348       0.00736871       0.00769126
Pt       2.80721409       0.00059136      24.56808273        1      -0.00000044       0.01146988      -0.00642829
Pt       5.62565836      -0.01385187      24.56335419        1      -0.04619246       0.00737070       0.00769135
Pt       1.40770235       2.40721589      24.57008967        1       0.01529261       0.01631531      -0.00071275
Pt       4.20672543       2.40721541      24.57008995        1      -0.01529121       0.01632042      -0.00071336
Pt       7.01803507       2.40304497      24.59456766        1      -0.00000137      -0.01717276       0.04193573
Pt       2.80721336       4.83911451      24.56370931        1       0.00000615       0.02286205      -0.00901091
Pt       5.58907340       4.85269507      24.62682485        1       0.01530018       0.02645186      -0.00760771
Pt       8.44699659       4.85269519      24.62682574        1      -0.01530658       0.02645280      -0.00760414
N        7.01803526       4.35581648      26.93230350        0       0.00000513      -0.00939079      -0.03414789
H        7.83759175       4.87256342      26.55475224        0      -0.01879422       0.01043553       0.01216082
H        7.01803450       3.46740280      26.38941873        0       0.00000768      -0.03025037       0.02581605
H        6.19847918       4.87256251      26.55475154        0       0.01878186       0.01045132       0.01216066
