32
Lattice="8.421641763931781 0.0 0.0 4.2108208819658905 7.293355709136913 0.0 0.0 0.0 44.584161137365626" Properties=species:S:1:pos:R:3:tags:I:1:forces:R:3 charge=0 spin=0 energy=-161.48266086095305 free_energy=-161.48266086095305 stress="0.01224123127758503 1.7811198631534353e-05 8.92425850906875e-06 1.7811198631534353e-05 0.012242741882801056 -5.157193299965002e-06 8.92425850906875e-06 -5.157193299965002e-06 -0.0002425930870231241" pbc="T T T"
Pt       1.40360727       0.81037244      19.95766877        3      -0.00684514       0.00056778      -0.02339073
Pt       4.21082123       0.81037256      19.95766888        3      -0.00758873       0.00168999      -0.02448573
Pt       7.01803445       0.81037243      19.95766851        3      -0.00862131       0.00198551      -0.02345980
Pt       2.80721413       3.24149135      19.95766844        3      -0.00610333      -0.00017250      -0.02447786
Pt       5.61442751       3.24149134      19.95766853        3      -0.00797694       0.00046944      -0.02349665
Pt       8.42164211       3.24149148      19.95766852        3      -0.00908651       0.00024306      -0.02371970
Pt       4.21082074       5.67261030      19.95766878        3      -0.00652428      -0.00131943      -0.02390536
Pt       7.01803477       5.67261047      19.95766871        3      -0.00877795      -0.00051712      -0.02391781
Pt       9.82524854       5.67261039      19.95766860        3      -0.00783310       0.00029957      -0.02338549
Pt       0.00000046       1.62074540      22.29208304        2       0.01499757      -0.00127116       0.01561987
Pt       2.80721419       1.62074531      22.29208311        2       0.01379969      -0.00133300       0.00895945
Pt       5.61442748       1.62074566      22.29208290        2       0.02064882      -0.00434491       0.01333519
Pt       1.40360675       4.05186459      22.29208313        2       0.01472203       0.00274836       0.01673668
Pt       4.21082083       4.05186449      22.29208278        2       0.01463246       0.00234672       0.01124525
Pt       7.01803481       4.05186460      22.29208288        2       0.01909705      -0.00030597       0.01726574
Pt       2.80721463       6.48298242      22.29208276        2       0.01472346      -0.00213549       0.01679774
Pt       5.61442775       6.48298327      22.29208278        2       0.01718005      -0.00036091       0.01248386
Pt       8.42164096       6.48298261      22.29208273        2       0.02073364      -0.00271276       0.01696052
Pt       0.02489915      -0.00041460      24.62866165        1      -0.00999342       0.00171386       0.01536283
Pt       2.83242486      -0.00041703      24.62862761        1      -0.00859652      -0.00240033       0.01914596
Pt       5.63954714       0.00067923      24.63095490        1      -0.00918838      -0.00860700       0.00388479
Pt       1.42890123       2.43119844      24.62861140        1      -0.01233841       0.00110872       0.01744900
Pt       4.23567832       2.43079826      24.62860053        1      -0.00762198      -0.00082596       0.01096530
Pt       7.04262815       2.43091692      24.63191483        1      -0.00449219       0.00046862      -0.00133293
Pt       2.83330874       4.86157689      24.63059032        1      -0.01827518       0.00506006       0.00667670
Pt       5.63900148       4.86183439      24.63057100        1      -0.00467286       0.00231850       0.00366237
Pt       8.44633317       4.86149344      24.63114457        1      -0.00451274       0.00376499       0.00326818
C        5.50721121       3.24003234      29.46958501        0      -0.00279367       0.00035781       0.03769962
H        4.91385997       3.90053924      30.12270258        0       0.02954736      -0.02015090      -0.03451262
H        6.19546900       2.63810204      30.08484724        0      -0.01883625       0.02729118      -0.02894379
H        6.08309101       3.84666938      28.75441198        0       0.01459085       0.01715196       0.02532440
H        4.83332906       2.57183003      28.91344888        0      -0.02399444      -0.02312883       0.00618514
