32
Lattice="8.421641763931781 0.0 0.0 4.2108208819658905 7.293355709136913 0.0 0.0 0.0 44.584161137365626" Properties=species:S:1:pos:R:3:tags:I:1:forces:R:3 charge=0 spin=0 energy=-161.4838901471469 free_energy=-161.4838901471469 stress="0.012269560247659683 -3.66441690857755e-06 -1.6028901654863148e-06 -3.66441690857755e-06 0.012245748192071915 2.8331494377198396e-06 -1.6028901654863148e-06 2.8331494377198396e-06 -0.00023027826682664454" pbc="T T T"
Pt       1.40360727       0.81037244      19.95766877        3       0.00205595      -0.00175160      -0.02404313
Pt       4.21082123       0.81037256      19.95766888        3       0.00132392      -0.00190246      -0.02590856
Pt       7.01803445       0.81037243      19.95766851        3       0.00014000      -0.00186064      -0.02379247
Pt       2.80721413       3.24149135      19.95766844        3       0.00116715      -0.00247000      -0.02533795
Pt       5.61442751       3.24149134      19.95766853        3       0.00079597      -0.00242354      -0.02541038
Pt       8.42164211       3.24149148      19.95766852        3       0.00086147      -0.00223004      -0.02256964
Pt       4.21082074       5.67261030      19.95766878        3       0.00100967      -0.00328496      -0.02439325
Pt       7.01803477       5.67261047      19.95766871        3       0.00136090      -0.00230777      -0.02272294
Pt       9.82524854       5.67261039      19.95766860        3       0.00069571      -0.00220931      -0.02264105
Pt       0.00000046       1.62074540      22.29208304        2      -0.00129865       0.01041762       0.01421127
Pt       2.80721419       1.62074531      22.29208311        2      -0.00688316       0.00205295       0.01889258
Pt       5.61442748       1.62074566      22.29208290        2       0.00182766       0.00268023       0.01741114
Pt       1.40360675       4.05186459      22.29208313        2      -0.01116953       0.00835881       0.03258650
Pt       4.21082083       4.05186449      22.29208278        2      -0.00264210       0.00918107       0.01730055
Pt       7.01803481       4.05186460      22.29208288        2       0.00603679       0.01100265       0.03147322
Pt       2.80721463       6.48298242      22.29208276        2      -0.00702842       0.00300374       0.01507517
Pt       5.61442775       6.48298327      22.29208278        2       0.00212509       0.00247771       0.01664250
Pt       8.42164096       6.48298261      22.29208273        2      -0.00175987      -0.00568594       0.03176738
Pt      -0.00390250       0.00784531      24.62574677        1       0.00322479      -0.00591279       0.02451904
Pt       2.80515760       0.00654981      24.63134623        1      -0.00651058      -0.00246012       0.00176541
Pt       5.60976930       0.00645556      24.63137876        1       0.00559079      -0.00275854       0.00167871
Pt       1.39946087       2.43904992      24.63174291        1       0.00233316      -0.00287423      -0.00025545
Pt       4.20708173       2.43829986      24.62681558        1       0.00097632      -0.00106753       0.01980289
Pt       7.01406855       2.43948837      24.63112052        1       0.00391203      -0.00535312       0.00320126
Pt       2.80304859       4.86921361      24.63095924        1       0.00088458      -0.00143791       0.00364709
Pt       5.61178135       4.86955880      24.63121241        1       0.00060089      -0.00104485       0.00232480
Pt       8.41825122       4.86895030      24.64112986        1       0.00040635      -0.00013207      -0.04228292
C        8.41886360       4.86544056      29.79873836        0      -0.00001592      -0.00005086      -0.01986461
H        9.28611941       4.62294523      30.43011260        0       0.01850565      -0.00636298       0.02176639
H        7.55616795       5.10929386      30.43580391        0      -0.01847289       0.00648420       0.02196965
H        8.17377369       4.00052151      29.16475247        0      -0.00288247      -0.01599998      -0.00833223
H        8.65937830       5.72898601      29.16114073        0       0.00282895       0.01592232      -0.00848087
