31
Lattice="8.421641763931781 0.0 0.0 4.2108208819658905 7.293355709136913 0.0 0.0 0.0 44.584161137365626" Properties=species:S:1:pos:R:3:tags:I:1:forces:R:3 energy=-172.8036651611328 free_energy=-172.8036651611328 stress="0.010319453664124012 1.169678687240605e-09 1.0556431284669543e-09 1.169678687240605e-09 0.010218452662229538 7.03979458194226e-05 1.0556431284669543e-09 7.03979458194226e-05 -1.0959708561131265e-05" pbc="T T T"
Pt       1.40360696       0.81037286      20.00000000        3       0.00222213       0.00139305      -0.00127164
Pt       4.21082088       0.81037286      20.00000000        3      -0.00221964       0.00139447      -0.00127256
Pt       7.01803480       0.81037286      20.00000000        3      -0.00000221      -0.00074027      -0.01569092
Pt       2.80721392       3.24149143      20.00000000        3       0.00000147      -0.00096639      -0.00621256
Pt       5.61442784       3.24149143      20.00000000        3      -0.00289071       0.00222477       0.00617689
Pt       8.42164176       3.24149143      20.00000000        3       0.00288990       0.00222470       0.00617477
Pt       4.21082088       5.67261000      20.00000000        3       0.00240629      -0.00366196       0.00331262
Pt       7.01803480       5.67261000      20.00000000        3      -0.00000252      -0.00306934       0.03510636
Pt       9.82524872       5.67261000      20.00000000        3      -0.00240492      -0.00366098       0.00331113
Pt      -0.00000000       1.62074571      22.29208057        2       0.03447526       0.04056437      -0.08589672
Pt       2.80721392       1.62074571      22.29208057        2       0.00000070      -0.08158930      -0.03736267
Pt       5.61442784       1.62074571      22.29208057        2      -0.03447502       0.04056761      -0.08590000
Pt       1.40360696       4.05186428      22.29208057        2      -0.15672015       0.10425882       0.05839684
Pt       4.21082088       4.05186428      22.29208057        2       0.15672326       0.10425879       0.05839683
Pt       7.01803480       4.05186428      22.29208057        2      -0.00000332       0.13903248       0.04898420
Pt       2.80721392       6.48298285      22.29208057        2       0.00000324      -0.02630099      -0.07216179
Pt       5.61442784       6.48298285      22.29208057        2       0.07578914      -0.09864803       0.03033539
Pt       8.42164176       6.48298285      22.29208057        2      -0.07579193      -0.09864773       0.03033390
Pt      -0.00304553       0.02275603      24.56862871        1      -0.00133309      -0.04929902       0.00071704
Pt       2.80721423       0.03047009      24.59719029        1      -0.00000050       0.00794692       0.01626534
Pt       5.61747394       0.02275613      24.56862690        1       0.00133323      -0.04929915       0.00072865
Pt       1.41147507       2.44079548      24.56839020        1       0.01230138       0.00012000      -0.01237550
Pt       4.20295336       2.44079550      24.56839056        1      -0.01230192       0.00012157      -0.01237631
Pt       7.01803472       2.42387001      24.56439398        1      -0.00000104       0.01125644       0.01068711
Pt       2.80721383       4.88438516      24.56182818        1       0.00000238      -0.04882821       0.00093481
Pt       5.58385910       4.85962998      24.62284203        1       0.01313943      -0.01176590      -0.00583775
Pt       8.45220999       4.85962966      24.62284301        1      -0.01314045      -0.01176189      -0.00583724
N        7.01803597       5.33335625      26.90726152        0       0.00000287      -0.00700716      -0.04217705
H        6.19869505       4.80788042      26.53905117        0       0.02424380       0.03298556       0.01655170
H        7.01803534       6.22020445      26.35831555        0       0.00000108      -0.02609169       0.04140398
H        7.83737704       4.80788107      26.53905184        0      -0.02424815       0.03298862       0.01655488
