32
Lattice="8.421641763931781 0.0 0.0 4.2108208819658905 7.293355709136913 0.0 0.0 0.0 44.584161137365626" Properties=species:S:1:pos:R:3:tags:I:1:forces:R:3 charge=0 spin=0 energy=-161.48110446446867 free_energy=-161.48110446446867 stress="0.012244507670402527 -3.3371852623531595e-05 -3.7291542867023963e-06 -3.3371852623531595e-05 0.012303164228796959 -2.7794337711384287e-06 -3.7291542867023963e-06 -2.7794337711384287e-06 -0.00021363260748330504" pbc="T T T"
Pt       1.40360727       0.81037244      19.95766877        3       0.00582089       0.00689566      -0.02444847
Pt       4.21082123       0.81037256      19.95766888        3       0.00849271       0.00736671      -0.02430261
Pt       7.01803445       0.81037243      19.95766851        3       0.00790025       0.00638349      -0.02469516
Pt       2.80721413       3.24149135      19.95766844        3       0.00754826       0.00335842      -0.02620574
Pt       5.61442751       3.24149134      19.95766853        3       0.00753747       0.00542688      -0.02521927
Pt       8.42164211       3.24149148      19.95766852        3       0.00746012       0.00588239      -0.02485330
Pt       4.21082074       5.67261030      19.95766878        3       0.00948521       0.00445910      -0.02322010
Pt       7.01803477       5.67261047      19.95766871        3       0.00790886       0.00279646      -0.02192543
Pt       9.82524854       5.67261039      19.95766860        3       0.00578186       0.00452004      -0.02352568
Pt       0.00000046       1.62074540      22.29208304        2      -0.00943979      -0.02146053       0.01155719
Pt       2.80721419       1.62074531      22.29208311        2      -0.01451169      -0.00932713       0.02237984
Pt       5.61442748       1.62074566      22.29208290        2      -0.02421530      -0.02031429       0.01342183
Pt       1.40360675       4.05186459      22.29208313        2      -0.02387736      -0.00361843       0.03141084
Pt       4.21082083       4.05186449      22.29208278        2      -0.01422117      -0.00423582       0.02981908
Pt       7.01803481       4.05186460      22.29208288        2      -0.01329571       0.00679827       0.02435540
Pt       2.80721463       6.48298242      22.29208276        2      -0.01654056      -0.01099860       0.02794617
Pt       5.61442775       6.48298327      22.29208278        2      -0.01998733      -0.02002774       0.02330159
Pt       8.42164096       6.48298261      22.29208273        2      -0.01148635      -0.02126888       0.02820331
Pt      -0.02222532      -0.01929867      24.63204038        1      -0.00203972       0.01105665       0.00046936
Pt       2.78369964      -0.01896746      24.62844011        1       0.00885813       0.01729559       0.01528931
Pt       5.58811758      -0.01954859      24.63222953        1       0.02199791       0.01290421       0.00007930
Pt       1.37942707       2.41478970      24.63001676        1       0.01600458      -0.00044492       0.00626799
Pt       4.18887008       2.41675904      24.63059226        1      -0.00221962      -0.01170499       0.00341263
Pt       6.99469535       2.41498595      24.62330645        1       0.00753192      -0.00825549       0.03807551
Pt       2.78251264       4.84454127      24.63115797        1       0.01249152       0.01028374       0.00756158
Pt       5.59222256       4.84441896      24.63851904        1      -0.00359780       0.01135624      -0.02691000
Pt       8.39599676       4.84332202      24.64137753        1       0.02222568       0.01522013      -0.04147565
C        7.07704824       4.09869348      29.46960974        0      -0.01149825       0.00788266       0.00210963
H        6.07895588       3.96273352      29.91117220        0      -0.02518341      -0.00453614       0.02064938
H        7.75393367       4.53596113      30.21870443        0       0.01335291      -0.00685286       0.01302263
H        7.00297073       4.77392481      28.60511046        0       0.00290164       0.01939015      -0.03160015
H        7.46750020       3.12421539      29.14161412        0       0.01881406      -0.01623083      -0.00095111
