32
Lattice="8.421641763931781 0.0 0.0 4.2108208819658905 7.293355709136913 0.0 0.0 0.0 44.584161137365626" Properties=species:S:1:pos:R:3:tags:I:1:forces:R:3 charge=0 spin=0 energy=-161.4842849683139 free_energy=-161.4842849683139 stress="0.012285253033041954 3.98463544115657e-06 1.2358817969015945e-07 3.98463544115657e-06 0.012263625860214233 3.5337934605195187e-06 1.2358817969015945e-07 3.5337934605195187e-06 -0.00021195545559749007" pbc="T T T"
Pt       1.40360727       0.81037244      19.95766877        3      -0.00029577      -0.00203920      -0.02392290
Pt       4.21082123       0.81037256      19.95766888        3      -0.00087386      -0.00239327      -0.02538871
Pt       7.01803445       0.81037243      19.95766851        3      -0.00127209      -0.00206073      -0.02413414
Pt       2.80721413       3.24149135      19.95766844        3      -0.00106609      -0.00256131      -0.02519883
Pt       5.61442751       3.24149134      19.95766853        3      -0.00072718      -0.00232985      -0.02493324
Pt       8.42164211       3.24149148      19.95766852        3      -0.00072326      -0.00180112      -0.02323931
Pt       4.21082074       5.67261030      19.95766878        3      -0.00088099      -0.00298276      -0.02430413
Pt       7.01803477       5.67261047      19.95766871        3      -0.00020559      -0.00243960      -0.02329849
Pt       9.82524854       5.67261039      19.95766860        3      -0.00159751      -0.00268351      -0.02333068
Pt       0.00000046       1.62074540      22.29208304        2       0.00240024       0.00576908       0.01911427
Pt       2.80721419       1.62074531      22.29208311        2       0.00082112       0.00408816       0.02355370
Pt       5.61442748       1.62074566      22.29208290        2       0.00276710       0.00481812       0.02327730
Pt       1.40360675       4.05186459      22.29208313        2      -0.00343109       0.00741497       0.02711318
Pt       4.21082083       4.05186449      22.29208278        2       0.00126641       0.00621448       0.02282302
Pt       7.01803481       4.05186460      22.29208288        2       0.00593444       0.00879332       0.02716360
Pt       2.80721463       6.48298242      22.29208276        2       0.00096314       0.00546113       0.01985996
Pt       5.61442775       6.48298327      22.29208278        2       0.00200878       0.00434910       0.01910965
Pt       8.42164096       6.48298261      22.29208273        2       0.00250838      -0.00082206       0.02696506
Pt       0.00258381       0.00794476      24.62925371        1      -0.00131734      -0.00326699       0.00919569
Pt       2.81053994       0.00678453      24.63115652        1      -0.00454154       0.00328864       0.00364728
Pt       5.61643601       0.00651719      24.63129179        1       0.00135012       0.00290256       0.00268576
Pt       1.40568763       2.43994596      24.63137572        1       0.00209088      -0.00824858       0.00230943
Pt       4.21354806       2.43899818      24.62992000        1      -0.00145210      -0.00349685       0.00423114
Pt       7.02080630       2.43969603      24.63115119        1      -0.00320654      -0.00700750       0.00352664
Pt       2.80875615       4.86990290      24.63108663        1       0.00420606      -0.00266224       0.00440355
Pt       5.61780940       4.87030757      24.63127750        1      -0.00454097      -0.00488520       0.00346907
Pt       8.42400421       4.86970820      24.63762977        1      -0.00013240      -0.00152974      -0.02609713
C        8.42544895       4.86571287      29.83000202        0       0.00019874       0.00004718      -0.02573026
H        9.28967339       5.10705087      30.46639122        0       0.00742196       0.00119533       0.02425398
H        7.55817954       4.62027608      30.46064328        0      -0.00769020      -0.00141396       0.02441965
H        8.67043842       4.00273889      29.19278963        0       0.00108499      -0.00190872      -0.01069557
H        8.18350731       5.73279418      29.19723109        0      -0.00106778       0.00219120      -0.01084869
