32
Lattice="8.421641763931781 0.0 0.0 4.2108208819658905 7.293355709136913 0.0 0.0 0.0 44.584161137365626" Properties=species:S:1:pos:R:3:tags:I:1:forces:R:3 charge=0 spin=0 energy=-161.4835525464389 free_energy=-161.4835525464389 stress="0.012334384955465794 9.749948731041513e-06 -1.1628500260485453e-06 9.749948731041513e-06 0.012307494878768921 8.706839253136422e-06 -1.1628500260485453e-06 8.706839253136422e-06 -0.0001376904547214508" pbc="T T T"
Pt       1.40360727       0.81037244      19.95766877        3      -0.00297223      -0.00405819      -0.02344480
Pt       4.21082123       0.81037256      19.95766888        3      -0.00247328      -0.00347908      -0.02508117
Pt       7.01803445       0.81037243      19.95766851        3      -0.00424764      -0.00327200      -0.02452285
Pt       2.80721413       3.24149135      19.95766844        3      -0.00213778      -0.00476639      -0.02492319
Pt       5.61442751       3.24149134      19.95766853        3      -0.00344783      -0.00482963      -0.02359419
Pt       8.42164211       3.24149148      19.95766852        3      -0.00428128      -0.00442862      -0.02452576
Pt       4.21082074       5.67261030      19.95766878        3      -0.00295652      -0.00620648      -0.02446925
Pt       7.01803477       5.67261047      19.95766871        3      -0.00372449      -0.00600903      -0.02434802
Pt       9.82524854       5.67261039      19.95766860        3      -0.00338915      -0.00490879      -0.02479828
Pt       0.00000046       1.62074540      22.29208304        2       0.00909638       0.00707230       0.03189658
Pt       2.80721419       1.62074531      22.29208311        2       0.00230444       0.00750941       0.03153415
Pt       5.61442748       1.62074566      22.29208290        2       0.00840212       0.00851993       0.02605639
Pt       1.40360675       4.05186459      22.29208313        2       0.00578652       0.00949213       0.02874023
Pt       4.21082083       4.05186449      22.29208278        2       0.00672356       0.01185169       0.02675565
Pt       7.01803481       4.05186460      22.29208288        2       0.00669730       0.01135852       0.02777000
Pt       2.80721463       6.48298242      22.29208276        2       0.00872627       0.01071784       0.02983306
Pt       5.61442775       6.48298327      22.29208278        2       0.00699259       0.01341148       0.03305405
Pt       8.42164096       6.48298261      22.29208273        2       0.00625558       0.01194866       0.02997240
Pt       0.01024966       0.01542317      24.63378647        1      -0.00271930      -0.00347345      -0.00782129
Pt       2.81749867       0.01502209      24.63395257        1      -0.00506476      -0.00375958      -0.00596763
Pt       5.62489708       0.01635542      24.63238537        1      -0.00420589      -0.01151517      -0.00317145
Pt       1.41363629       2.44699485      24.63366934        1      -0.00160480      -0.00826486      -0.00462215
Pt       4.22057683       2.44592903      24.63207894        1      -0.00134366      -0.00309134      -0.00527713
Pt       7.02880656       2.44633568      24.63307530        1      -0.00591147      -0.00331002      -0.00749440
Pt       2.81807613       4.87740830      24.63197016        1      -0.00777682      -0.00310584      -0.00139298
Pt       5.62461288       4.87846275      24.63372838        1      -0.00306279      -0.00840170      -0.00989893
Pt       8.43141142       4.87761302      24.63219467        1      -0.00075342      -0.00447555       0.00044035
C        5.57733140       3.19040716      29.55810861        0       0.00614708      -0.00145054       0.03609240
H        5.34677175       4.06446392      30.18824812        0       0.00776047      -0.03036145      -0.01925285
H        5.80880883       2.32516247      30.20002541        0      -0.00858455       0.03165422      -0.01872974
H        6.44517123       3.41702492      28.92024911        0       0.00358942       0.00086429       0.00119980
H        4.70929096       2.95465838      28.92427370        0      -0.00782391      -0.00123279      -0.00000888
