32
Lattice="8.421641763931781 0.0 0.0 4.2108208819658905 7.293355709136913 0.0 0.0 0.0 44.584161137365626" Properties=species:S:1:pos:R:3:tags:I:1:forces:R:3 charge=0 spin=0 energy=-161.4769502591464 free_energy=-161.4769502591464 stress="0.012316429987549782 -1.8871118300012313e-05 -1.287330815102905e-05 -1.8871118300012313e-05 0.012247704900801182 1.4492554328171536e-05 -1.287330815102905e-05 1.4492554328171536e-05 -0.00019890688417945057" pbc="T T T"
Pt       1.40360727       0.81037244      19.95766877        3       0.00524024      -0.00579160      -0.02355488
Pt       4.21082123       0.81037256      19.95766888        3       0.00664696      -0.00950182      -0.02475858
Pt       7.01803445       0.81037243      19.95766851        3       0.00410320      -0.00658465      -0.02557239
Pt       2.80721413       3.24149135      19.95766844        3       0.00293286      -0.00605595      -0.02254917
Pt       5.61442751       3.24149134      19.95766853        3       0.00727918      -0.00799651      -0.02305483
Pt       8.42164211       3.24149148      19.95766852        3       0.00481863      -0.00644358      -0.02542561
Pt       4.21082074       5.67261030      19.95766878        3       0.00343148      -0.00732759      -0.02404141
Pt       7.01803477       5.67261047      19.95766871        3       0.00745623      -0.00853091      -0.02265545
Pt       9.82524854       5.67261039      19.95766860        3       0.00373747      -0.00738859      -0.02553714
Pt       0.00000046       1.62074540      22.29208304        2       0.00014080       0.01153476       0.00977897
Pt       2.80721419       1.62074531      22.29208311        2      -0.01669775       0.01177708       0.03091392
Pt       5.61442748       1.62074566      22.29208290        2      -0.01722612       0.02236231       0.00565710
Pt       1.40360675       4.05186459      22.29208313        2      -0.00151484       0.01286794       0.03132607
Pt       4.21082083       4.05186449      22.29208278        2      -0.01188859       0.02041834       0.03185888
Pt       7.01803481       4.05186460      22.29208288        2      -0.01938920       0.02849339       0.02158846
Pt       2.80721463       6.48298242      22.29208276        2      -0.00128284       0.00717109       0.02185495
Pt       5.61442775       6.48298327      22.29208278        2      -0.00688987       0.01149615       0.04659824
Pt       8.42164096       6.48298261      22.29208273        2      -0.02274707       0.01431783       0.02603148
Pt      -0.01680713       0.02598903      24.63156679        1       0.01586998      -0.03600835       0.00707250
Pt       2.79113034       0.02630876      24.63650805        1      -0.00672728      -0.03744668      -0.02338382
Pt       5.59876209       0.02316101      24.62522680        1      -0.00823704      -0.01622470       0.02710724
Pt       1.38263030       2.45493335      24.63598063        1       0.03551506      -0.01087316      -0.00971310
Pt       4.19079041       2.45370621      24.63027545        1       0.01344004      -0.00150477       0.00933782
Pt       7.00245279       2.45412906      24.62591020        1      -0.01288892      -0.00074899       0.03010244
Pt       2.79092773       4.88512126      24.63648553        1       0.00499280      -0.00688949      -0.01811282
Pt       5.59450584       4.88336802      24.63674592        1       0.02247252       0.01349790      -0.02460733
Pt       8.40612244       4.88222944      24.63187932        1      -0.01224173       0.02209563      -0.01454512
C        8.45304828       4.83544735      29.25111730        0       0.01140273      -0.00272550      -0.00334013
H        7.61260935       5.14393727      29.89115200        0      -0.00428686       0.00533085      -0.00264923
H        9.31403457       4.56526024      29.88012842        0       0.01543497      -0.01197006       0.02428485
H        8.73519633       5.66604887      28.58691449        0      -0.01560363       0.00648455      -0.00685091
H        8.15584781       3.96554529      28.64626639        0      -0.00729337       0.00216514      -0.00316122
