32
Lattice="8.421641763931781 0.0 0.0 4.2108208819658905 7.293355709136913 0.0 0.0 0.0 44.584161137365626" Properties=species:S:1:pos:R:3:tags:I:1:forces:R:3 charge=0 spin=0 energy=-161.47940501683684 free_energy=-161.47940501683684 stress="0.012341062538325787 6.161480268929154e-05 1.7510006728116423e-05 6.161480268929154e-05 0.012331195175647736 -1.0045302587968763e-05 1.7510006728116423e-05 -1.0045302587968763e-05 -0.0001140320673584938" pbc="T T T"
Pt       1.40360727       0.81037244      19.95766877        3      -0.01179000      -0.00051307      -0.02197750
Pt       4.21082123       0.81037256      19.95766888        3      -0.01226401      -0.00069106      -0.02627845
Pt       7.01803445       0.81037243      19.95766851        3      -0.01609140       0.00055532      -0.02416989
Pt       2.80721413       3.24149135      19.95766844        3      -0.01150786       0.00053925      -0.02534007
Pt       5.61442751       3.24149134      19.95766853        3      -0.01536205      -0.00019151      -0.02533091
Pt       8.42164211       3.24149148      19.95766852        3      -0.01602841       0.00039452      -0.02402733
Pt       4.21082074       5.67261030      19.95766878        3      -0.01330772      -0.00206745      -0.02476187
Pt       7.01803477       5.67261047      19.95766871        3      -0.01400992      -0.00291846      -0.02586732
Pt       9.82524854       5.67261039      19.95766860        3      -0.01368438      -0.00106382      -0.02684617
Pt       0.00000046       1.62074540      22.29208304        2       0.03289371      -0.00178309       0.04551202
Pt       2.80721419       1.62074531      22.29208311        2       0.01156547      -0.00664109       0.03381780
Pt       5.61442748       1.62074566      22.29208290        2       0.04033507      -0.00492406       0.02232060
Pt       1.40360675       4.05186459      22.29208313        2       0.02369419      -0.00238785       0.04394146
Pt       4.21082083       4.05186449      22.29208278        2       0.02783170       0.00280909       0.01586512
Pt       7.01803481       4.05186460      22.29208288        2       0.03912771       0.00291255       0.03084794
Pt       2.80721463       6.48298242      22.29208276        2       0.03565358       0.00488190       0.03853263
Pt       5.61442775       6.48298327      22.29208278        2       0.02579620       0.01202219       0.04433515
Pt       8.42164096       6.48298261      22.29208273        2       0.02531888       0.00190173       0.04438864
Pt       0.04443930       0.00831105      24.63934451        1      -0.01187540      -0.02177724      -0.02824674
Pt       2.84933838       0.00278160      24.63809235        1      -0.00807781      -0.00594614      -0.02259627
Pt       5.66151820       0.00435613      24.63368593        1      -0.01963194      -0.00916397      -0.00588652
Pt       1.44675757       2.43607059      24.63872114        1      -0.01206760      -0.00138016      -0.02440892
Pt       4.25183009       2.42738106      24.62744687        1       0.00248966       0.03149032       0.02052906
Pt       7.06281483       2.43876062      24.63569969        1      -0.00932011      -0.01450442      -0.01651189
Pt       2.85740203       4.86444951      24.63174454        1      -0.04047370       0.01252033       0.00088651
Pt       5.65948707       4.86381476      24.63089986        1      -0.01359624       0.01659472      -0.00110608
Pt       8.47000986       4.86936959      24.63698849        1      -0.02488398      -0.01186934      -0.02253573
C        5.59749509       3.45502468      29.42270207        0      -0.03146206      -0.00628431       0.02429529
H        5.88517319       2.39412471      29.38026784        0       0.01012070      -0.01966320      -0.01870693
H        5.95377499       3.88994887      30.36901686        0       0.00555258       0.02028750      -0.00929325
H        4.50111733       3.53791086      29.37144203        0      -0.00294397       0.00182076       0.00341419
H        6.04392047       3.99381498      28.57386780        0       0.01799886       0.00504000       0.00520542
