32
Lattice="8.421641763931781 0.0 0.0 4.2108208819658905 7.293355709136913 0.0 0.0 0.0 44.584161137365626" Properties=species:S:1:pos:R:3:tags:I:1:forces:R:3 charge=0 spin=0 energy=-161.48245009892912 free_energy=-161.48245009892912 stress="0.012330382131040096 1.4510000255540945e-05 3.110956868113135e-06 1.4510000255540945e-05 0.012339165434241295 -3.1662568744650343e-06 3.110956868113135e-06 -3.1662568744650343e-06 -0.00013447226956486702" pbc="T T T"
Pt       1.40360727       0.81037244      19.95766877        3      -0.00151286       0.00210045      -0.02404552
Pt       4.21082123       0.81037256      19.95766888        3      -0.00122472       0.00071186      -0.02379415
Pt       7.01803445       0.81037243      19.95766851        3      -0.00004733       0.00353365      -0.02597508
Pt       2.80721413       3.24149135      19.95766844        3      -0.00151664       0.00389369      -0.02247447
Pt       5.61442751       3.24149134      19.95766853        3       0.00225767       0.00337668      -0.02424154
Pt       8.42164211       3.24149148      19.95766852        3      -0.00406867       0.00404390      -0.02638224
Pt       4.21082074       5.67261030      19.95766878        3       0.00025035       0.00231130      -0.02414353
Pt       7.01803477       5.67261047      19.95766871        3      -0.00122001       0.00301954      -0.02461102
Pt       9.82524854       5.67261039      19.95766860        3      -0.00222098       0.00124756      -0.02515358
Pt       0.00000046       1.62074540      22.29208304        2       0.00166261      -0.01121329       0.04223167
Pt       2.80721419       1.62074531      22.29208311        2       0.00465475      -0.00636166       0.03388869
Pt       5.61442748       1.62074566      22.29208290        2       0.00146192      -0.00411391       0.04273942
Pt       1.40360675       4.05186459      22.29208313        2       0.01373149      -0.00231302       0.02832190
Pt       4.21082083       4.05186449      22.29208278        2      -0.00913151      -0.00555985       0.02770176
Pt       7.01803481       4.05186460      22.29208288        2       0.00143376      -0.01685419       0.02644264
Pt       2.80721463       6.48298242      22.29208276        2       0.00327108      -0.00653317       0.04887876
Pt       5.61442775       6.48298327      22.29208278        2       0.00199085      -0.00190084       0.02840485
Pt       8.42164096       6.48298261      22.29208273        2       0.00164882       0.00404874       0.02390208
Pt       0.00871558      -0.01194047      24.63580350        1      -0.03123246       0.02419105      -0.01673992
Pt       2.80959572      -0.00802695      24.63480329        1       0.00375773       0.00437269      -0.01447324
Pt       5.61459388      -0.00862005      24.63294633        1       0.02184271       0.00868490      -0.00647333
Pt       1.40839540       2.42713171      24.63218142        1      -0.01557301      -0.02203869       0.00054718
Pt       4.21078821       2.42646482      24.63448757        1       0.02265711      -0.02415538      -0.00824181
Pt       7.02278689       2.41762623      24.63564639        1      -0.00551981       0.01383578      -0.02475470
Pt       2.81267084       4.85515515      24.63929045        1      -0.01320192       0.00909729      -0.02607639
Pt       5.61701298       4.84933205      24.63023340        1       0.00969586       0.01767617       0.00576216
Pt       8.42539316       4.85500789      24.62803055        1      -0.00327777      -0.00512766       0.01201104
C        6.96600010       4.93136943      29.56083105        0      -0.00003813       0.00015466      -0.03632469
H        7.53833097       5.63410348      30.18542553        0      -0.02675867      -0.00849171       0.03156717
H        6.35753566       4.27039582      30.19676276        0       0.02635045       0.00971445       0.03272048
H        7.66556233       4.32579131      28.96520179        0      -0.00883131      -0.01067597      -0.01459437
H        6.30249356       5.49509092      28.88792580        0       0.00870874       0.00932497      -0.01662015
