32
Lattice="8.421641763931781 0.0 0.0 4.2108208819658905 7.293355709136913 0.0 0.0 0.0 44.584161137365626" Properties=species:S:1:pos:R:3:tags:I:1:forces:R:3 charge=0 spin=0 energy=-161.48198184483977 free_energy=-161.48198184483977 stress="0.012236211448907852 -3.931688752345508e-06 -6.804883469158085e-06 -3.931688752345508e-06 0.012275474146008492 -3.7148215596971568e-06 -6.804883469158085e-06 -3.7148215596971568e-06 -0.0001851187989814207" pbc="T T T"
Pt       1.40360727       0.81037244      19.95766877        3       0.00187646       0.00270437      -0.02419054
Pt       4.21082123       0.81037256      19.95766888        3       0.00074296       0.00202513      -0.02447610
Pt       7.01803445       0.81037243      19.95766851        3       0.00200463       0.00189992      -0.02327945
Pt       2.80721413       3.24149135      19.95766844        3       0.00135447       0.00354183      -0.02548161
Pt       5.61442751       3.24149134      19.95766853        3       0.00282731       0.00409596      -0.02273034
Pt       8.42164211       3.24149148      19.95766852        3       0.00099032       0.00389564      -0.02437601
Pt       4.21082074       5.67261030      19.95766878        3       0.00263875       0.00168116      -0.02434107
Pt       7.01803477       5.67261047      19.95766871        3       0.00141893       0.00362541      -0.02359828
Pt       9.82524854       5.67261039      19.95766860        3       0.00081180       0.00112251      -0.02502705
Pt       0.00000046       1.62074540      22.29208304        2      -0.00475038      -0.00833164       0.02460082
Pt       2.80721419       1.62074531      22.29208311        2      -0.00155291      -0.00913696       0.03200024
Pt       5.61442748       1.62074566      22.29208290        2      -0.00112503      -0.00481253       0.02560043
Pt       1.40360675       4.05186459      22.29208313        2      -0.00334500      -0.00504533       0.01932477
Pt       4.21082083       4.05186449      22.29208278        2      -0.00381878      -0.00577605       0.02209490
Pt       7.01803481       4.05186460      22.29208288        2      -0.00592505      -0.01440979       0.01700709
Pt       2.80721463       6.48298242      22.29208276        2      -0.00442060       0.00156929       0.02813885
Pt       5.61442775       6.48298327      22.29208278        2      -0.00211285      -0.00480545       0.02154942
Pt       8.42164096       6.48298261      22.29208273        2      -0.00380408      -0.00148739       0.01889088
Pt       0.00028949      -0.00913818      24.63199395        1      -0.02644040       0.00538353       0.00042790
Pt       2.80205172      -0.01208319      24.63456924        1       0.00088502       0.02931220      -0.00967764
Pt       5.60459766      -0.00777645      24.63123405        1       0.02964583      -0.00254262       0.00311123
Pt       1.39873754       2.42513645      24.63005496        1       0.00550199      -0.00968390       0.00671249
Pt       4.20595209       2.42391262      24.63098158        1      -0.00257987      -0.00464257       0.00174240
Pt       7.01451872       2.41853808      24.63375965        1      -0.00536895       0.00922245      -0.00793204
Pt       2.80231540       4.85733296      24.62879793        1       0.00011576      -0.00984820       0.01070188
Pt       5.61184577       4.85095185      24.63225594        1      -0.01707431       0.00737774      -0.00013017
Pt       8.41236865       4.85277504      24.63019395        1       0.03002561       0.00239975       0.00901106
C        6.96029715       5.01175792      29.70212995        0      -0.00137744      -0.00975749      -0.00348995
H        7.55281992       5.75318360      30.25775551        0       0.02825947       0.01937927       0.00394301
H        6.31472814       4.46269580      30.40352557        0      -0.02498210      -0.01058678       0.00130300
H        7.63335341       4.30619920      29.19398022        0       0.03755216      -0.01987101      -0.00002237
H        6.34095082       5.52383956      28.95185789        0      -0.03797358       0.02150157      -0.00740780
