32
Lattice="8.421641763931781 0.0 0.0 4.2108208819658905 7.293355709136913 0.0 0.0 0.0 44.584161137365626" Properties=species:S:1:pos:R:3:tags:I:1:forces:R:3 charge=0 spin=0 energy=-161.48441562169523 free_energy=-161.48441562169523 stress="0.012273507192730904 4.857918611378409e-06 -6.940769026186899e-07 4.857918611378409e-06 0.012242982164025307 9.226966994901886e-07 -6.940769026186899e-07 9.226966994901886e-07 -0.00020952994236722589" pbc="T T T"
Pt       1.40360727       0.81037244      19.95766877        3       0.00123191      -0.00001638      -0.02391999
Pt       4.21082123       0.81037256      19.95766888        3       0.00031434      -0.00232736      -0.02421543
Pt       7.01803445       0.81037243      19.95766851        3      -0.00031359      -0.00005929      -0.02404629
Pt       2.80721413       3.24149135      19.95766844        3      -0.00129114       0.00006983      -0.02403547
Pt       5.61442751       3.24149134      19.95766853        3       0.00195016       0.00019454      -0.02383829
Pt       8.42164211       3.24149148      19.95766852        3       0.00049244      -0.00029053      -0.02402801
Pt       4.21082074       5.67261030      19.95766878        3       0.00037933      -0.00150521      -0.02417820
Pt       7.01803477       5.67261047      19.95766871        3       0.00074216      -0.00053288      -0.02409082
Pt       9.82524854       5.67261039      19.95766860        3      -0.00008447      -0.00069905      -0.02416601
Pt       0.00000046       1.62074540      22.29208304        2      -0.00027029       0.00434424       0.01923036
Pt       2.80721419       1.62074531      22.29208311        2      -0.00352717      -0.00096121       0.01731526
Pt       5.61442748       1.62074566      22.29208290        2       0.00228773      -0.00005113       0.01831190
Pt       1.40360675       4.05186459      22.29208313        2       0.00285977      -0.00084778       0.02280802
Pt       4.21082083       4.05186449      22.29208278        2      -0.00139841       0.00499296       0.01918226
Pt       7.01803481       4.05186460      22.29208288        2      -0.00479111      -0.00005707       0.02245420
Pt       2.80721463       6.48298242      22.29208276        2      -0.00383179       0.00001792       0.02013906
Pt       5.61442775       6.48298327      22.29208278        2       0.00141149      -0.00165458       0.01964456
Pt       8.42164096       6.48298261      22.29208273        2      -0.00046231       0.00530575       0.02229353
Pt      -0.00128159       0.00189007      24.62821108        1      -0.00004497      -0.00122453       0.01751166
Pt       2.80542427       0.00276501      24.63199523        1       0.00458460      -0.00902921      -0.00053363
Pt       5.61355048       0.00230583      24.63208677        1      -0.00329945      -0.00740959      -0.00141620
Pt       1.40289073       2.43239070      24.63202956        1      -0.00514345       0.00610916      -0.00078711
Pt       4.20954287       2.43289885      24.62778872        1       0.00109380       0.00029342       0.01850194
Pt       7.01608738       2.43238079      24.63209983        1       0.00577476       0.00526959      -0.00113068
Pt       2.80670073       4.86408009      24.63231537        1      -0.00681529      -0.00010693      -0.00177052
Pt       5.61259559       4.86395440      24.63234943        1       0.00742436       0.00040520      -0.00193895
Pt       8.42031110       4.86399814      24.62944842        1       0.00074632      -0.00019817       0.00521680
C        8.42257291       4.86391400      29.82779156        0      -0.00007194       0.00006231       0.03090150
H        7.55306104       4.63486825      30.46367265        0       0.01233154       0.00243378      -0.01571501
H        9.29057553       5.09575433      30.46472537        0      -0.01237285      -0.00246678      -0.01584313
H        8.19279871       5.72907092      29.18862972        0      -0.00593556       0.02675069       0.00099313
H        8.65384607       3.99594229      29.19300335        0       0.00602925      -0.02681174       0.00114980
