32
Lattice="8.421641763931781 0.0 0.0 4.2108208819658905 7.293355709136913 0.0 0.0 0.0 44.584161137365626" Properties=species:S:1:pos:R:3:tags:I:1:forces:R:3 charge=0 spin=0 energy=-161.47940692418547 free_energy=-161.47940692418547 stress="0.012341197580099106 6.160968041513115e-05 1.757066638674587e-05 6.160968041513115e-05 0.012331299483776093 -9.973070518753957e-06 1.757066638674587e-05 -9.973070518753957e-06 -0.00011383013043086976" pbc="T T T"
Pt       1.40360727       0.81037244      19.95766877        3      -0.01179140      -0.00051446      -0.02197918
Pt       4.21082123       0.81037256      19.95766888        3      -0.01226339      -0.00069131      -0.02627737
Pt       7.01803445       0.81037243      19.95766851        3      -0.01608942       0.00055357      -0.02417209
Pt       2.80721413       3.24149135      19.95766844        3      -0.01150751       0.00053996      -0.02533926
Pt       5.61442751       3.24149134      19.95766853        3      -0.01536064      -0.00019172      -0.02532913
Pt       8.42164211       3.24149148      19.95766852        3      -0.01602610       0.00039640      -0.02402905
Pt       4.21082074       5.67261030      19.95766878        3      -0.01330791      -0.00206687      -0.02476276
Pt       7.01803477       5.67261047      19.95766871        3      -0.01400771      -0.00291848      -0.02586708
Pt       9.82524854       5.67261039      19.95766860        3      -0.01368331      -0.00106378      -0.02685022
Pt       0.00000046       1.62074540      22.29208304        2       0.03290075      -0.00179329       0.04552522
Pt       2.80721419       1.62074531      22.29208311        2       0.01157201      -0.00664306       0.03384976
Pt       5.61442748       1.62074566      22.29208290        2       0.04031853      -0.00492082       0.02232368
Pt       1.40360675       4.05186459      22.29208313        2       0.02369167      -0.00239619       0.04394562
Pt       4.21082083       4.05186449      22.29208278        2       0.02783155       0.00280361       0.01587028
Pt       7.01803481       4.05186460      22.29208288        2       0.03912202       0.00291781       0.03084583
Pt       2.80721463       6.48298242      22.29208276        2       0.03565839       0.00488760       0.03855673
Pt       5.61442775       6.48298327      22.29208278        2       0.02579490       0.01203105       0.04437162
Pt       8.42164096       6.48298261      22.29208273        2       0.02530500       0.00190875       0.04440782
Pt       0.04443686       0.00831168      24.63935376        1      -0.01187321      -0.02179112      -0.02829346
Pt       2.84933761       0.00278557      24.63810153        1      -0.00808889      -0.00596687      -0.02264163
Pt       5.66151212       0.00436014      24.63368551        1      -0.01961547      -0.00919029      -0.00588629
Pt       1.44675667       2.43606658      24.63872556        1      -0.01207315      -0.00136782      -0.02442273
Pt       4.25183187       2.42738830      24.62745632        1       0.00245887       0.03145350       0.02049384
Pt       7.06281018       2.43875832      24.63569646        1      -0.00930187      -0.01449734      -0.01648899
Pt       2.85739623       4.86444558      24.63174309        1      -0.04046394       0.01255397       0.00088967
Pt       5.65948302       4.86381507      24.63090227        1      -0.01358869       0.01661947      -0.00111353
Pt       8.47000550       4.86936728      24.63698560        1      -0.02487633      -0.01184876      -0.02253391
C        5.59749406       3.45503013      29.42278966        0      -0.03149671      -0.00625827       0.02467781
H        5.95379439       3.88994253      30.36911577        0       0.00541756       0.02015650      -0.00961185
H        5.88516942       2.39412805      29.38034029        0       0.01010128      -0.01960609      -0.01871775
H        6.04390659       3.99382953      28.57396018        0       0.01805059       0.00509098       0.00512300
H        4.50111174       3.53791994      29.37154864        0      -0.00280741       0.00181332       0.00343548
