32
Lattice="8.421641763931781 0.0 0.0 4.2108208819658905 7.293355709136913 0.0 0.0 0.0 44.584161137365626" Properties=species:S:1:pos:R:3:tags:I:1:forces:R:3 charge=0 spin=0 energy=-161.46804198735686 free_energy=-161.46804198735686 stress="0.012178150936961174 -2.5145388917735545e-06 7.160528639360564e-06 -2.5145388917735545e-06 0.012388269416987896 -1.9496850654832087e-05 7.160528639360564e-06 -1.9496850654832087e-05 -0.00031241861870512366" pbc="T T T"
Pt       1.40360727       0.81037244      19.95766877        3       0.00077015       0.02382909      -0.02399417
Pt       4.21082123       0.81037256      19.95766888        3       0.00103205       0.02386000      -0.02391616
Pt       7.01803445       0.81037243      19.95766851        3       0.00143503       0.02763821      -0.02590461
Pt       2.80721413       3.24149135      19.95766844        3       0.00093758       0.02822675      -0.01942840
Pt       5.61442751       3.24149134      19.95766853        3       0.00437293       0.02840946      -0.02605114
Pt       8.42164211       3.24149148      19.95766852        3      -0.00174057       0.02840913      -0.02609283
Pt       4.21082074       5.67261030      19.95766878        3       0.00366143       0.02640548      -0.02603549
Pt       7.01803477       5.67261047      19.95766871        3       0.00059855       0.02477477      -0.02617368
Pt       9.82524854       5.67261039      19.95766860        3      -0.00099849       0.02670688      -0.02606450
Pt       0.00000046       1.62074540      22.29208304        2       0.00280831      -0.05664236       0.01684410
Pt       2.80721419       1.62074531      22.29208311        2       0.00058437      -0.04415404       0.01076138
Pt       5.61442748       1.62074566      22.29208290        2      -0.00443385      -0.05559336       0.01665253
Pt       1.40360675       4.05186459      22.29208313        2       0.01391141      -0.06117085       0.01324564
Pt       4.21082083       4.05186449      22.29208278        2      -0.01818717      -0.06188611       0.01349390
Pt       7.01803481       4.05186460      22.29208288        2      -0.00056110      -0.06024488       0.00777042
Pt       2.80721463       6.48298242      22.29208276        2      -0.00435491      -0.05444348       0.02329762
Pt       5.61442775       6.48298327      22.29208278        2      -0.00592454      -0.04858024       0.00411713
Pt       8.42164096       6.48298261      22.29208273        2       0.00420261      -0.04572339       0.00791337
Pt      -0.00124853      -0.08890259      24.63328523        1      -0.00484096       0.03367859       0.00787154
Pt       2.80611761      -0.08488525      24.62922047        1       0.00044933       0.00395091       0.02044816
Pt       5.61317868      -0.08858705      24.63432811        1       0.00566722       0.02916443       0.00677030
Pt       1.40317585       2.34032614      24.63430576        1      -0.00601002       0.04348677       0.00409019
Pt       4.20984406       2.33975338      24.63449527        1       0.00177753       0.04595772       0.00284340
Pt       7.01660320       2.34147592      24.63121703        1       0.00360178       0.03925477       0.00926518
Pt       2.80629287       4.77459141      24.63659002        1      -0.00104838       0.01541271      -0.00419872
Pt       5.60864083       4.77487287      24.62605898        1       0.02826662       0.01750436       0.02168533
Pt       8.42540714       4.77455133      24.62614624        1      -0.02690010       0.02014358       0.02095577
C        6.99048827       4.90914939      29.14991680        0      -0.00070430      -0.00084287      -0.02077929
H        7.78750856       5.35663718      29.76427183        0      -0.03587490       0.00469203       0.00134322
H        6.19179088       4.51918593      29.80009269        0       0.03326305      -0.00304552       0.00933769
H        7.41322033       4.08784010      28.55085207        0      -0.01898212       0.00096794       0.01331943
H        6.56899165       5.67175922      28.47677491        0       0.02322173      -0.00014630       0.01661280
