32
Lattice="8.421641763931781 0.0 0.0 4.2108208819658905 7.293355709136913 0.0 0.0 0.0 44.584161137365626" Properties=species:S:1:pos:R:3:tags:I:1:forces:R:3 charge=0 spin=0 energy=-161.48478469365568 free_energy=-161.48478469365568 stress="0.012278491631150246 -1.6410893977081287e-06 1.027254825203272e-06 -1.6410893977081287e-06 0.012312820181250572 -2.820000645442633e-06 1.027254825203272e-06 -2.820000645442633e-06 -0.00017040688544511795" pbc="T T T"
Pt       1.40360727       0.81037244      19.95766877        3      -0.00025558       0.00081895      -0.02394003
Pt       4.21082123       0.81037256      19.95766888        3      -0.00050915       0.00068297      -0.02367659
Pt       7.01803445       0.81037243      19.95766851        3      -0.00034683       0.00295793      -0.02473267
Pt       2.80721413       3.24149135      19.95766844        3      -0.00020734       0.00278799      -0.02259585
Pt       5.61442751       3.24149134      19.95766853        3       0.00130987       0.00336085      -0.02496586
Pt       8.42164211       3.24149148      19.95766852        3      -0.00166126       0.00349050      -0.02462542
Pt       4.21082074       5.67261030      19.95766878        3       0.00104432       0.00105214      -0.02423142
Pt       7.01803477       5.67261047      19.95766871        3      -0.00038887       0.00075335      -0.02375269
Pt       9.82524854       5.67261039      19.95766860        3      -0.00159642       0.00146266      -0.02441215
Pt       0.00000046       1.62074540      22.29208304        2       0.00209502      -0.00692234       0.02574616
Pt       2.80721419       1.62074531      22.29208311        2       0.00088273      -0.00187542       0.02701768
Pt       5.61442748       1.62074566      22.29208290        2       0.00103679      -0.00499422       0.02528830
Pt       1.40360675       4.05186459      22.29208313        2       0.00453177      -0.00532830       0.02560764
Pt       4.21082083       4.05186449      22.29208278        2      -0.00538341      -0.00437958       0.02547379
Pt       7.01803481       4.05186460      22.29208288        2       0.00082027      -0.00589297       0.02333098
Pt       2.80721463       6.48298242      22.29208276        2       0.00051568      -0.00491506       0.02973562
Pt       5.61442775       6.48298327      22.29208278        2      -0.00084892      -0.00221069       0.02283449
Pt       8.42164096       6.48298261      22.29208273        2       0.00279277      -0.00077207       0.02199763
Pt       0.00185690      -0.00661080      24.63206654        1      -0.00536033       0.00333992       0.00186204
Pt       2.80828069      -0.00630535      24.63194512        1      -0.00046538       0.00349166      -0.00158780
Pt       5.61498187      -0.00647553      24.63199605        1       0.00354040       0.00266768       0.00257412
Pt       1.40392999       2.42510818      24.63193933        1       0.00450714       0.00138045       0.00093634
Pt       4.21263353       2.42508225      24.63182104        1      -0.00452475       0.00078169       0.00163804
Pt       7.01926447       2.42484096      24.63206588        1      -0.00085536       0.00163409      -0.00197775
Pt       2.80831457       4.85581347      24.63418563        1       0.00002787       0.00302596      -0.00528141
Pt       5.61457928       4.85584352      24.63147893        1       0.00464145       0.00192535      -0.00531665
Pt       8.42372374       4.85618414      24.63144026        1      -0.00532881       0.00168941      -0.00514689
C        7.01888875       4.85948417      29.34222298        0       0.00002276      -0.00004068       0.03425937
H        7.18309799       3.97629697      29.98022206        0      -0.00521386       0.02838097      -0.01855726
H        6.85093640       5.74475223      29.97634111        0       0.00530750      -0.02831435      -0.01830287
H        6.13771907       4.69207812      28.70447702        0       0.00035846       0.00089721       0.00239512
H        7.90381403       5.02479819      28.70913811        0      -0.00048858      -0.00093608       0.00240637
