31
Lattice="8.421641763931781 0.0 0.0 4.2108208819658905 7.293355709136913 0.0 0.0 0.0 44.584161137365626" Properties=species:S:1:pos:R:3:tags:I:1:forces:R:3 energy=-172.57716369628906 free_energy=-172.57716369628906 stress="0.010478965938091278 2.3739217258622602e-09 -2.6989637191832117e-09 2.3739217258622602e-09 0.010478971526026726 3.6212910448085722e-09 -2.6989637191832117e-09 3.6212910448085722e-09 -0.0001822105550672859" pbc="T T T"
Pt       1.40360696       0.81037286      20.00000000        3       0.00106699       0.00043525      -0.00487119
Pt       4.21082088       0.81037286      20.00000000        3      -0.00091083       0.00070282      -0.00487030
Pt       7.01803480       0.81037286      20.00000000        3      -0.00009047       0.00047738      -0.00420848
Pt       2.80721392       3.24149143      20.00000000        3      -0.00015228      -0.00114275      -0.00487161
Pt       5.61442784       3.24149143      20.00000000        3       0.00003931       0.00009017       0.00331938
Pt       8.42164176       3.24149143      20.00000000        3      -0.00009756      -0.00000844       0.00331798
Pt       4.21082088       5.67261000      20.00000000        3       0.00046177      -0.00016257      -0.00420776
Pt       7.01803480       5.67261000      20.00000000        3       0.00005502      -0.00007888       0.00331855
Pt       9.82524872       5.67261000      20.00000000        3      -0.00037210      -0.00031380      -0.00420862
Pt      -0.00000000       1.62074571      22.29208057        2      -0.02726764       0.03339154      -0.00389013
Pt       2.80721392       1.62074571      22.29208057        2       0.00000093      -0.00000110      -0.05327078
Pt       5.61442784       1.62074571      22.29208057        2       0.02598039       0.03246838      -0.00567615
Pt       1.40360696       4.05186428      22.29208057        2      -0.04111027       0.00626716      -0.00567489
Pt       4.21082088       4.05186428      22.29208057        2       0.04255638       0.00691859      -0.00389113
Pt       7.01803480       4.05186428      22.29208057        2      -0.00000288       0.00000063       0.05031693
Pt       2.80721392       6.48298285      22.29208057        2       0.00000044       0.00000163      -0.03515342
Pt       5.61442784       6.48298285      22.29208057        2       0.01512644      -0.03873665      -0.00567473
Pt       8.42164176       6.48298285      22.29208057        2      -0.01528349      -0.04030958      -0.00389159
Pt      -0.00188895      -0.00020535      24.57707655        1       0.00315122       0.00670961      -0.00708422
Pt       2.80770915       0.00689213      24.57902274        1       0.00323715      -0.01788597      -0.00410679
Pt       5.61554984      -0.00153367      24.57707657        1      -0.00738461      -0.00062448      -0.00708455
Pt       1.40932841       2.42724358      24.57902269        1      -0.01710806       0.00614009      -0.00410655
Pt       4.20460457       2.42810125      24.57902258        1       0.01386976       0.01174528      -0.00410742
Pt       7.01544311       2.41651333      24.58942614        1      -0.00550667       0.02317722       0.00538582
Pt       2.80798107       4.86397589      24.57707655        1       0.00423296      -0.00608506      -0.00708249
Pt       5.60307488       4.87178397      24.58942600        1       0.02282725      -0.00681730       0.00538372
Pt       8.43558592       4.86729582      24.58942626        1      -0.01731962      -0.01635945       0.00538571
N        7.01803463       4.05186443      27.59415642        0       0.00002633      -0.00002929       0.00236574
H        6.54966031       3.23095324      27.19876079        0       0.03266998       0.00887381       0.03304968
H        6.54129227       4.86794382      27.19876077        0      -0.00866625      -0.03270522       0.03303574
H        7.96315191       4.05669550      27.19876069        0      -0.02402984       0.02386094       0.03305348
