32
Lattice="8.421641763931781 0.0 0.0 4.2108208819658905 7.293355709136913 0.0 0.0 0.0 44.584161137365626" Properties=species:S:1:pos:R:3:tags:I:1:forces:R:3 charge=0 spin=0 energy=-161.48147353642912 free_energy=-161.48147353642912 stress="0.012235945090651512 2.8390986699378118e-05 2.670214144018246e-06 2.8390986699378118e-05 0.012286831624805927 -2.0584035155479796e-05 2.670214144018246e-06 -2.0584035155479796e-05 -0.0002324037195648998" pbc="T T T"
Pt       1.40360727       0.81037244      19.95766877        3      -0.00311349       0.00379430      -0.02300914
Pt       4.21082123       0.81037256      19.95766888        3      -0.00228730       0.00668907      -0.02432266
Pt       7.01803445       0.81037243      19.95766851        3      -0.00346687       0.00651892      -0.02402716
Pt       2.80721413       3.24149135      19.95766844        3      -0.00057350       0.00603609      -0.02290140
Pt       5.61442751       3.24149134      19.95766853        3      -0.00292900       0.00549133      -0.02355074
Pt       8.42164211       3.24149148      19.95766852        3      -0.00504799       0.00582181      -0.02340757
Pt       4.21082074       5.67261030      19.95766878        3      -0.00242073       0.00472222      -0.02543625
Pt       7.01803477       5.67261047      19.95766871        3      -0.00409164       0.00450150      -0.02503823
Pt       9.82524854       5.67261039      19.95766860        3      -0.00287256       0.00601865      -0.02431391
Pt       0.00000046       1.62074540      22.29208304        2       0.01067485      -0.01191199       0.02759874
Pt       2.80721419       1.62074531      22.29208311        2       0.00493842      -0.01002033       0.03606449
Pt       5.61442748       1.62074566      22.29208290        2       0.00454956      -0.01276230       0.02680254
Pt       1.40360675       4.05186459      22.29208313        2       0.00671868      -0.01646959       0.02253860
Pt       4.21082083       4.05186449      22.29208278        2      -0.00122046      -0.01970753       0.01210471
Pt       7.01803481       4.05186460      22.29208288        2       0.01301644      -0.01516096       0.00874154
Pt       2.80721463       6.48298242      22.29208276        2       0.00395180      -0.01147466       0.01902761
Pt       5.61442775       6.48298327      22.29208278        2       0.00906701       0.00007216       0.01709290
Pt       8.42164096       6.48298261      22.29208273        2       0.00869369      -0.00804760       0.02242653
Pt       0.00832349      -0.01827426      24.63101996        1       0.00778610       0.01683788       0.00753196
Pt       2.81894644      -0.01890574      24.63220535        1      -0.01130938       0.02067458      -0.00031289
Pt       5.62500302      -0.01731921      24.63219426        1      -0.00936620       0.00516449      -0.00134001
Pt       1.41336262       2.41319852      24.63350525        1       0.00278569       0.00101404      -0.00807373
Pt       4.22214916       2.41443218      24.63532144        1      -0.01715257      -0.00708545      -0.02077484
Pt       7.02813577       2.41468741      24.63270861        1       0.00016874      -0.00569637      -0.00715997
Pt       2.81789439       4.84438338      24.63032617        1      -0.01291787       0.00340877       0.00846412
Pt       5.62360984       4.84488048      24.62562671        1      -0.00009659       0.00863317       0.02487162
Pt       8.43079344       4.84354641      24.62959131        1       0.00595223       0.01241384       0.01152743
C        5.58964002       3.24804697      29.33634217        0      -0.00122741       0.00186660      -0.01881679
H        4.90040550       2.78789543      30.06081171        0       0.00462911       0.02290466       0.01173905
H        6.57818238       3.38597855      29.79885260        0       0.01136059      -0.00979251       0.02332206
H        5.19725104       4.22500774      29.01751742        0      -0.02674188       0.01787363       0.01735601
H        5.68528532       2.59375577      28.45806185        0       0.01254241      -0.03232843      -0.02472467
