32
Lattice="8.421641763931781 0.0 0.0 4.2108208819658905 7.293355709136913 0.0 0.0 0.0 44.584161137365626" Properties=species:S:1:pos:R:3:tags:I:1:forces:R:3 charge=0 spin=0 energy=-161.48315391057463 free_energy=-161.48315391057463 stress="0.01220826618373394 2.034994940913748e-05 2.949763029391761e-06 2.034994940913748e-05 0.012280097231268883 -9.402253454027232e-06 2.949763029391761e-06 -9.402253454027232e-06 -0.00023467905703000724" pbc="T T T"
Pt       1.40360727       0.81037244      19.95766877        3      -0.00368349       0.00570975      -0.02356662
Pt       4.21082123       0.81037256      19.95766888        3      -0.00363432       0.00603884      -0.02412464
Pt       7.01803445       0.81037243      19.95766851        3      -0.00343092       0.00751199      -0.02438992
Pt       2.80721413       3.24149135      19.95766844        3      -0.00328039       0.00682266      -0.02338895
Pt       5.61442751       3.24149134      19.95766853        3      -0.00236642       0.00703217      -0.02392527
Pt       8.42164211       3.24149148      19.95766852        3      -0.00477488       0.00705684      -0.02393711
Pt       4.21082074       5.67261030      19.95766878        3      -0.00256053       0.00538204      -0.02400710
Pt       7.01803477       5.67261047      19.95766871        3      -0.00362582       0.00501700      -0.02356219
Pt       9.82524854       5.67261039      19.95766860        3      -0.00457015       0.00550418      -0.02401304
Pt       0.00000046       1.62074540      22.29208304        2       0.00735346      -0.01382360       0.01921695
Pt       2.80721419       1.62074531      22.29208311        2       0.00859399      -0.01305478       0.01771312
Pt       5.61442748       1.62074566      22.29208290        2       0.00995561      -0.01306089       0.01872247
Pt       1.40360675       4.05186459      22.29208313        2       0.00694559      -0.01320615       0.01627337
Pt       4.21082083       4.05186449      22.29208278        2       0.00479360      -0.01425925       0.01326641
Pt       7.01803481       4.05186460      22.29208288        2       0.00991110      -0.01554985       0.01770906
Pt       2.80721463       6.48298242      22.29208276        2       0.00768868      -0.01275616       0.01560256
Pt       5.61442775       6.48298327      22.29208278        2       0.00768027      -0.01162404       0.01208907
Pt       8.42164096       6.48298261      22.29208273        2       0.00986094      -0.01203590       0.01594627
Pt       0.01227771      -0.01974368      24.62976919        1      -0.00690763       0.00933711       0.01350459
Pt       2.81920953      -0.02070690      24.62991785        1      -0.00415612       0.01252231       0.00854359
Pt       5.62635004      -0.01995953      24.62952294        1      -0.00411178       0.00759014       0.01264080
Pt       1.41559168       2.41121525      24.63015072        1      -0.00536615       0.00646942       0.00800702
Pt       4.22323900       2.41126972      24.63009389        1      -0.00709899       0.00416483       0.00649723
Pt       7.02982259       2.41149848      24.63250265        1      -0.00307680       0.00512621      -0.00473483
Pt       2.81922560       4.84198957      24.62997464        1      -0.00578997       0.00804621       0.01428995
Pt       5.62574442       4.84276421      24.62967199        1      -0.00015269       0.00327784       0.00624318
Pt       8.43390462       4.84241465      24.63134730        1      -0.00575503       0.00535391       0.00011796
C        6.96298070       4.14341968      29.51135861        0      -0.00513734       0.00172369       0.00716767
H        6.78479071       3.24681114      30.12505055        0       0.00550963       0.00063068      -0.01358456
H        7.24254402       4.98380686      30.16554823        0       0.00451489      -0.00396834      -0.01505458
H        6.04652759       4.39730694      28.95807561        0      -0.02090194       0.00614018       0.00664952
H        7.77498007       3.94656863      28.79511401        0       0.01757368      -0.00311887       0.01808798
