32
Lattice="8.421641763931781 0.0 0.0 4.2108208819658905 7.293355709136913 0.0 0.0 0.0 44.584161137365626" Properties=species:S:1:pos:R:3:tags:I:1:forces:R:3 charge=0 spin=0 energy=-161.48388728612395 free_energy=-161.48388728612395 stress="0.012248405255377293 -8.266750228358433e-06 -1.1403095641071559e-06 -8.266750228358433e-06 0.012267032638192177 -3.020200665559969e-06 -1.1403095641071559e-06 -3.020200665559969e-06 -0.0002302509528817609" pbc="T T T"
Pt       1.40360727       0.81037244      19.95766877        3       0.00234251       0.00251775      -0.02438522
Pt       4.21082123       0.81037256      19.95766888        3       0.00155660       0.00224072      -0.02533865
Pt       7.01803445       0.81037243      19.95766851        3       0.00049323       0.00266280      -0.02403121
Pt       2.80721413       3.24149135      19.95766844        3       0.00169819       0.00190057      -0.02541045
Pt       5.61442751       3.24149134      19.95766853        3       0.00099786       0.00210231      -0.02589393
Pt       8.42164211       3.24149148      19.95766852        3       0.00131027       0.00233083      -0.02271293
Pt       4.21082074       5.67261030      19.95766878        3       0.00154779       0.00104844      -0.02380492
Pt       7.01803477       5.67261047      19.95766871        3       0.00156228       0.00169886      -0.02264888
Pt       9.82524854       5.67261039      19.95766860        3       0.00149392       0.00185781      -0.02259042
Pt       0.00000046       1.62074540      22.29208304        2      -0.00321116       0.00058050       0.01665311
Pt       2.80721419       1.62074531      22.29208311        2      -0.00666154      -0.00690479       0.01728153
Pt       5.61442748       1.62074566      22.29208290        2       0.00168647      -0.00699690       0.01889582
Pt       1.40360675       4.05186459      22.29208313        2      -0.01253589      -0.00031248       0.03144092
Pt       4.21082083       4.05186449      22.29208278        2      -0.00322742       0.00023603       0.01740537
Pt       7.01803481       4.05186460      22.29208288        2       0.00576995       0.00127660       0.03170672
Pt       2.80721463       6.48298242      22.29208276        2      -0.00835675      -0.00627667       0.01430276
Pt       5.61442775       6.48298327      22.29208278        2       0.00091897      -0.00754745       0.01513027
Pt       8.42164096       6.48298261      22.29208273        2      -0.00166622      -0.01379730       0.03260657
Pt      -0.00484436      -0.00729396      24.62577322        1       0.00351119       0.00573673       0.02448471
Pt       2.80325289      -0.00709575      24.63098426        1       0.00078443       0.00146898       0.00350010
Pt       5.60963215      -0.00754999      24.63174909        1       0.00135829       0.00342149      -0.00028736
Pt       1.39858207       2.42516631      24.63122711        1       0.00063232       0.00105476       0.00221844
Pt       4.20646839       2.42428668      24.62680487        1       0.00042635       0.00137581       0.01978869
Pt       7.01338688       2.42606426      24.63135273        1       0.00535907      -0.00441489       0.00172500
Pt       2.80195179       4.85462135      24.63110558        1       0.00268878       0.00609181       0.00328801
Pt       5.61116125       4.85497619      24.63137204        1      -0.00043465       0.00623583       0.00172591
Pt       8.41751919       4.85594497      24.64109627        1      -0.00007407       0.00044299      -0.04214751
C        8.42025817       4.85821845      29.79834752        0       0.00005734      -0.00000427      -0.01968887
H        8.64042556       3.98917565      30.43541963        0       0.00359676      -0.01915013       0.02189338
H        8.19663167       5.73053297      30.42972555        0      -0.00371797       0.01911784       0.02168015
H        7.55214926       4.63473106      29.16075036        0      -0.01516677      -0.00549785      -0.00846742
H        9.29184859       5.07842689      29.16436599        0       0.01525992       0.00550321      -0.00831959
