31
Lattice="8.421641763931781 0.0 0.0 4.2108208819658905 7.293355709136913 0.0 0.0 0.0 44.584161137365626" Properties=species:S:1:pos:R:3:tags:I:1:forces:R:3 energy=-172.57716369628906 free_energy=-172.57716369628906 stress="0.010478968732059002 1.9215153912455207e-09 3.634894829573909e-09 1.9215153912455207e-09 0.0104789724573493 -2.4976298806933528e-09 3.634894829573909e-09 -2.4976298806933528e-09 -0.0001822099438868463" pbc="T T T"
Pt       1.40360696       0.81037286      20.00000000        3       0.00091356       0.00070124      -0.00487065
Pt       4.21082088       0.81037286      20.00000000        3      -0.00106478       0.00043664      -0.00487033
Pt       7.01803480       0.81037286      20.00000000        3       0.00008563       0.00047715      -0.00420877
Pt       2.80721392       3.24149143      20.00000000        3       0.00015495      -0.00114324      -0.00487223
Pt       5.61442784       3.24149143      20.00000000        3       0.00009667      -0.00000899       0.00331908
Pt       8.42164176       3.24149143      20.00000000        3      -0.00004019       0.00009034       0.00331771
Pt       4.21082088       5.67261000      20.00000000        3       0.00037349      -0.00031473      -0.00420782
Pt       7.01803480       5.67261000      20.00000000        3      -0.00005980      -0.00007840       0.00331855
Pt       9.82524872       5.67261000      20.00000000        3      -0.00046051      -0.00016104      -0.00420871
Pt      -0.00000000       1.62074571      22.29208057        2      -0.02598085       0.03246763      -0.00567532
Pt       2.80721392       1.62074571      22.29208057        2       0.00000129      -0.00000162      -0.05327056
Pt       5.61442784       1.62074571      22.29208057        2       0.02726720       0.03339257      -0.00389102
Pt       1.40360696       4.05186428      22.29208057        2      -0.04255406       0.00691888      -0.00388942
Pt       4.21082088       4.05186428      22.29208057        2       0.04111382       0.00626658      -0.00567540
Pt       7.01803480       4.05186428      22.29208057        2      -0.00000326       0.00000065       0.05031770
Pt       2.80721392       6.48298285      22.29208057        2       0.00000090       0.00000169      -0.03515407
Pt       5.61442784       6.48298285      22.29208057        2       0.01528337      -0.04031131      -0.00389188
Pt       8.42164176       6.48298285      22.29208057        2      -0.01512736      -0.03873378      -0.00567550
Pt      -0.00112214      -0.00153382      24.57707652        1       0.00738654      -0.00062405      -0.00708345
Pt       2.80671871       0.00689222      24.57902270        1      -0.00323663      -0.01788629      -0.00410736
Pt       5.61631708      -0.00020520      24.57707633        1      -0.00315392       0.00670899      -0.00708455
Pt       1.40982357       2.42810115      24.57902265        1      -0.01387074       0.01174651      -0.00410667
Pt       4.20509962       2.42724359      24.57902270        1       0.01710823       0.00613999      -0.00410697
Pt       7.02062599       2.41651315      24.58942625        1       0.00550745       0.02318056       0.00538550
Pt       2.80644704       4.86397598      24.57707648        1      -0.00423267      -0.00608493      -0.00708318
Pt       5.60048340       4.86729569      24.58942602        1       0.01732139      -0.01636085       0.00538447
Pt       8.43299468       4.87178421      24.58942633        1      -0.02283021      -0.00682015       0.00538577
N        7.01803499       4.05186413      27.59415606        0      -0.00002649       0.00001046       0.00236723
H        6.07291752       4.05669575      27.19876084        0       0.02402911       0.02385534       0.03305307
H        7.49477728       4.86794366      27.19876083        0       0.00866020      -0.03271914       0.03304464
H        7.48640916       3.23095357      27.19876088        0      -0.03266241       0.00885341       0.03303976
