32
Lattice="8.421641763931781 0.0 0.0 4.2108208819658905 7.293355709136913 0.0 0.0 0.0 44.584161137365626" Properties=species:S:1:pos:R:3:tags:I:1:forces:R:3 charge=0 spin=0 energy=-161.48159846776457 free_energy=-161.48159846776457 stress="0.012309929355978966 1.0247938007523771e-05 -4.831297701457515e-06 1.0247938007523771e-05 0.012232552282512188 7.273165010701632e-06 -4.831297701457515e-06 7.273165010701632e-06 -0.00021035013196524233" pbc="T T T"
Pt       1.40360727       0.81037244      19.95766877        3      -0.00062708      -0.00823633      -0.02498148
Pt       4.21082123       0.81037256      19.95766888        3      -0.00220822      -0.01007820      -0.02416768
Pt       7.01803445       0.81037243      19.95766851        3      -0.00182684      -0.00674300      -0.02372525
Pt       2.80721413       3.24149135      19.95766844        3      -0.00285146      -0.00824835      -0.02405984
Pt       5.61442751       3.24149134      19.95766853        3       0.00054367      -0.00771594      -0.02326694
Pt       8.42164211       3.24149148      19.95766852        3      -0.00249146      -0.00855890      -0.02490916
Pt       4.21082074       5.67261030      19.95766878        3      -0.00010402      -0.01017147      -0.02373749
Pt       7.01803477       5.67261047      19.95766871        3      -0.00179324      -0.00997256      -0.02499728
Pt       9.82524854       5.67261039      19.95766860        3      -0.00275902      -0.00940735      -0.02454349
Pt       0.00000046       1.62074540      22.29208304        2      -0.00221271       0.01575598       0.03194063
Pt       2.80721419       1.62074531      22.29208311        2       0.00184899       0.01655899       0.02244245
Pt       5.61442748       1.62074566      22.29208290        2       0.01066901       0.01808808       0.03013073
Pt       1.40360675       4.05186459      22.29208313        2       0.01065630       0.01900199       0.01383276
Pt       4.21082083       4.05186449      22.29208278        2       0.00254452       0.02459285       0.02221118
Pt       7.01803481       4.05186460      22.29208288        2      -0.00584599       0.01063909       0.02047507
Pt       2.80721463       6.48298242      22.29208276        2       0.00216783       0.02152999       0.03018086
Pt       5.61442775       6.48298327      22.29208278        2      -0.00084642       0.01720878       0.02730125
Pt       8.42164096       6.48298261      22.29208273        2       0.00830014       0.02980717       0.01764825
Pt       0.00388185       0.02840248      24.63266227        1      -0.00290818      -0.00850214      -0.00041734
Pt       2.81060346       0.02635073      24.63087806        1       0.00122753       0.00374529       0.00322715
Pt       5.61881560       0.02999052      24.63368012        1       0.00124224      -0.01493379      -0.00503105
Pt       1.40703754       2.46002824      24.63054743        1       0.00473566      -0.01707568       0.00488438
Pt       4.21540676       2.46018867      24.62919382        1      -0.00422041      -0.01677253       0.01038400
Pt       7.02280639       2.46121823      24.63787070        1      -0.00497512      -0.02579251      -0.02936415
Pt       2.81236109       4.89070158      24.63233875        1      -0.00364520      -0.00667609       0.00159766
Pt       5.61960733       4.89012078      24.63499889        1      -0.01084023      -0.00587584      -0.01292306
Pt       8.42521963       4.88997733      24.62599761        1       0.00653616      -0.00377441       0.02645565
C        7.00517980       3.97200612      29.45207362        0       0.00089016       0.00387213      -0.00984122
H        6.95845567       3.17508283      30.20900037        0       0.01048857      -0.00777882       0.01738000
H        6.62809999       4.91148014      29.88164513        0      -0.01848636       0.02287869       0.02069718
H        6.38801615       3.69068695      28.58690556        0      -0.02767561      -0.00848839      -0.02752766
H        8.04587106       4.11328556      29.12603522        0       0.03446656      -0.00887687       0.00270410
