31
Lattice="8.421641763931781 0.0 0.0 4.2108208819658905 7.293355709136913 0.0 0.0 0.0 44.584161137365626" Properties=species:S:1:pos:R:3:tags:I:1:forces:R:3 energy=-172.5950164794922 free_energy=-172.5950164794922 stress="0.010540771298110485 2.8016624575855076e-09 5.290458737761128e-09 2.8016624575855076e-09 0.010540765710175037 -6.169254440635541e-09 5.290458737761128e-09 -6.169254440635541e-09 -0.0001015959496726282" pbc="T T T"
Pt       1.40360696       0.81037286      20.00000000        3       0.00000096      -0.00000253      -0.00804278
Pt       4.21082088       0.81037286      20.00000000        3      -0.00033403       0.00056190      -0.00361907
Pt       7.01803480       0.81037286      20.00000000        3       0.00033347       0.00056095      -0.00362015
Pt       2.80721392       3.24149143      20.00000000        3       0.00032139      -0.00057280      -0.00362089
Pt       5.61442784       3.24149143      20.00000000        3      -0.00000264      -0.00000007       0.00280011
Pt       8.42164176       3.24149143      20.00000000        3      -0.00031825      -0.00057200      -0.00362134
Pt       4.21082088       5.67261000      20.00000000        3       0.00065780       0.00001067      -0.00361997
Pt       7.01803480       5.67261000      20.00000000        3      -0.00065769       0.00001211      -0.00362089
Pt       9.82524872       5.67261000      20.00000000        3      -0.00000128       0.00000273      -0.00901899
Pt      -0.00000000       1.62074571      22.29208057        2      -0.02764695       0.01596005      -0.01667674
Pt       2.80721392       1.62074571      22.29208057        2       0.02764918       0.01596155      -0.01667894
Pt       5.61442784       1.62074571      22.29208057        2      -0.00000122       0.02752665       0.02986676
Pt       1.40360696       4.05186428      22.29208057        2       0.00000119      -0.01516478      -0.02845180
Pt       4.21082088       4.05186428      22.29208057        2       0.02384174      -0.01376521       0.02986529
Pt       7.01803480       4.05186428      22.29208057        2      -0.02384393      -0.01376466       0.02986966
Pt       2.80721392       6.48298285      22.29208057        2       0.01313386       0.00758410      -0.02845197
Pt       5.61442784       6.48298285      22.29208057        2      -0.00000117      -0.03192393      -0.01668084
Pt       8.42164176       6.48298285      22.29208057        2      -0.01313190       0.00758432      -0.02845359
Pt       0.00435890       0.00251485      24.57790501        1      -0.02783177      -0.01606041       0.01101169
Pt       2.80285650       0.00251598      24.57790545        1       0.02782612      -0.01606594       0.01101360
Pt       5.61442739      -0.00781491      24.57844233        1       0.00000265       0.04038990       0.01039970
Pt       1.40360713       2.42608642      24.57790519        1      -0.00000081       0.03213006       0.01101372
Pt       4.20815381       2.42957820      24.59062814        1      -0.02003483      -0.01156799       0.00456974
Pt       7.02070171       2.42957791      24.59062831        1       0.02003458      -0.01156641       0.00457026
Pt       2.80044730       4.86614377      24.57844082        1       0.03497364      -0.02019350       0.01040128
Pt       5.61442685       4.86531741      24.59062830        1       0.00000841       0.02313069       0.00457110
Pt       8.42840893       4.86614384      24.57844228        1      -0.03497858      -0.02019504       0.01040140
N        5.61442853       3.24149145      27.94719121        0      -0.00003731       0.00003748      -0.00692475
H        6.42941769       3.71202652      27.54980355        0      -0.00669895      -0.00387296       0.00357907
H        5.61442667       2.30042358      27.54980274        0       0.00001328       0.00770698       0.00357264
H        4.79943817       3.71202558      27.54980255        0       0.00672312      -0.00387169       0.00359701
