32
Lattice="8.421641763931781 0.0 0.0 4.2108208819658905 7.293355709136913 0.0 0.0 0.0 44.584161137365626" Properties=species:S:1:pos:R:3:tags:I:1:forces:R:3 charge=0 spin=0 energy=-161.48218593114348 free_energy=-161.48218593114348 stress="0.012331690639257431 -1.727798007777892e-05 -2.3282204892893787e-06 -1.727798007777892e-05 0.012337490916252136 -4.219455604470568e-06 -2.3282204892893787e-06 -4.219455604470568e-06 -0.00013449444668367505" pbc="T T T"
Pt       1.40360727       0.81037244      19.95766877        3       0.00224029       0.00070334      -0.02389376
Pt       4.21082123       0.81037256      19.95766888        3       0.00219235       0.00221930      -0.02373677
Pt       7.01803445       0.81037243      19.95766851        3       0.00138503       0.00387003      -0.02615771
Pt       2.80721413       3.24149135      19.95766844        3       0.00241186       0.00409179      -0.02250957
Pt       5.61442751       3.24149134      19.95766853        3       0.00514133       0.00442957      -0.02628443
Pt       8.42164211       3.24149148      19.95766852        3      -0.00128682       0.00342640      -0.02413802
Pt       4.21082074       5.67261030      19.95766878        3       0.00316886       0.00104019      -0.02491022
Pt       7.01803477       5.67261047      19.95766871        3       0.00174473       0.00323776      -0.02488638
Pt       9.82524854       5.67261039      19.95766860        3       0.00079891       0.00251191      -0.02400861
Pt       0.00000046       1.62074540      22.29208304        2      -0.00324693      -0.00462061       0.04087268
Pt       2.80721419       1.62074531      22.29208311        2      -0.00522481      -0.00736461       0.03244198
Pt       5.61442748       1.62074566      22.29208290        2      -0.00167011      -0.01105710       0.04212327
Pt       1.40360675       4.05186459      22.29208313        2       0.00561614      -0.00439663       0.02814184
Pt       4.21082083       4.05186449      22.29208278        2      -0.01890709      -0.00256502       0.02798486
Pt       7.01803481       4.05186460      22.29208288        2      -0.00148673      -0.01792513       0.02637778
Pt       2.80721463       6.48298242      22.29208276        2      -0.00706970      -0.00924111       0.04737027
Pt       5.61442775       6.48298327      22.29208278        2      -0.00325302       0.00302436       0.02343596
Pt       8.42164096       6.48298261      22.29208273        2      -0.00185241      -0.00047297       0.03108006
Pt      -0.00361673      -0.00893561      24.63224475        1      -0.01465739       0.00531958      -0.00275341
Pt       2.80225610      -0.00825625      24.63482129        1      -0.00179392       0.00233097      -0.01550216
Pt       5.60467962      -0.01313479      24.63625134        1       0.02161924       0.02354790      -0.01759906
Pt       1.40098662       2.42592803      24.63350533        1      -0.02153466      -0.02256137      -0.00417755
Pt       4.20373536       2.42629120      24.63195810        1       0.01535542      -0.02310646       0.00199274
Pt       7.01014697       2.41642909      24.63625362        1       0.00965981       0.01812392      -0.02596469
Pt       2.79975349       4.85380412      24.64018472        1       0.01096280       0.01187927      -0.02987112
Pt       5.60845513       4.85434861      24.62735072        1       0.00390962      -0.00446751       0.01489811
Pt       8.41589958       4.84881296      24.63058948        1      -0.00468581       0.01801010       0.00325618
C        7.06645285       4.93135993      29.53752188        0       0.00019529       0.00022320      -0.03555794
H        7.68476194       4.28096313      30.17488167        0      -0.02674737       0.00798661       0.03111161
H        6.46860618       5.61291250      30.16172177        0       0.02701531      -0.00701836       0.03010076
H        6.39064152       4.31233933      28.92842526        0       0.00998401      -0.01079430      -0.01406559
H        7.72186335       5.51914663      28.87732871        0      -0.00998428       0.00961491      -0.01517122
