32
Lattice="8.421641763931781 0.0 0.0 4.2108208819658905 7.293355709136913 0.0 0.0 0.0 44.584161137365626" Properties=species:S:1:pos:R:3:tags:I:1:forces:R:3 charge=0 spin=0 energy=-161.4826646756503 free_energy=-161.4826646756503 stress="0.012228446081280708 2.3167735889728647e-06 1.0205129910900723e-05 2.3167735889728647e-06 0.012266768142580986 -7.112877028703224e-06 1.0205129910900723e-05 -7.112877028703224e-06 -0.0002353834715904668" pbc="T T T"
Pt       1.40360727       0.81037244      19.95766877        3      -0.00184967       0.00645666      -0.02332875
Pt       4.21082123       0.81037256      19.95766888        3      -0.00189456       0.00851024      -0.02400791
Pt       7.01803445       0.81037243      19.95766851        3      -0.00276070       0.00865699      -0.02370661
Pt       2.80721413       3.24149135      19.95766844        3      -0.00021192       0.00718903      -0.02369873
Pt       5.61442751       3.24149134      19.95766853        3      -0.00230306       0.00751155      -0.02344841
Pt       8.42164211       3.24149148      19.95766852        3      -0.00397833       0.00738807      -0.02363793
Pt       4.21082074       5.67261030      19.95766878        3      -0.00112767       0.00611760      -0.02464889
Pt       7.01803477       5.67261047      19.95766871        3      -0.00335252       0.00647033      -0.02445606
Pt       9.82524854       5.67261039      19.95766860        3      -0.00238650       0.00744510      -0.02354762
Pt       0.00000046       1.62074540      22.29208304        2       0.00474686      -0.01557515       0.01654084
Pt       2.80721419       1.62074531      22.29208311        2       0.00439868      -0.01452351       0.01430291
Pt       5.61442748       1.62074566      22.29208290        2       0.00637103      -0.01761723       0.01788434
Pt       1.40360675       4.05186459      22.29208313        2       0.00401132      -0.01374888       0.01764411
Pt       4.21082083       4.05186449      22.29208278        2       0.00090234      -0.01667381       0.01199081
Pt       7.01803481       4.05186460      22.29208288        2       0.00927915      -0.01686110       0.01387878
Pt       2.80721463       6.48298242      22.29208276        2       0.00261822      -0.01719740       0.01735827
Pt       5.61442775       6.48298327      22.29208278        2       0.00549134      -0.01194162       0.01052209
Pt       8.42164096       6.48298261      22.29208273        2       0.00944664      -0.01604062       0.01750504
Pt       0.00749034      -0.02358128      24.62913944        1      -0.00385854       0.01035484       0.01577898
Pt       2.81523930      -0.02390604      24.62901174        1      -0.00073026       0.01010521       0.01721598
Pt       5.62239397      -0.02304367      24.63114542        1      -0.00450318       0.00270867       0.00331375
Pt       1.41162014       2.40763547      24.62912405        1      -0.00387134       0.00872589       0.01310505
Pt       4.21862626       2.40782247      24.63100285        1      -0.00211798       0.00440899       0.00171043
Pt       7.02579654       2.40778205      24.63191542        1      -0.00205497       0.00541235      -0.00158598
Pt       2.81603897       4.83816115      24.63068971        1      -0.01231102       0.01217446       0.00645200
Pt       5.62184966       4.83911936      24.62852695        1      -0.00105233       0.00648086       0.01108737
Pt       8.42867560       4.83795360      24.63073148        1       0.00485635       0.01349995       0.00464522
C        5.58106395       3.33657929      29.46307535        0      -0.00160529       0.00200427       0.03925178
H        4.69387057       3.52373807      30.08971617        0       0.03309545      -0.01552781      -0.03201395
H        6.42768589       3.04209702      30.10441894        0      -0.03512333       0.00382197      -0.03153237
H        5.83941618       4.25252140      28.91143261        0       0.00822594       0.02909796       0.00542722
H        5.36415742       2.53199283      28.74418822        0      -0.00635006      -0.01883381       0.02399826
