31
Lattice="8.421641763931781 0.0 0.0 4.2108208819658905 7.293355709136913 0.0 0.0 0.0 44.584161137365626" Properties=species:S:1:pos:R:3:tags:I:1:forces:R:3 energy=-173.7158660888672 free_energy=-173.7158660888672 stress="0.010695417411625385 1.5580258860836693e-08 1.4179082796772491e-08 1.5580258860836693e-08 0.010695461183786392 8.662802919445767e-09 1.4179082796772491e-08 8.662802919445767e-09 5.4009477025829256e-05" pbc="T T T"
Pt       1.40360696       0.81037286      20.00000000        3       0.00521505       0.00366235      -0.00904918
Pt       4.21082088       0.81037286      20.00000000        3       0.00041278       0.00292708      -0.00573269
Pt       7.01803480       0.81037286      20.00000000        3      -0.00578377       0.00267986      -0.00904989
Pt       2.80721392       3.24149143      20.00000000        3       0.00233203      -0.00182086      -0.00573528
Pt       5.61442784       3.24149143      20.00000000        3      -0.00274373      -0.00110801      -0.00573432
Pt       8.42164176       3.24149143      20.00000000        3      -0.00044745       0.00437531       0.01246813
Pt       4.21082088       5.67261000      20.00000000        3       0.00056978      -0.00634628      -0.00904989
Pt       7.01803480       5.67261000      20.00000000        3       0.00401067      -0.00179640       0.01246941
Pt       9.82524872       5.67261000      20.00000000        3      -0.00356539      -0.00257280       0.01247051
Pt      -0.00000000       1.62074571      22.29208057        2       0.00116793       0.06463785       0.03390665
Pt       2.80721392       1.62074571      22.29208057        2      -0.01137061       0.00413344       0.00323887
Pt       5.61442784       1.62074571      22.29208057        2       0.00210194      -0.01191730       0.00323889
Pt       1.40360696       4.05186428      22.29208057        2      -0.06389809       0.03977638      -0.02262428
Pt       4.21082088       4.05186428      22.29208057        2       0.00926888       0.00777962       0.00323918
Pt       7.01803480       4.05186428      22.29208057        2       0.06639288       0.03545037      -0.02262494
Pt       2.80721392       6.48298285      22.29208057        2      -0.05656294      -0.03130898       0.03390605
Pt       5.61442784       6.48298285      22.29208057        2       0.05539548      -0.03332880       0.03390469
Pt       8.42164176       6.48298285      22.29208057        2      -0.00249607      -0.07522312      -0.02262671
Pt       0.00000027      -0.00000024      24.58918297        1      -0.00000166       0.00000090      -0.00003901
Pt       2.79607785       0.01952945      24.60028401        1       0.01657429      -0.02171383      -0.01356192
Pt       5.61231374      -0.00204125      24.60569946        1      -0.00001753       0.00689489       0.00133091
Pt       1.40289652       2.43396961      24.60570020        1       0.00597972      -0.00343119       0.00133006
Pt       4.21082087       2.43111843      24.58864008        1       0.00000107      -0.00000012       0.00205159
Pt       7.00668964       2.41170939      24.60028380        1       0.01051703       0.02520978      -0.01356107
Pt       2.82969511       4.86211639      24.60028376        1      -0.02709105      -0.00349644      -0.01356146
Pt       5.61725234       4.86142689      24.60569951        1      -0.00596266      -0.00346428       0.00133096
Pt       8.42164174       4.86223701      24.65962316        1      -0.00000087      -0.00000129       0.02951089
N        8.42164024       4.86223633      26.72769543        0       0.00013354       0.00009850       0.01219392
H        8.90789036       5.70202156      27.05204015        0       0.01171815       0.01785355      -0.01457778
H        8.90579142       4.02124311      27.05204035        0       0.00965156      -0.01917318      -0.01454265
H        7.45124538       4.86344863      27.05204001        0      -0.02150117       0.00122324      -0.01451954
