32
Lattice="8.421641763931781 0.0 0.0 4.2108208819658905 7.293355709136913 0.0 0.0 0.0 44.584161137365626" Properties=species:S:1:pos:R:3:tags:I:1:forces:R:3 charge=0 spin=0 energy=-161.483564944205 free_energy=-161.483564944205 stress="0.01227272767573595 -4.327303486206802e-06 9.510987410976668e-07 -4.327303486206802e-06 0.012287568300962448 -2.5086631012527505e-06 9.510987410976668e-07 -2.5086631012527505e-06 -0.00018668345001060516" pbc="T T T"
Pt       1.40360727       0.81037244      19.95766877        3       0.00002588       0.00040807      -0.02389291
Pt       4.21082123       0.81037256      19.95766888        3      -0.00045846       0.00032511      -0.02345837
Pt       7.01803445       0.81037243      19.95766851        3      -0.00048157       0.00272183      -0.02439792
Pt       2.80721413       3.24149135      19.95766844        3       0.00000282       0.00249864      -0.02239746
Pt       5.61442751       3.24149134      19.95766853        3       0.00136647       0.00290773      -0.02479571
Pt       8.42164211       3.24149148      19.95766852        3      -0.00194993       0.00308073      -0.02406806
Pt       4.21082074       5.67261030      19.95766878        3       0.00111844       0.00074499      -0.02431251
Pt       7.01803477       5.67261047      19.95766871        3      -0.00034247       0.00054138      -0.02384906
Pt       9.82524854       5.67261039      19.95766860        3      -0.00173829       0.00131076      -0.02426386
Pt       0.00000046       1.62074540      22.29208304        2       0.00217296      -0.00637989       0.02449988
Pt       2.80721419       1.62074531      22.29208311        2       0.00013985      -0.00145792       0.02563797
Pt       5.61442748       1.62074566      22.29208290        2       0.00180224      -0.00414030       0.02265704
Pt       1.40360675       4.05186459      22.29208313        2       0.00532713      -0.00495996       0.02315010
Pt       4.21082083       4.05186449      22.29208278        2      -0.00621186      -0.00371366       0.02316916
Pt       7.01803481       4.05186460      22.29208288        2       0.00091096      -0.00591344       0.02062842
Pt       2.80721463       6.48298242      22.29208276        2       0.00087224      -0.00435640       0.02829743
Pt       5.61442775       6.48298327      22.29208278        2      -0.00120973      -0.00077730       0.02109368
Pt       8.42164096       6.48298261      22.29208273        2       0.00230383       0.00031373       0.01973038
Pt       0.00185679      -0.00563726      24.63175466        1      -0.00594277       0.00281004       0.00308947
Pt       2.80810233      -0.00521232      24.63172562        1      -0.00042500       0.00349866      -0.00072909
Pt       5.61488272      -0.00528071      24.63158039        1       0.00382525       0.00143907       0.00440872
Pt       1.40382593       2.42633204      24.63159939        1       0.00499410       0.00074238       0.00240455
Pt       4.21255311       2.42600465      24.63129580        1      -0.00485355       0.00114947       0.00387912
Pt       7.01915422       2.42571016      24.63187059        1      -0.00043187       0.00167342      -0.00101772
Pt       2.80823972       4.85684421      24.63369943        1       0.00016689       0.00293657      -0.00315243
Pt       5.61455527       4.85704716      24.63065662        1       0.00382807       0.00131585      -0.00207735
Pt       8.42364624       4.85713682      24.63066201        1      -0.00478581       0.00129404      -0.00187067
C        7.02001408       4.86016172      29.34019768        0       0.00005761      -0.00005714       0.02325356
H        7.58761235       4.16443552      29.97796307        0      -0.00920466       0.01053841      -0.01124060
H        6.44506068       5.55297749      29.97452880        0       0.00940371      -0.01039998      -0.01118192
H        6.33025922       4.29053620      28.69943046        0      -0.00417711      -0.00172964       0.00030264
H        7.71714019       5.43266629      28.71003752        0       0.00389485       0.00163475       0.00050353
