31
Lattice="8.421641763931781 0.0 0.0 4.2108208819658905 7.293355709136913 0.0 0.0 0.0 44.584161137365626" Properties=species:S:1:pos:R:3:tags:I:1:forces:R:3 energy=-172.80897521972656 free_energy=-172.80897521972656 stress="0.01030085701495409 1.2107706837127807e-08 4.963753408304683e-09 1.2107706837127807e-08 0.010232998058199883 -1.398727135892841e-06 4.963753408304683e-09 -1.398727135892841e-06 -5.051110747444909e-06" pbc="T T T"
Pt       1.40360696       0.81037286      20.00000000        3       0.00266464       0.00147140      -0.00206840
Pt       4.21082088       0.81037286      20.00000000        3      -0.00266214       0.00147319      -0.00206709
Pt       7.01803480       0.81037286      20.00000000        3      -0.00000270       0.00014605      -0.01603583
Pt       2.80721392       3.24149143      20.00000000        3       0.00000187      -0.00011527      -0.00897110
Pt       5.61442784       3.24149143      20.00000000        3      -0.00243353       0.00340574       0.00406376
Pt       8.42164176       3.24149143      20.00000000        3       0.00243247       0.00340647       0.00406259
Pt       4.21082088       5.67261000      20.00000000        3       0.00232877      -0.00312511       0.00241119
Pt       7.01803480       5.67261000      20.00000000        3      -0.00000239      -0.00120636       0.03430545
Pt       9.82524872       5.67261000      20.00000000        3      -0.00232772      -0.00312370       0.00241053
Pt      -0.00000000       1.62074571      22.29208057        2       0.02882102       0.02121926      -0.07853650
Pt       2.80721392       1.62074571      22.29208057        2       0.00000112      -0.11913557      -0.02880415
Pt       5.61442784       1.62074571      22.29208057        2      -0.02882127       0.02121889      -0.07853764
Pt       1.40360696       4.05186428      22.29208057        2      -0.15952672       0.09022094       0.05009799
Pt       4.21082088       4.05186428      22.29208057        2       0.15952687       0.09021857       0.05009098
Pt       7.01803480       4.05186428      22.29208057        2      -0.00000072       0.12730600       0.05075246
Pt       2.80721392       6.48298285      22.29208057        2      -0.00000056      -0.04128378      -0.07619848
Pt       5.61442784       6.48298285      22.29208057        2       0.08928251      -0.09924891       0.03362707
Pt       8.42164176       6.48298285      22.29208057        2      -0.08928224      -0.09924905       0.03363002
Pt      -0.00470302      -0.00148958      24.56711406        1      -0.00144862       0.00196392       0.00480598
Pt       2.80721396       0.02235937      24.60123082        1       0.00000088      -0.00238204       0.01020209
Pt       5.61913126      -0.00148949      24.56711446        1       0.00144791       0.00196188       0.00480562
Pt       1.40946001       2.42502221      24.56456236        1      -0.00774782       0.01022981       0.00390655
Pt       4.20496811       2.42502293      24.56456221        1       0.00774666       0.01022357       0.00390723
Pt       7.01803457       2.41058340      24.56471884        1       0.00000136      -0.00120287       0.01161124
Pt       2.80721469       4.85991913      24.56195847        1      -0.00000827      -0.01934988       0.00476649
Pt       5.59025516       4.84258067      24.62122017        1       0.00104295       0.00137257      -0.00538987
Pt       8.44581327       4.84258083      24.62122093        1      -0.00103362       0.00137126      -0.00540576
N        7.01803598       5.44530432      26.92569432        0      -0.00004845      -0.02259117       0.02498698
H        7.84188623       4.93885840      26.54854414        0       0.00008097       0.00625738      -0.00570369
H        6.19418427       4.93885699      26.54854393        0      -0.00002873       0.00629473      -0.00569161
H        7.01803591       6.36142916      26.43662121        0      -0.00000440       0.01225224      -0.02103411
