32
Lattice="8.421641763931781 0.0 0.0 4.2108208819658905 7.293355709136913 0.0 0.0 0.0 44.584161137365626" Properties=species:S:1:pos:R:3:tags:I:1:forces:R:3 charge=0 spin=0 energy=-161.48339805119963 free_energy=-161.48339805119963 stress="0.01230817660689354 -4.8291140046785586e-06 5.922823902437813e-07 -4.8291140046785586e-06 0.012306222692131996 -2.987813104482484e-06 5.922823902437813e-07 -2.987813104482484e-06 -0.00014270961401052773" pbc="T T T"
Pt       1.40360727       0.81037244      19.95766877        3       0.00013155       0.00071309      -0.02416488
Pt       4.21082123       0.81037256      19.95766888        3       0.00001697       0.00075935      -0.02401382
Pt       7.01803445       0.81037243      19.95766851        3      -0.00017154       0.00297813      -0.02448933
Pt       2.80721413       3.24149135      19.95766844        3       0.00019187       0.00237607      -0.02264171
Pt       5.61442751       3.24149134      19.95766853        3       0.00172651       0.00288613      -0.02473579
Pt       8.42164211       3.24149148      19.95766852        3      -0.00186506       0.00317755      -0.02421641
Pt       4.21082074       5.67261030      19.95766878        3       0.00160735       0.00132630      -0.02451202
Pt       7.01803477       5.67261047      19.95766871        3      -0.00001307       0.00083081      -0.02427941
Pt       9.82524854       5.67261039      19.95766860        3      -0.00182198       0.00177542      -0.02441743
Pt       0.00000046       1.62074540      22.29208304        2       0.00259792      -0.00724733       0.02816544
Pt       2.80721419       1.62074531      22.29208311        2      -0.00038760      -0.00086738       0.02950291
Pt       5.61442748       1.62074566      22.29208290        2       0.00000743      -0.00483022       0.02663210
Pt       1.40360675       4.05186459      22.29208313        2       0.00588498      -0.00519685       0.02867718
Pt       4.21082083       4.05186449      22.29208278        2      -0.00754823      -0.00394545       0.02842235
Pt       7.01803481       4.05186460      22.29208288        2       0.00042999      -0.00531835       0.02440318
Pt       2.80721463       6.48298242      22.29208276        2       0.00050476      -0.00629353       0.03357641
Pt       5.61442775       6.48298327      22.29208278        2      -0.00295471      -0.00187053       0.02480565
Pt       8.42164096       6.48298261      22.29208273        2       0.00259224      -0.00050392       0.02411109
Pt       0.00083984      -0.00642132      24.63302144        1      -0.00357389       0.00322911      -0.00255801
Pt       2.80722338      -0.00586685      24.63180557        1       0.00031818       0.00215580      -0.00187680
Pt       5.61432399      -0.00622283      24.63262621        1       0.00227580       0.00243264      -0.00095413
Pt       1.40326498       2.42543951      24.63288092        1       0.00317402       0.00095266      -0.00322866
Pt       4.21153603       2.42532164      24.63242651        1      -0.00271948       0.00047860      -0.00165364
Pt       7.01848039       2.42465831      24.63200221        1      -0.00074569       0.00375581      -0.00220530
Pt       2.80744114       4.85597518      24.63479366        1       0.00045133       0.00341749      -0.01083651
Pt       5.61339480       4.85629161      24.63148952        1       0.00664901       0.00158381      -0.00360928
Pt       8.42322709       4.85628368      24.63147785        1      -0.00674507       0.00123267      -0.00335349
C        7.01955788       4.86086933      29.47766538        0      -0.00011466      -0.00012455       0.02781669
H        7.87513948       4.58532255      30.11517840        0      -0.02883156       0.00962208      -0.02372209
H        6.15916473       5.12578416      30.11320068        0       0.02906100      -0.00886707      -0.02348776
H        6.75260490       4.00935947      28.83333200        0       0.00062736       0.00084909       0.00917791
H        7.29128142       5.72296564      28.84956763        0      -0.00075580      -0.00146742       0.00966546
