32
Lattice="8.421641763931781 0.0 0.0 4.2108208819658905 7.293355709136913 0.0 0.0 0.0 44.584161137365626" Properties=species:S:1:pos:R:3:tags:I:1:forces:R:3 charge=0 spin=0 energy=-161.4815946530673 free_energy=-161.4815946530673 stress="0.012309916317462921 1.025520668918034e-05 -4.8285332923114765e-06 1.025520668918034e-05 0.012232528068125248 7.280493719008518e-06 -4.8285332923114765e-06 7.280493719008518e-06 -0.00021037574333604425" pbc="T T T"
Pt       1.40360727       0.81037244      19.95766877        3      -0.00062641      -0.00823604      -0.02498295
Pt       4.21082123       0.81037256      19.95766888        3      -0.00220869      -0.01007875      -0.02416866
Pt       7.01803445       0.81037243      19.95766851        3      -0.00182683      -0.00674446      -0.02372491
Pt       2.80721413       3.24149135      19.95766844        3      -0.00285179      -0.00824937      -0.02405903
Pt       5.61442751       3.24149134      19.95766853        3       0.00054258      -0.00771682      -0.02326438
Pt       8.42164211       3.24149148      19.95766852        3      -0.00248996      -0.00855995      -0.02490871
Pt       4.21082074       5.67261030      19.95766878        3      -0.00010470      -0.01017048      -0.02373757
Pt       7.01803477       5.67261047      19.95766871        3      -0.00179303      -0.00997175      -0.02499804
Pt       9.82524854       5.67261039      19.95766860        3      -0.00275838      -0.00940650      -0.02454300
Pt       0.00000046       1.62074540      22.29208304        2      -0.00221467       0.01576292       0.03193131
Pt       2.80721419       1.62074531      22.29208311        2       0.00184865       0.01656269       0.02243659
Pt       5.61442748       1.62074566      22.29208290        2       0.01066944       0.01809790       0.03011755
Pt       1.40360675       4.05186459      22.29208313        2       0.01065334       0.01899865       0.01382138
Pt       4.21082083       4.05186449      22.29208278        2       0.00255253       0.02459113       0.02220236
Pt       7.01803481       4.05186460      22.29208288        2      -0.00584959       0.01064059       0.02046447
Pt       2.80721463       6.48298242      22.29208276        2       0.00216938       0.02152925       0.03015712
Pt       5.61442775       6.48298327      22.29208278        2      -0.00084502       0.01720032       0.02729106
Pt       8.42164096       6.48298261      22.29208273        2       0.00829819       0.02980292       0.01763144
Pt       0.00388231       0.02840288      24.63265537        1      -0.00290772      -0.00850376      -0.00039389
Pt       2.81060288       0.02635011      24.63087524        1       0.00122638       0.00374896       0.00324571
Pt       5.61881580       0.02999257      24.63367331        1       0.00124120      -0.01494250      -0.00500011
Pt       1.40703669       2.46002819      24.63054652        1       0.00474019      -0.01707632       0.00488745
Pt       4.21540619       2.46018851      24.62919488        1      -0.00421697      -0.01677203       0.01039100
Pt       7.02280597       2.46122227      24.63787137        1      -0.00497446      -0.02581348      -0.02935685
Pt       2.81236252       4.89069975      24.63233375        1      -0.00364920      -0.00666637       0.00162031
Pt       5.61960889       4.89011920      24.63500016        1      -0.01085029      -0.00586296      -0.01292730
Pt       8.42521879       4.88997691      24.62599519        1       0.00654513      -0.00376909       0.02646666
C        7.00518040       3.97200286      29.45215571        0       0.00088298       0.00392420      -0.00988940
H        6.62809630       4.91148053      29.88172077        0      -0.01845971       0.02281540       0.02066612
H        6.95844575       3.17508248      30.20908529        0       0.01050239      -0.00775870       0.01734588
H        8.04587603       4.11328253      29.12612445        0       0.03438284      -0.00890107       0.00273946
H        6.38802299       3.69068292      28.58698019        0      -0.02762788      -0.00847452      -0.02746148
