32
Lattice="8.421641763931781 0.0 0.0 4.2108208819658905 7.293355709136913 0.0 0.0 0.0 44.584161137365626" Properties=species:S:1:pos:R:3:tags:I:1:forces:R:3 charge=0 spin=0 energy=-161.4838968228671 free_energy=-161.4838968228671 stress="0.012254915200173855 1.194877677335171e-05 2.7501937438501045e-06 1.194877677335171e-05 0.012260186485946178 1.5419027477037162e-07 2.7501937438501045e-06 1.5419027477037162e-07 -0.0002303247747477144" pbc="T T T"
Pt       1.40360727       0.81037244      19.95766877        3      -0.00167603       0.00082131      -0.02379529
Pt       4.21082123       0.81037256      19.95766888        3      -0.00249413       0.00053620      -0.02542796
Pt       7.01803445       0.81037243      19.95766851        3      -0.00335198       0.00078018      -0.02437909
Pt       2.80721413       3.24149135      19.95766844        3      -0.00230560      -0.00019601      -0.02590760
Pt       5.61442751       3.24149134      19.95766853        3      -0.00272288       0.00022331      -0.02534410
Pt       8.42164211       3.24149148      19.95766852        3      -0.00226117       0.00049006      -0.02262165
Pt       4.21082074       5.67261030      19.95766878        3      -0.00254436      -0.00091004      -0.02404571
Pt       7.01803477       5.67261047      19.95766871        3      -0.00236982       0.00036487      -0.02257924
Pt       9.82524854       5.67261039      19.95766860        3      -0.00266765      -0.00002532      -0.02271671
Pt       0.00000046       1.62074540      22.29208304        2       0.00607419       0.00464455       0.01497380
Pt       2.80721419       1.62074531      22.29208311        2       0.00136024      -0.00294697       0.01729656
Pt       5.61442748       1.62074566      22.29208290        2       0.00935364      -0.00234719       0.01723356
Pt       1.40360675       4.05186459      22.29208313        2      -0.00410093       0.00438343       0.03174875
Pt       4.21082083       4.05186449      22.29208278        2       0.00522745       0.00497597       0.01882572
Pt       7.01803481       4.05186460      22.29208288        2       0.01286230       0.00548586       0.03262428
Pt       2.80721463       6.48298242      22.29208276        2       0.00102984      -0.00307901       0.01659009
Pt       5.61442775       6.48298327      22.29208278        2       0.00970866      -0.00411493       0.01417628
Pt       8.42164096       6.48298261      22.29208273        2       0.00652716      -0.01078170       0.03153807
Pt       0.00873939      -0.00054651      24.62570487        1      -0.00672252       0.00016466       0.02475186
Pt       2.81644289      -0.00075142      24.63111698        1      -0.00660217      -0.00080348       0.00325156
Pt       5.62208728      -0.00138294      24.63122177        1      -0.00121039      -0.00001997       0.00226575
Pt       1.41152657       2.43192460      24.63137778        1      -0.00521292      -0.00345513       0.00170366
Pt       4.21891092       2.43075768      24.62676354        1      -0.00141392      -0.00032222       0.01999252
Pt       7.02615879       2.43123895      24.63097570        1      -0.00168774      -0.00002633       0.00354952
Pt       2.81390733       4.86072853      24.63132844        1       0.00114103       0.00690861       0.00187731
Pt       5.62336389       4.86185285      24.63173194        1      -0.00362170      -0.00053046      -0.00016391
Pt       8.42914466       4.86180968      24.64116107        1      -0.00032591      -0.00026322      -0.04237476
C        8.42581419       4.86303796      29.79960427        0      -0.00006568       0.00007340      -0.01970688
H        7.78217991       4.23321893      30.43098869        0      -0.01466856      -0.01275242       0.02163349
H        9.06834867       5.48822613      30.43667801        0       0.01476080       0.01266530       0.02184099
H        7.79931555       5.50775638      29.16562485        0      -0.01238762       0.01046710      -0.00831942
H        9.05340770       4.22297243      29.16200607        0       0.01236855      -0.01041031      -0.00849129
