32
Lattice="8.421641763931781 0.0 0.0 4.2108208819658905 7.293355709136913 0.0 0.0 0.0 44.584161137365626" Properties=species:S:1:pos:R:3:tags:I:1:forces:R:3 charge=0 spin=0 energy=-161.48265990727873 free_energy=-161.48265990727873 stress="0.012258613482117653 -8.247192454291508e-06 -1.5895621174877306e-07 -8.247192454291508e-06 0.012225309386849403 1.2263279131730087e-05 -1.5895621174877306e-07 1.2263279131730087e-05 -0.00024258838675450534" pbc="T T T"
Pt       1.40360727       0.81037244      19.95766877        3       0.00293311      -0.00620444      -0.02338912
Pt       4.21082123       0.81037256      19.95766888        3       0.00440253      -0.00499779      -0.02389724
Pt       7.01803445       0.81037243      19.95766851        3       0.00320200      -0.00519481      -0.02447413
Pt       2.80721413       3.24149135      19.95766844        3       0.00482753      -0.00734874      -0.02392099
Pt       5.61442751       3.24149134      19.95766853        3       0.00358789      -0.00715513      -0.02349538
Pt       8.42164211       3.24149148      19.95766852        3       0.00232496      -0.00741846      -0.02448759
Pt       4.21082074       5.67261030      19.95766878        3       0.00433457      -0.00799129      -0.02372913
Pt       7.01803477       5.67261047      19.95766871        3       0.00259882      -0.00846863      -0.02346259
Pt       9.82524854       5.67261039      19.95766860        3       0.00365261      -0.00694221      -0.02338569
Pt       0.00000046       1.62074540      22.29208304        2      -0.00575028       0.01260650       0.00895463
Pt       2.80721419       1.62074531      22.29208311        2      -0.00827989       0.01504513       0.01247059
Pt       5.61442748       1.62074566      22.29208290        2      -0.00934383       0.01150768       0.01119549
Pt       1.40360675       4.05186459      22.29208313        2      -0.00801164       0.01933975       0.01697124
Pt       4.21082083       4.05186449      22.29208278        2      -0.00926316       0.01671509       0.01729895
Pt       7.01803481       4.05186460      22.29208288        2      -0.00658225       0.02008000       0.01338091
Pt       2.80721463       6.48298242      22.29208276        2      -0.00972689       0.01137588       0.01670831
Pt       5.61442775       6.48298327      22.29208278        2      -0.00639288       0.01361976       0.01565891
Pt       8.42164096       6.48298261      22.29208273        2      -0.00552737       0.01383595       0.01678381
Pt      -0.01271270       0.02187241      24.62861599        1       0.00520131      -0.01121298       0.01740625
Pt       2.79512454       0.02177561      24.62866739        1       0.00348594      -0.00946731       0.01535933
Pt       5.60194930       0.02294122      24.63057889        1       0.00476431      -0.01832804       0.00670577
Pt       1.39136148       2.45317439      24.62861948        1       0.00636981      -0.00625749       0.01916952
Pt       4.19887460       2.45261377      24.63056847        1       0.00033546      -0.00519959       0.00365635
Pt       7.00588878       2.45282500      24.62859450        1       0.00450232      -0.00620732       0.01096666
Pt       2.79551485       4.88400218      24.63115194        1      -0.00099534      -0.00581460       0.00323835
Pt       5.60231152       4.88364899      24.63193114        1       0.00184162      -0.00417602      -0.00137413
Pt       8.40849721       4.88366757      24.63095447        1       0.01208254      -0.00369073       0.00392164
C        5.66929533       3.14937130      29.46941195        0       0.00105479      -0.00267796       0.03770827
H        5.84645357       4.04637877      30.08467881        0      -0.01418137      -0.02987823      -0.02895291
H        5.39395751       2.30526282      30.12253256        0       0.00268379       0.03563474      -0.03454653
H        6.58490912       2.89987204      28.91326318        0       0.03205744      -0.00920862       0.00622481
H        4.85598999       3.34477791      28.75424226        0      -0.02218826       0.00407996       0.02533564
