32
Lattice="8.421641763931781 0.0 0.0 4.2108208819658905 7.293355709136913 0.0 0.0 0.0 44.584161137365626" Properties=species:S:1:pos:R:3:tags:I:1:forces:R:3 charge=0 spin=0 energy=-161.4771657895419 free_energy=-161.4771657895419 stress="0.012310381047427654 1.929128666233737e-05 8.647133654449135e-06 1.929128666233737e-05 0.01224786601960659 1.4353222468344029e-05 8.647133654449135e-06 1.4353222468344029e-05 -0.0002014719066210091" pbc="T T T"
Pt       1.40360727       0.81037244      19.95766877        3      -0.00484712      -0.00554230      -0.02526787
Pt       4.21082123       0.81037256      19.95766888        3      -0.00733055      -0.00804735      -0.02448496
Pt       7.01803445       0.81037243      19.95766851        3      -0.00615205      -0.00499892      -0.02370337
Pt       2.80721413       3.24149135      19.95766844        3      -0.00823561      -0.00633770      -0.02330982
Pt       5.61442751       3.24149134      19.95766853        3      -0.00368708      -0.00524425      -0.02253406
Pt       8.42164211       3.24149148      19.95766852        3      -0.00582377      -0.00574473      -0.02554620
Pt       4.21082074       5.67261030      19.95766878        3      -0.00429347      -0.00635689      -0.02406658
Pt       7.01803477       5.67261047      19.95766871        3      -0.00425054      -0.00649358      -0.02518704
Pt       9.82524854       5.67261039      19.95766860        3      -0.00822520      -0.00723304      -0.02275717
Pt       0.00000046       1.62074540      22.29208304        2       0.00363409       0.01023335       0.01044481
Pt       2.80721419       1.62074531      22.29208311        2       0.01846485       0.01769642       0.00681748
Pt       5.61442748       1.62074566      22.29208290        2       0.01801005       0.01295900       0.02944655
Pt       1.40360675       4.05186459      22.29208313        2       0.02068783       0.02525618       0.02366597
Pt       4.21082083       4.05186449      22.29208278        2       0.01055850       0.01926079       0.03138015
Pt       7.01803481       4.05186460      22.29208288        2       0.00333567       0.01130805       0.03034376
Pt       2.80721463       6.48298242      22.29208276        2       0.00762730       0.01105873       0.04556483
Pt       5.61442775       6.48298327      22.29208278        2       0.00267529       0.00356154       0.01975739
Pt       8.42164096       6.48298261      22.29208273        2       0.02399763       0.01200947       0.02344040
Pt       0.01895027       0.02357924      24.63115012        1      -0.02091216      -0.03325438       0.00895116
Pt       2.82387205       0.02020217      24.62565231        1       0.00710901      -0.01137172       0.02693430
Pt       5.63088341       0.02324201      24.63565591        1       0.01047579      -0.03270226      -0.02025565
Pt       1.42093815       2.45242681      24.62649775        1       0.01005304      -0.00089286       0.02637788
Pt       4.23131766       2.45141720      24.63001886        1      -0.01053533      -0.00044308       0.01048099
Pt       7.03972806       2.45182117      24.63529717        1      -0.03191825      -0.00803282      -0.00866626
Pt       2.82929680       4.88176377      24.63700184        1      -0.02665592       0.01125560      -0.02561859
Pt       5.63251392       4.88276356      24.63625795        1      -0.00710586      -0.00872237      -0.01628806
Pt       8.43837407       4.88028381      24.63185353        1       0.01319448       0.01692932      -0.01429298
C        8.38833302       4.84789543      29.24882956        0      -0.00902297      -0.00212030      -0.00376856
H        9.23868052       5.11681234      29.89352828        0       0.00458149       0.00980666      -0.00018286
H        7.53647047       4.54122311      29.87365035        0      -0.01309339      -0.01538707       0.01972666
H        8.67737672       4.01615058      28.58883372        0       0.00114790       0.00201149      -0.00258379
H        8.09654029       5.71656051      28.63961228        0       0.01653629       0.00557898      -0.00481875
