32
Lattice="8.421641763931781 0.0 0.0 4.2108208819658905 7.293355709136913 0.0 0.0 0.0 44.584161137365626" Properties=species:S:1:pos:R:3:tags:I:1:forces:R:3 charge=0 spin=0 energy=-161.46822127812834 free_energy=-161.46822127812834 stress="0.012183044105768204 9.821953426580876e-06 1.3789044714940246e-05 9.821953426580876e-06 0.012390774674713612 -1.9139304640702903e-05 1.3789044714940246e-05 -1.9139304640702903e-05 -0.00030318330391310155" pbc="T T T"
Pt       1.40360727       0.81037244      19.95766877        3      -0.00069381       0.02390757      -0.02416249
Pt       4.21082123       0.81037256      19.95766888        3      -0.00051447       0.02360501      -0.02392105
Pt       7.01803445       0.81037243      19.95766851        3      -0.00080721       0.02763816      -0.02605249
Pt       2.80721413       3.24149135      19.95766844        3      -0.00042587       0.02810005      -0.01950285
Pt       5.61442751       3.24149134      19.95766853        3       0.00237921       0.02771449      -0.02661396
Pt       8.42164211       3.24149148      19.95766852        3      -0.00382157       0.02856217      -0.02564403
Pt       4.21082074       5.67261030      19.95766878        3       0.00150700       0.02611986      -0.02576844
Pt       7.01803477       5.67261047      19.95766871        3      -0.00066187       0.02453649      -0.02608059
Pt       9.82524854       5.67261039      19.95766860        3      -0.00317215       0.02676914      -0.02617313
Pt       0.00000046       1.62074540      22.29208304        2       0.00796564      -0.05721162       0.01782366
Pt       2.80721419       1.62074531      22.29208311        2       0.00267858      -0.04434396       0.01222415
Pt       5.61442748       1.62074566      22.29208290        2       0.00154745      -0.05398406       0.01699510
Pt       1.40360675       4.05186459      22.29208313        2       0.01819535      -0.06174383       0.01353091
Pt       4.21082083       4.05186449      22.29208278        2      -0.01344231      -0.06020655       0.01518136
Pt       7.01803481       4.05186460      22.29208288        2       0.00352577      -0.05922516       0.00910190
Pt       2.80721463       6.48298242      22.29208276        2       0.00460179      -0.05431981       0.02364156
Pt       5.61442775       6.48298327      22.29208278        2      -0.00346211      -0.04842563       0.00857297
Pt       8.42164096       6.48298261      22.29208273        2       0.00622449      -0.04635184       0.00559904
Pt       0.00498630      -0.08828442      24.63438615        1      -0.00866518       0.02941345       0.00635624
Pt       2.81136047      -0.08421662      24.62940281        1      -0.00057427       0.00434020       0.01893659
Pt       5.61931880      -0.08823052      24.63307629        1       0.00297657       0.03295327       0.00875519
Pt       1.40808706       2.34092226      24.63464167        1      -0.00323467       0.04442275       0.00248326
Pt       4.21499970       2.34087513      24.63424506        1       0.00173820       0.04288044       0.00342881
Pt       7.02305121       2.34205846      24.63144712        1      -0.00452469       0.03870489       0.00825920
Pt       2.81166344       4.77517653      24.63688849        1       0.00072545       0.01606628      -0.00530073
Pt       5.61462242       4.77484085      24.62671981        1       0.02402809       0.02063903       0.01863099
Pt       8.43139485       4.77558267      24.62641587        1      -0.03316525       0.01781425       0.02058177
C        7.03941786       4.91086339      29.14465417        0      -0.00077109      -0.00057365      -0.01851567
H        7.83764237       4.50885135      29.78811185        0      -0.03299400      -0.00375099       0.00617702
H        6.24749511       5.35664118      29.76677039        0       0.03444924       0.00449323       0.00054787
H        6.61014295       4.09846464      28.53801249        0       0.02039767       0.00171670       0.01464625
H        7.46249623       5.67882199      28.47863224        0      -0.02201013      -0.00026032       0.01626179
