31
Lattice="8.421641763931781 0.0 0.0 4.2108208819658905 7.293355709136913 0.0 0.0 0.0 44.584161137365626" Properties=species:S:1:pos:R:3:tags:I:1:forces:R:3 energy=-173.71035766601562 free_energy=-173.71035766601562 stress="0.010695300996303558 -1.6186625373393326e-08 4.846979706485399e-09 -1.6186625373393326e-08 0.010695305652916431 3.3328936832610623e-10 4.846979706485399e-09 3.3328936832610623e-10 3.0953074201534037e-06" pbc="T T T"
Pt       1.40360696       0.81037286      20.00000000        3       0.00519129       0.00299383      -0.00957650
Pt       4.21082088       0.81037286      20.00000000        3       0.00000174       0.00324761      -0.00614354
Pt       7.01803480       0.81037286      20.00000000        3      -0.00519254       0.00299387      -0.00957793
Pt       2.80721392       3.24149143      20.00000000        3       0.00281534      -0.00162494      -0.00614524
Pt       5.61442784       3.24149143      20.00000000        3      -0.00281617      -0.00162534      -0.00614542
Pt       8.42164176       3.24149143      20.00000000        3       0.00000170       0.00468079       0.01237151
Pt       4.21082088       5.67261000      20.00000000        3       0.00000189      -0.00599099      -0.00957772
Pt       7.01803480       5.67261000      20.00000000        3       0.00405070      -0.00233760       0.01237270
Pt       9.82524872       5.67261000      20.00000000        3      -0.00405383      -0.00233731       0.01237288
Pt      -0.00000000       1.62074571      22.29208057        2       0.00000273       0.06262149       0.02822512
Pt       2.80721392       1.62074571      22.29208057        2      -0.00442480      -0.00255605      -0.00151703
Pt       5.61442784       1.62074571      22.29208057        2       0.00442263      -0.00255650      -0.00151718
Pt       1.40360696       4.05186428      22.29208057        2      -0.06926222       0.03998923      -0.02597504
Pt       4.21082088       4.05186428      22.29208057        2       0.00000074       0.00511048      -0.00151652
Pt       7.01803480       4.05186428      22.29208057        2       0.06926025       0.03998870      -0.02597658
Pt       2.80721392       6.48298285      22.29208057        2      -0.05423312      -0.03131127       0.02822378
Pt       5.61442784       6.48298285      22.29208057        2       0.05423133      -0.03130981       0.02822285
Pt       8.42164176       6.48298285      22.29208057        2       0.00000206      -0.07997509      -0.02597910
Pt       0.00000010      -0.00000036      24.58918485        1       0.00000163       0.00000199      -0.00197414
Pt       2.80292974       0.00806919      24.60058714        1       0.00136672      -0.00473852       0.00235844
Pt       5.61871260       0.00806876      24.60058699        1      -0.00137049      -0.00474214       0.00235687
Pt       1.40845325       2.42337382      24.60058740        1      -0.00342505       0.00355860       0.00235723
Pt       4.21082110       2.43111871      24.59012743        1       0.00000031      -0.00000117      -0.00374594
Pt       7.01318908       2.42337312      24.60058755        1       0.00342218       0.00355900       0.00235842
Pt       2.81634393       4.86191297      24.60058731        1      -0.00479519       0.00118433       0.00235739
Pt       5.60529736       4.86191301      24.60058725        1       0.00478895       0.00118409       0.00235759
Pt       8.42163976       4.86223830      24.66290873        1       0.00000385      -0.00000564       0.02310568
N        8.42163926       4.86223740      26.73258970        0       0.00010216      -0.00002986      -0.02154833
H        8.42164215       5.83391320      27.05342828        0      -0.00000312      -0.01096733      -0.00070332
H        9.26313920       4.37639778      27.05342310        0      -0.00956044       0.00552228      -0.00072076
H        7.58014604       4.37639829      27.05342962        0       0.00946879       0.00547305      -0.00070027
