32
Lattice="8.421641763931781 0.0 0.0 4.2108208819658905 7.293355709136913 0.0 0.0 0.0 44.584161137365626" Properties=species:S:1:pos:R:3:tags:I:1:forces:R:3 charge=0 spin=0 energy=-161.4837327908847 free_energy=-161.4837327908847 stress="0.01228016521781683 -1.6920057532843202e-05 -5.415446594270179e-06 -1.6920057532843202e-05 0.012281768955290318 -2.2854180770082166e-06 -5.415446594270179e-06 -2.2854180770082166e-06 -0.00020289651001803577" pbc="T T T"
Pt       1.40360727       0.81037244      19.95766877        3       0.00676206       0.00024432      -0.02422864
Pt       4.21082123       0.81037256      19.95766888        3       0.00597282      -0.00182667      -0.02491747
Pt       7.01803445       0.81037243      19.95766851        3       0.00478951       0.00018805      -0.02400528
Pt       2.80721413       3.24149135      19.95766844        3       0.00427658       0.00044479      -0.02467468
Pt       5.61442751       3.24149134      19.95766853        3       0.00675749       0.00010362      -0.02509934
Pt       8.42164211       3.24149148      19.95766852        3       0.00550921      -0.00017185      -0.02404599
Pt       4.21082074       5.67261030      19.95766878        3       0.00582557      -0.00141247      -0.02412377
Pt       7.01803477       5.67261047      19.95766871        3       0.00625109      -0.00103800      -0.02397534
Pt       9.82524854       5.67261039      19.95766860        3       0.00557217      -0.00013402      -0.02400316
Pt       0.00000046       1.62074540      22.29208304        2      -0.01147561       0.00021418       0.02450547
Pt       2.80721419       1.62074531      22.29208311        2      -0.01552805      -0.00260637       0.02675961
Pt       5.61442748       1.62074566      22.29208290        2      -0.00849547      -0.00101417       0.03276214
Pt       1.40360675       4.05186459      22.29208313        2      -0.00737822      -0.00362215       0.02147741
Pt       4.21082083       4.05186449      22.29208278        2      -0.01185909       0.00479808       0.02853083
Pt       7.01803481       4.05186460      22.29208288        2      -0.01734861      -0.00060603       0.01747654
Pt       2.80721463       6.48298242      22.29208276        2      -0.01333639       0.00127227       0.02486571
Pt       5.61442775       6.48298327      22.29208278        2      -0.01358249      -0.00045014       0.02758664
Pt       8.42164096       6.48298261      22.29208273        2      -0.01143531       0.00634555       0.01821825
Pt      -0.02023150       0.00091455      24.63038266        1       0.01292462      -0.00130808       0.00538024
Pt       2.78894619      -0.00125225      24.63275356        1      -0.00006323       0.01519982      -0.00223004
Pt       5.59423812      -0.00091456      24.63337517        1       0.01738867       0.01835016      -0.00717091
Pt       1.38403736       2.43167160      24.63319370        1       0.01437707      -0.00411394      -0.00471233
Pt       4.19076504       2.43240004      24.62909061        1       0.01557006      -0.00295515       0.00720375
Pt       7.00136873       2.43492442      24.63265573        1      -0.00969205      -0.02208993      -0.00343383
Pt       2.78789177       4.86333575      24.63300950        1       0.01728498      -0.00225938      -0.00440643
Pt       5.59824760       4.86294831      24.63337082        1      -0.01233477       0.00075131      -0.00593959
Pt       8.40403762       4.86340636      24.62966935        1       0.00385800      -0.00218380       0.01316491
C        8.42374564       4.85880283      29.84072260        0      -0.00054747      -0.00032496      -0.00621916
H        7.78176442       5.48362907      30.47854937        0      -0.01985558       0.01701785       0.02345650
H        9.08432500       4.24793352      30.47303896        0       0.02080118      -0.01662288       0.02382058
H        9.03327001       5.50538776      29.19177885        0      -0.00517536      -0.00806004      -0.02107807
H        7.79573480       4.19819616      29.22433301        0       0.00418671       0.00786989      -0.02094482
