32
Lattice="8.421641763931781 0.0 0.0 4.2108208819658905 7.293355709136913 0.0 0.0 0.0 44.584161137365626" Properties=species:S:1:pos:R:3:tags:I:1:forces:R:3 charge=0 spin=0 energy=-161.4812274884555 free_energy=-161.4812274884555 stress="0.012166699394583702 -7.506015663238941e-06 6.343768745864509e-07 -7.506015663238941e-06 0.012203250080347061 -5.85340740144602e-06 6.343768745864509e-07 -5.85340740144602e-06 -0.00033026188611984253" pbc="T T T"
Pt       1.40360727       0.81037244      19.95766877        3       0.00226264       0.00268295      -0.02385651
Pt       4.21082123       0.81037256      19.95766888        3       0.00207004       0.00504313      -0.02361236
Pt       7.01803445       0.81037243      19.95766851        3       0.00252539       0.00679943      -0.02495277
Pt       2.80721413       3.24149135      19.95766844        3       0.00212409       0.00533916      -0.02226733
Pt       5.61442751       3.24149134      19.95766853        3       0.00445145       0.00647975      -0.02393301
Pt       8.42164211       3.24149148      19.95766852        3       0.00141992       0.00504240      -0.02340740
Pt       4.21082074       5.67261030      19.95766878        3       0.00366422       0.00532092      -0.02271951
Pt       7.01803477       5.67261047      19.95766871        3       0.00328248       0.00454172      -0.02274396
Pt       9.82524854       5.67261039      19.95766860        3       0.00143478       0.00620880      -0.02346934
Pt       0.00000046       1.62074540      22.29208304        2      -0.00328882      -0.00954079       0.00237930
Pt       2.80721419       1.62074531      22.29208311        2       0.00030356      -0.00341141       0.02173809
Pt       5.61442748       1.62074566      22.29208290        2      -0.00966498      -0.01488576       0.01191993
Pt       1.40360675       4.05186459      22.29208313        2       0.00632040      -0.01378021       0.01376453
Pt       4.21082083       4.05186449      22.29208278        2      -0.01870988      -0.01198464       0.01096816
Pt       7.01803481       4.05186460      22.29208288        2      -0.00666757      -0.01399952      -0.01525034
Pt       2.80721463       6.48298242      22.29208276        2      -0.00689875      -0.02125577       0.01736365
Pt       5.61442775       6.48298327      22.29208278        2      -0.01143385      -0.00526730      -0.00829298
Pt       8.42164096       6.48298261      22.29208273        2      -0.00011895      -0.00866814      -0.00768514
Pt      -0.00984635      -0.01272559      24.62632766        1       0.00279758      -0.01612387       0.02604359
Pt       2.80115349      -0.02052719      24.62559901        1      -0.00199046       0.04098245       0.02624844
Pt       5.60460863      -0.02261065      24.62742298        1       0.01725882       0.03309729       0.01999335
Pt       1.39597041       2.41159093      24.62988645        1       0.01540889       0.01446112       0.00984925
Pt       4.20853078       2.41762636      24.63100564        1      -0.02908589      -0.01870701       0.00219613
Pt       7.00882637       2.41817972      24.62642928        1       0.00640013      -0.02665347       0.02547635
Pt       2.79929057       4.84103031      24.63445469        1       0.00506750       0.02315626      -0.00890990
Pt       5.60643986       4.84990945      24.62456038        1      -0.01252029      -0.01166320       0.03582789
Pt       8.41267708       4.84190918      24.62551084        1       0.02351134       0.01659532       0.03293787
C        6.91885026       5.03669291      29.63542123        0      -0.00149365      -0.00409873      -0.01740398
H        7.61160001       5.59010554      30.28669160        0      -0.00227703       0.01067801       0.01971447
H        6.17915978       4.50244584      30.24952732        0      -0.00598989      -0.01286655       0.03148092
H        7.48536568       4.31304634      29.03166962        0       0.01609639      -0.02381122      -0.02001524
H        6.39767595       5.73920436      28.96915740        0      -0.00625966       0.03028883      -0.01938196
