31
Lattice="8.421641763931781 0.0 0.0 4.2108208819658905 7.293355709136913 0.0 0.0 0.0 44.584161137365626" Properties=species:S:1:pos:R:3:tags:I:1:forces:R:3 energy=-172.5789794921875 free_energy=-172.5789794921875 stress="0.010473096743226051 -9.70790337007088e-10 2.7860271867297115e-09 -9.70790337007088e-10 0.01047310046851635 2.459539683030698e-09 2.7860271867297115e-09 2.459539683030698e-09 -0.00020023183606099337" pbc="T T T"
Pt       1.40360696       0.81037286      20.00000000        3       0.00000099      -0.00000252      -0.00540158
Pt       4.21082088       0.81037286      20.00000000        3      -0.00074516       0.00084755      -0.00204474
Pt       7.01803480       0.81037286      20.00000000        3       0.00079354       0.00067907      -0.00220037
Pt       2.80721392       3.24149143      20.00000000        3       0.00019350      -0.00103043      -0.00220054
Pt       5.61442784       3.24149143      20.00000000        3      -0.00000198      -0.00000053       0.00783741
Pt       8.42164176       3.24149143      20.00000000        3      -0.00036046      -0.00107057      -0.00204706
Pt       4.21082088       5.67261000      20.00000000        3       0.00111031       0.00022353      -0.00204465
Pt       7.01803480       5.67261000      20.00000000        3      -0.00098991       0.00035132      -0.00220066
Pt       9.82524872       5.67261000      20.00000000        3      -0.00000097       0.00000253      -0.00681770
Pt      -0.00000000       1.62074571      22.29208057        2      -0.03240056       0.01846211      -0.02422056
Pt       2.80721392       1.62074571      22.29208057        2       0.03219211       0.01882900      -0.02422179
Pt       5.61442784       1.62074571      22.29208057        2      -0.00152951       0.04198238       0.02925760
Pt       1.40360696       4.05186428      22.29208057        2      -0.00078288      -0.01329063      -0.03097383
Pt       4.21082088       4.05186428      22.29208057        2       0.03712232      -0.01966870       0.02926004
Pt       7.01803480       4.05186428      22.29208057        2      -0.03559685      -0.02231287       0.02926155
Pt       2.80721392       6.48298285      22.29208057        2       0.01190408       0.00596569      -0.03097670
Pt       5.61442784       6.48298285      22.29208057        2       0.00020989      -0.03729308      -0.02422177
Pt       8.42164176       6.48298285      22.29208057        2      -0.01111795       0.00732660      -0.03097712
Pt       0.00192651       0.00033099      24.57723222        1      -0.00364830      -0.00612882      -0.00424275
Pt       2.80596402       0.00150253      24.57723237        1       0.00713154      -0.00009519      -0.00424239
Pt       5.61385812      -0.00636829      24.57875337        1      -0.00299023       0.01932108      -0.00732291
Pt       1.40293085       2.42928455      24.57723244        1      -0.00348333       0.00622392      -0.00424257
Pt       4.19613073       2.42546248      24.58945432        1       0.01929949       0.01753142       0.00628425
Pt       7.03027799       2.42122461      24.58945450        1      -0.02483311       0.00794673       0.00628437
Pt       2.80198381       4.86591457      24.57875358        1       0.01822822      -0.00706884      -0.00733182
Pt       5.61687452       4.87778720      24.58945425        1       0.00553318      -0.02547916       0.00628388
Pt       8.42744138       4.86492825      24.57875364        1      -0.01523775      -0.01225159      -0.00733104
N        5.61442827       3.24149172      27.59559737        0      -0.00001685      -0.00001355       0.00371891
H        6.08240200       4.06216568      27.19906559        0      -0.03361124      -0.00871679       0.03568587
H        6.09116544       2.42587675      27.19906535        0       0.00925055       0.03347605       0.03569242
H        4.66971574       3.23643175      27.19906530        0       0.02437738      -0.02474573       0.03569609
