32
Lattice="8.421641763931781 0.0 0.0 4.2108208819658905 7.293355709136913 0.0 0.0 0.0 44.584161137365626" Properties=species:S:1:pos:R:3:tags:I:1:forces:R:3 charge=0 spin=0 energy=-161.48389396184416 free_energy=-161.48389396184416 stress="0.012269421480596066 -3.6891815398121253e-06 -1.6045006532294792e-06 -3.6891815398121253e-06 0.01224555540829897 2.8570855192810996e-06 -1.6045006532294792e-06 2.8570855192810996e-06 -0.00023030088050290942" pbc="T T T"
Pt       1.40360727       0.81037244      19.95766877        3       0.00206344      -0.00174924      -0.02404135
Pt       4.21082123       0.81037256      19.95766888        3       0.00132504      -0.00189009      -0.02592196
Pt       7.01803445       0.81037243      19.95766851        3       0.00013336      -0.00185904      -0.02379050
Pt       2.80721413       3.24149135      19.95766844        3       0.00117778      -0.00247637      -0.02535103
Pt       5.61442751       3.24149134      19.95766853        3       0.00078448      -0.00242841      -0.02542283
Pt       8.42164211       3.24149148      19.95766852        3       0.00086114      -0.00224209      -0.02255490
Pt       4.21082074       5.67261030      19.95766878        3       0.00101045      -0.00329433      -0.02439296
Pt       7.01803477       5.67261047      19.95766871        3       0.00135087      -0.00230161      -0.02271069
Pt       9.82524854       5.67261039      19.95766860        3       0.00070655      -0.00220458      -0.02262877
Pt       0.00000046       1.62074540      22.29208304        2      -0.00130263       0.01050161       0.01409469
Pt       2.80721419       1.62074531      22.29208311        2      -0.00693854       0.00203021       0.01880077
Pt       5.61442748       1.62074566      22.29208290        2       0.00187204       0.00264951       0.01731267
Pt       1.40360675       4.05186459      22.29208313        2      -0.01125117       0.00839805       0.03263638
Pt       4.21082083       4.05186449      22.29208278        2      -0.00263690       0.00923878       0.01720585
Pt       7.01803481       4.05186460      22.29208288        2       0.00611633       0.01105131       0.03152549
Pt       2.80721463       6.48298242      22.29208276        2      -0.00709580       0.00296710       0.01496050
Pt       5.61442775       6.48298327      22.29208278        2       0.00219432       0.00244860       0.01653637
Pt       8.42164096       6.48298261      22.29208273        2      -0.00175704      -0.00578042       0.03182261
Pt      -0.00390482       0.00785169      24.62568074        1       0.00323492      -0.00593983       0.02480602
Pt       2.80516889       0.00654991      24.63133992        1      -0.00654397      -0.00250989       0.00181844
Pt       5.60976234       0.00645437      24.63137523        1       0.00559986      -0.00280699       0.00172572
Pt       1.39945760       2.43905453      24.63173880        1       0.00231483      -0.00283483      -0.00020818
Pt       4.20708011       2.43830107      24.62676481        1       0.00097637      -0.00105767       0.02004047
Pt       7.01406144       2.43949653      24.63111458        1       0.00397122      -0.00532613       0.00326303
Pt       2.80304432       4.86921191      24.63094958        1       0.00084720      -0.00141882       0.00371275
Pt       5.61178662       4.86956136      24.63120402        1       0.00063045      -0.00103641       0.00237898
Pt       8.41825250       4.86894811      24.64119554        1       0.00039356      -0.00011417      -0.04250561
C        8.41886220       4.86544212      29.80011172        0      -0.00004622      -0.00008515      -0.01983158
H        7.55616960       5.10930146      30.43718462        0      -0.01838825       0.00646117       0.02186765
H        9.28611673       4.62294155      30.43149169        0       0.01843976      -0.00634010       0.02167446
H        8.65938143       5.72898464      29.16251373        0       0.00284342       0.01594993      -0.00849376
H        8.17376517       4.00052451      29.16612813        0      -0.00288664      -0.01600014      -0.00832891
