31
Lattice="8.421641763931781 0.0 0.0 4.2108208819658905 7.293355709136913 0.0 0.0 0.0 44.584161137365626" Properties=species:S:1:pos:R:3:tags:I:1:forces:R:3 energy=-172.80076599121094 free_energy=-172.80076599121094 stress="0.010380450636148453 -2.674477306285894e-09 -4.611636850171408e-09 -2.674477306285894e-09 0.010380445048213005 -3.101631729229837e-10 -4.611636850171408e-09 -3.101631729229837e-10 0.00013811630196869373" pbc="T T T"
Pt       1.40360696       0.81037286      20.00000000        3       0.00000125      -0.00000242      -0.00917149
Pt       4.21082088       0.81037286      20.00000000        3      -0.00175549       0.00301271       0.00178072
Pt       7.01803480       0.81037286      20.00000000        3       0.00208391       0.00282882       0.00179166
Pt       2.80721392       3.24149143      20.00000000        3       0.00140959      -0.00322359       0.00179192
Pt       5.61442784       3.24149143      20.00000000        3      -0.00000215      -0.00000025       0.03522867
Pt       8.42164176       3.24149143      20.00000000        3      -0.00173037      -0.00302837       0.00177824
Pt       4.21082088       5.67261000      20.00000000        3       0.00349168       0.00001616       0.00177991
Pt       7.01803480       5.67261000      20.00000000        3      -0.00349687       0.00039481       0.00179261
Pt       9.82524872       5.67261000      20.00000000        3      -0.00000150       0.00000250      -0.01458561
Pt      -0.00000000       1.62074571      22.29208057        2      -0.14292300       0.07743344       0.03906566
Pt       2.80721392       1.62074571      22.29208057        2       0.13852638       0.08505817       0.03906538
Pt       5.61442784       1.62074571      22.29208057        2      -0.00085500       0.12743875       0.05054081
Pt       1.40360696       4.05186428      22.29208057        2       0.00004062      -0.03188358      -0.06164211
Pt       4.21082088       4.05186428      22.29208057        2       0.11079438      -0.06298453       0.05054230
Pt       7.01803480       4.05186428      22.29208057        2      -0.10994408      -0.06445392       0.05054339
Pt       2.80721392       6.48298285      22.29208057        2       0.02759321       0.01597824      -0.06164534
Pt       5.61442784       6.48298285      22.29208057        2       0.00440009      -0.16249645       0.03906613
Pt       8.42164176       6.48298285      22.29208057        2      -0.02763263       0.01590797      -0.06164226
Pt       0.00294882      -0.00332058      24.56545337        1       0.00257999       0.02800847      -0.00533345
Pt       2.80861479       0.00421316      24.56545265        1      -0.02554458      -0.01177332      -0.00533223
Pt       5.61588437      -0.00628220      24.56941667        1       0.00357887      -0.02452209      -0.00741847
Pt       1.39925803       2.43022466      24.56545254        1       0.02296464      -0.01623690      -0.00533175
Pt       4.18525471       2.41956207      24.61814420        1       0.01124867      -0.01083316      -0.00881451
Pt       7.04082545       2.41475480      24.61814358        1       0.00375883       0.01516023      -0.00880188
Pt       2.80104563       4.86411672      24.56941698        1      -0.02302653       0.00915695      -0.00741683
Pt       5.61720335       4.89015555      24.61814465        1      -0.01500723      -0.00432165      -0.00881405
Pt       8.42635359       4.86663849      24.56941719        1       0.01944609       0.01536404      -0.00742714
N        5.61442750       3.24149157      26.94316636        0       0.00003070       0.00000065      -0.00893092
H        4.88347644       2.63568533      26.52136129        0      -0.00882581       0.02319106      -0.01082491
H        5.45525880       4.17741694      26.52136127        0       0.02450527      -0.00394541      -0.01081880
H        6.50454834       2.91137406      26.52136072        0      -0.01570903      -0.01924732      -0.01081592
