32
Lattice="8.421641763931781 0.0 0.0 4.2108208819658905 7.293355709136913 0.0 0.0 0.0 44.584161137365626" Properties=species:S:1:pos:R:3:tags:I:1:forces:R:3 charge=0 spin=0 energy=-161.4844194363925 free_energy=-161.4844194363925 stress="0.012279895134270191 9.661846888775472e-06 2.2737508231784886e-07 9.661846888775472e-06 0.012278398498892784 4.0617322838443215e-07 2.2737508231784886e-07 4.0617322838443215e-07 -0.000191422994248569" pbc="T T T"
Pt       1.40360727       0.81037244      19.95766877        3       0.00051964       0.00013457      -0.02402040
Pt       4.21082123       0.81037256      19.95766888        3      -0.00039061      -0.00188353      -0.02404567
Pt       7.01803445       0.81037243      19.95766851        3      -0.00070096       0.00019969      -0.02428386
Pt       2.80721413       3.24149135      19.95766844        3      -0.00172206       0.00048191      -0.02441853
Pt       5.61442751       3.24149134      19.95766853        3       0.00125225       0.00070215      -0.02401085
Pt       8.42164211       3.24149148      19.95766852        3       0.00006322       0.00044145      -0.02424779
Pt       4.21082074       5.67261030      19.95766878        3      -0.00011979      -0.00104756      -0.02422807
Pt       7.01803477       5.67261047      19.95766871        3       0.00032001      -0.00037079      -0.02427120
Pt       9.82524854       5.67261039      19.95766860        3      -0.00070754      -0.00059875      -0.02435716
Pt       0.00000046       1.62074540      22.29208304        2       0.00065685       0.00139320       0.02451792
Pt       2.80721419       1.62074531      22.29208311        2      -0.00114387      -0.00100728       0.02289293
Pt       5.61442748       1.62074566      22.29208290        2       0.00268157      -0.00003025       0.02402714
Pt       1.40360675       4.05186459      22.29208313        2       0.00427607      -0.00173593       0.02431964
Pt       4.21082083       4.05186449      22.29208278        2      -0.00032679       0.00304306       0.02441465
Pt       7.01803481       4.05186460      22.29208288        2      -0.00369541      -0.00123153       0.02467686
Pt       2.80721463       6.48298242      22.29208276        2      -0.00103673       0.00056252       0.02519579
Pt       5.61442775       6.48298327      22.29208278        2       0.00058874      -0.00119044       0.02449688
Pt       8.42164096       6.48298261      22.29208273        2       0.00111626       0.00458487       0.02403330
Pt       0.00054793       0.00079455      24.63034430        1      -0.00051015      -0.00067537       0.00719262
Pt       2.80759722       0.00120432      24.63250541        1       0.00071919      -0.00395975      -0.00349320
Pt       5.61508436       0.00091632      24.63273101        1      -0.00100966      -0.00321600      -0.00422244
Pt       1.40432143       2.43145123      24.63244928        1      -0.00224207       0.00308698      -0.00362124
Pt       4.21138362       2.43178555      24.62955492        1       0.00021861       0.00007141       0.00927646
Pt       7.01835466       2.43153491      24.63275480        1       0.00140257       0.00199128      -0.00420018
Pt       2.80815683       4.86312200      24.63271040        1      -0.00311209      -0.00055267      -0.00464687
Pt       5.61469452       4.86276075      24.63278597        1       0.00270063       0.00111360      -0.00494386
Pt       8.42210715       4.86294938      24.63007706        1       0.00023361      -0.00034784       0.00261997
C        8.42359257       4.86203582      29.80880994        0      -0.00005065       0.00002811       0.02054412
H        7.78863250       4.22489755      30.44384824        0       0.00699010       0.00584951      -0.00785004
H        9.05956431       5.49642259      30.44559029        0      -0.00702613      -0.00586810      -0.00795625
H        7.78784616       5.49747220      29.17436930        0      -0.01009891       0.01076175       0.00037087
H        9.05831076       4.22935074      29.17060428        0       0.01015392      -0.01073012       0.00023861
