31
Lattice="8.421641763931781 0.0 0.0 4.2108208819658905 7.293355709136913 0.0 0.0 0.0 44.584161137365626" Properties=species:S:1:pos:R:3:tags:I:1:forces:R:3 energy=-173.71566772460938 free_energy=-173.71566772460938 stress="0.010731211863458157 -9.224633501503376e-09 2.2399426313768345e-08 -9.224633501503376e-09 0.010731156915426254 6.097155225148754e-09 2.2399426313768345e-08 6.097155225148754e-09 2.1074210962979123e-05" pbc="T T T"
Pt       1.40360696       0.81037286      20.00000000        3       0.00554258       0.00235876      -0.00801781
Pt       4.21082088       0.81037286      20.00000000        3      -0.00056550       0.00240846      -0.00491896
Pt       7.01803480       0.81037286      20.00000000        3      -0.00481769       0.00361661      -0.00801745
Pt       2.80721392       3.24149143      20.00000000        3       0.00237160      -0.00071371      -0.00491968
Pt       5.61442784       3.24149143      20.00000000        3      -0.00180540      -0.00169630      -0.00492001
Pt       8.42164176       3.24149143      20.00000000        3       0.00012955       0.00453669       0.01194897
Pt       4.21082088       5.67261000      20.00000000        3      -0.00072430      -0.00597831      -0.00801757
Pt       7.01803480       5.67261000      20.00000000        3       0.00386251      -0.00237730       0.01195040
Pt       9.82524872       5.67261000      20.00000000        3      -0.00399362      -0.00215437       0.01195034
Pt      -0.00000000       1.62074571      22.29208057        2      -0.00345263       0.05798790       0.04052630
Pt       2.80721392       1.62074571      22.29208057        2      -0.00074626      -0.01197855       0.01779908
Pt       5.61442784       1.62074571      22.29208057        2       0.01074338       0.00533901       0.01779766
Pt       1.40360696       4.05186428      22.29208057        2      -0.05779468       0.03318542      -0.03198339
Pt       4.21082088       4.05186428      22.29208057        2      -0.00999711       0.00663607       0.01779906
Pt       7.01803480       4.05186428      22.29208057        2       0.05763419       0.03346017      -0.03198295
Pt       2.80721392       6.48298285      22.29208057        2      -0.04849217      -0.03198622       0.04052536
Pt       5.61442784       6.48298285      22.29208057        2       0.05194659      -0.02600212       0.04052640
Pt       8.42164176       6.48298285      22.29208057        2       0.00015965      -0.06664205      -0.03198499
Pt       0.00000016      -0.00000003      24.59135568        1       0.00000313      -0.00000428      -0.01073310
Pt       2.81075550      -0.00383811      24.60838702        1      -0.02137111       0.04126581      -0.01027681
Pt       5.62262942       0.01404867      24.60009198        1       0.00885543       0.02332767      -0.01380652
Pt       1.41167312       2.41699108      24.60009256        1       0.01577490      -0.01933604      -0.01380567
Pt       4.21082115       2.43111838      24.59176421        1      -0.00000222      -0.00000095      -0.01549476
Pt       7.01958750       2.43610385      24.60838758        1      -0.02504919      -0.03913711      -0.01027644
Pt       2.80211939       4.86108927      24.60838712        1       0.04642557      -0.00212513      -0.01027623
Pt       5.59816051       4.86231503      24.60009169        1      -0.02463392      -0.00398997      -0.01380672
Pt       8.42164194       4.86223681      24.65832886        1      -0.00000507      -0.00000076      -0.02944547
N        8.42163922       4.86223719      26.72027075        0       0.00019753       0.00006235       0.04299235
H        9.39294172       4.86240456      27.04136575        0       0.01737532       0.00119679       0.00291443
H        7.93613734       4.02098507      27.04136525        0      -0.00776494      -0.01582840       0.00298834
H        7.93584756       5.70332370      27.04136400        0      -0.00980617       0.01457009       0.00296565
