32
Lattice="8.421641763931781 0.0 0.0 4.2108208819658905 7.293355709136913 0.0 0.0 0.0 44.584161137365626" Properties=species:S:1:pos:R:3:tags:I:1:forces:R:3 charge=0 spin=0 energy=-161.4832569074008 free_energy=-161.4832569074008 stress="0.012280785478651524 -1.1138984518765938e-05 -1.574652515046182e-06 -1.1138984518765938e-05 0.012277377769351006 2.655103230608802e-07 -1.574652515046182e-06 2.655103230608802e-07 -0.00017570531053934246" pbc="T T T"
Pt       1.40360727       0.81037244      19.95766877        3      -0.00026898       0.00097621      -0.02364069
Pt       4.21082123       0.81037256      19.95766888        3       0.00016477      -0.00129939      -0.02293630
Pt       7.01803445       0.81037243      19.95766851        3       0.00100398       0.00106038      -0.02515033
Pt       2.80721413       3.24149135      19.95766844        3      -0.00024886       0.00201252      -0.02201635
Pt       5.61442751       3.24149134      19.95766853        3       0.00297794       0.00295014      -0.02359994
Pt       8.42164211       3.24149148      19.95766852        3      -0.00259343       0.00368870      -0.02495778
Pt       4.21082074       5.67261030      19.95766878        3       0.00257479       0.00104081      -0.02336028
Pt       7.01803477       5.67261047      19.95766871        3      -0.00058458       0.00110830      -0.02629749
Pt       9.82524854       5.67261039      19.95766860        3      -0.00223397      -0.00030702      -0.02475286
Pt       0.00000046       1.62074540      22.29208304        2       0.00407786      -0.00984463       0.02704462
Pt       2.80721419       1.62074531      22.29208311        2       0.00191973       0.00146592       0.02778270
Pt       5.61442748       1.62074566      22.29208290        2      -0.00690164      -0.00307337       0.03332893
Pt       1.40360675       4.05186459      22.29208313        2       0.00927967      -0.00174404       0.02087851
Pt       4.21082083       4.05186449      22.29208278        2      -0.00905836      -0.00459596       0.02674950
Pt       7.01803481       4.05186460      22.29208288        2      -0.00109473      -0.01480954       0.01082895
Pt       2.80721463       6.48298242      22.29208276        2       0.00066789       0.00021552       0.03840393
Pt       5.61442775       6.48298327      22.29208278        2      -0.00776517      -0.00235988       0.02357457
Pt       8.42164096       6.48298261      22.29208273        2       0.00751752       0.01071230       0.02061924
Pt       0.00391628      -0.00468129      24.63558654        1      -0.01598285      -0.00206606      -0.01373249
Pt       2.80408999      -0.00467958      24.63011930        1       0.01640766       0.01240050       0.00407022
Pt       5.61541082      -0.00166368      24.63444994        1      -0.01007803      -0.00987536      -0.01065540
Pt       1.40267666       2.43250752      24.63183266        1       0.00394061      -0.02229910       0.00211482
Pt       4.20612681       2.42947969      24.63431176        1       0.02051219      -0.01616830      -0.00993114
Pt       7.01939646       2.41976877      24.63218974        1      -0.00919916       0.02952999      -0.00009987
Pt       2.80814219       4.86201792      24.63479245        1      -0.00347969      -0.00671987      -0.00821999
Pt       5.61727106       4.85048780      24.62976786        1      -0.02205217       0.03292132       0.00207544
Pt       8.41899603       4.86034894      24.62610007        1       0.01987658      -0.00399937       0.01646465
C        6.99672089       4.93116412      29.31965464        0      -0.00306253      -0.00042158       0.01910108
H        7.44898630       5.68573594      29.98069716        0       0.01359247       0.02526280      -0.01157123
H        6.52197196       4.15270448      29.93562333        0      -0.01047282      -0.02717006      -0.01148106
H        7.77782266       4.47856540      28.68983405        0      -0.01126713       0.00557392       0.00601257
H        6.23692122       5.40752165      28.68137833        0       0.01183007      -0.00416576       0.00335372
