32
Lattice="8.421641763931781 0.0 0.0 4.2108208819658905 7.293355709136913 0.0 0.0 0.0 44.584161137365626" Properties=species:S:1:pos:R:3:tags:I:1:forces:R:3 charge=0 spin=0 energy=-161.4836231183383 free_energy=-161.4836231183383 stress="0.01227595191448927 8.050553333305288e-06 2.262047019030433e-06 8.050553333305288e-06 0.012336067855358124 -8.839749170874711e-06 2.262047019030433e-06 -8.839749170874711e-06 -0.00015612514107488096" pbc="T T T"
Pt       1.40360727       0.81037244      19.95766877        3      -0.00198192       0.00556652      -0.02373927
Pt       4.21082123       0.81037256      19.95766888        3      -0.00133660       0.00562088      -0.02392169
Pt       7.01803445       0.81037243      19.95766851        3      -0.00131492       0.00750418      -0.02489185
Pt       2.80721413       3.24149135      19.95766844        3      -0.00151752       0.00675035      -0.02350598
Pt       5.61442751       3.24149134      19.95766853        3       0.00010762       0.00710372      -0.02478123
Pt       8.42164211       3.24149148      19.95766852        3      -0.00303774       0.00701743      -0.02502400
Pt       4.21082074       5.67261030      19.95766878        3      -0.00027638       0.00488597      -0.02444529
Pt       7.01803477       5.67261047      19.95766871        3      -0.00166800       0.00416781      -0.02451259
Pt       9.82524854       5.67261039      19.95766860        3      -0.00273236       0.00507351      -0.02456880
Pt       0.00000046       1.62074540      22.29208304        2       0.00498308      -0.01755009       0.02835361
Pt       2.80721419       1.62074531      22.29208311        2       0.00429656      -0.01292752       0.02883683
Pt       5.61442748       1.62074566      22.29208290        2       0.00334825      -0.01619851       0.02873679
Pt       1.40360675       4.05186459      22.29208313        2       0.00663740      -0.01169541       0.02651163
Pt       4.21082083       4.05186449      22.29208278        2      -0.00260542      -0.01232336       0.02638060
Pt       7.01803481       4.05186460      22.29208288        2       0.00402083      -0.01400576       0.02460804
Pt       2.80721463       6.48298242      22.29208276        2       0.00328063      -0.01179655       0.03672500
Pt       5.61442775       6.48298327      22.29208278        2       0.00071586      -0.00917436       0.02659402
Pt       8.42164096       6.48298261      22.29208273        2       0.00741620      -0.00764390       0.02778593
Pt       0.00581306      -0.01895029      24.63430236        1      -0.00544244       0.00457932      -0.00696495
Pt       2.81261830      -0.02003810      24.63229125        1      -0.00202455       0.01221080      -0.00294783
Pt       5.61973146      -0.01911165      24.63414728        1       0.00059034       0.00347553      -0.00795975
Pt       1.40872350       2.41203030      24.63195650        1       0.00042953       0.00457082      -0.00011669
Pt       4.21691498       2.41190858      24.63216872        1      -0.00655268       0.00434140      -0.00269259
Pt       7.02352852       2.41100380      24.63255623        1      -0.00196519       0.00920123      -0.00524844
Pt       2.81258669       4.84245368      24.63421632        1      -0.00101969       0.01083930      -0.00545096
Pt       5.61906099       4.84319808      24.63137094        1       0.00141729       0.00524152      -0.00196921
Pt       8.42785425       4.84354986      24.63171545        1      -0.00489917       0.00394643      -0.00204323
C        6.99138406       4.11668562      29.55311918        0       0.00125945       0.00041916       0.00341464
H        6.76863238       3.22866484      30.16450229        0       0.00113449       0.00337255      -0.00263962
H        7.23237330       4.96485148      30.21231159        0      -0.00174176      -0.00361044      -0.00179781
H        6.11458173       4.36737440      28.93715538        0      -0.00481197       0.00178453       0.00137019
H        7.85034575       3.90603722      28.89815262        0       0.00529066      -0.00074730      -0.00009518
