31
Lattice="8.421641763931781 0.0 0.0 4.2108208819658905 7.293355709136913 0.0 0.0 0.0 44.584161137365626" Properties=species:S:1:pos:R:3:tags:I:1:forces:R:3 energy=-172.64517211914062 free_energy=-172.64517211914062 stress="0.010424400679767132 7.80481013151757e-10 -1.0556431284669543e-09 7.80481013151757e-10 0.010424407199025154 1.6814108994012145e-09 -1.0556431284669543e-09 1.6814108994012145e-09 -8.779658855928574e-06" pbc="T T T"
Pt       1.40360696       0.81037286      20.00000000        3       0.00203398       0.00117112       0.00089699
Pt       4.21082088       0.81037286      20.00000000        3      -0.00203146       0.00117218       0.00089800
Pt       7.01803480       0.81037286      20.00000000        3      -0.00000252       0.00398749       0.00066751
Pt       2.80721392       3.24149143      20.00000000        3       0.00000088      -0.00234779       0.00089645
Pt       5.61442784       3.24149143      20.00000000        3       0.00027101       0.00015750       0.02934408
Pt       8.42164176       3.24149143      20.00000000        3      -0.00027183       0.00015839       0.02934223
Pt       4.21082088       5.67261000      20.00000000        3       0.00345794      -0.00199313       0.00066900
Pt       7.01803480       5.67261000      20.00000000        3      -0.00000205      -0.00031319       0.02934349
Pt       9.82524872       5.67261000      20.00000000        3      -0.00345619      -0.00199213       0.00066820
Pt      -0.00000000       1.62074571      22.29208057        2      -0.07618430       0.08602736      -0.01590203
Pt       2.80721392       1.62074571      22.29208057        2       0.00000110      -0.00000147      -0.06579363
Pt       5.61442784       1.62074571      22.29208057        2       0.07618386       0.08602849      -0.01590272
Pt       1.40360696       4.05186428      22.29208057        2      -0.11259596       0.02296363      -0.01590189
Pt       4.21082088       4.05186428      22.29208057        2       0.11259848       0.02296335      -0.01590282
Pt       7.01803480       4.05186428      22.29208057        2      -0.00000315       0.00000023       0.00991615
Pt       2.80721392       6.48298285      22.29208057        2       0.00000055       0.00000136      -0.07842087
Pt       5.61442784       6.48298285      22.29208057        2       0.03640974      -0.10899301      -0.01590282
Pt       8.42164176       6.48298285      22.29208057        2      -0.03641032      -0.10899109      -0.01590355
Pt      -0.00172812      -0.00099819      24.55968832        1      -0.00141907      -0.00081935       0.02566662
Pt       2.80721396       0.00666466      24.58204440        1      -0.00000030      -0.00462640      -0.00813428
Pt       5.61615622      -0.00099831      24.55968820        1       0.00141994      -0.00081675       0.02566631
Pt       1.40937895       2.42778607      24.58204448        1      -0.00400671       0.00231284      -0.00813216
Pt       4.20504908       2.42778610      24.58204441        1       0.00400770       0.00231253      -0.00813317
Pt       7.01803470       2.40933300      24.62282308        1      -0.00000172       0.01740051       0.04149206
Pt       2.80721394       4.86423299      24.55968896        1       0.00000014       0.00163813       0.02566823
Pt       5.59556121       4.87312987      24.62282299        1       0.01506901      -0.00870035       0.04149120
Pt       8.44050805       4.87312991      24.62282321        1      -0.01506893      -0.00870093       0.04149184
N        7.01803482       4.05186440      26.88201398        0      -0.00000001      -0.00001698      -0.01731607
H        6.22373088       3.59327253      26.36754960        0      -0.01716356      -0.00990586      -0.00758815
H        7.01803493       4.96904742      26.36755066        0      -0.00000018       0.01982988      -0.00759619
H        7.81233869       3.59327250      26.36755057        0       0.01716395      -0.00990640      -0.00758758
