32
Lattice="8.421641763931781 0.0 0.0 4.2108208819658905 7.293355709136913 0.0 0.0 0.0 44.584161137365626" Properties=species:S:1:pos:R:3:tags:I:1:forces:R:3 charge=0 spin=0 energy=-161.4835420560214 free_energy=-161.4835420560214 stress="0.012291371822357178 -1.9596160200308077e-05 -1.8484365682525095e-07 -1.9596160200308077e-05 0.012358362786471844 -7.324894340854371e-06 -1.8484365682525095e-07 -7.324894340854371e-06 -0.00013176395441405475" pbc="T T T"
Pt       1.40360727       0.81037244      19.95766877        3       0.00290519       0.00489956      -0.02421075
Pt       4.21082123       0.81037256      19.95766888        3       0.00326574       0.00443186      -0.02401480
Pt       7.01803445       0.81037243      19.95766851        3       0.00307162       0.00641326      -0.02481410
Pt       2.80721413       3.24149135      19.95766844        3       0.00288736       0.00549103      -0.02385091
Pt       5.61442751       3.24149134      19.95766853        3       0.00454346       0.00591917      -0.02494467
Pt       8.42164211       3.24149148      19.95766852        3       0.00187872       0.00592064      -0.02479851
Pt       4.21082074       5.67261030      19.95766878        3       0.00430994       0.00373097      -0.02443819
Pt       7.01803477       5.67261047      19.95766871        3       0.00315260       0.00311966      -0.02454682
Pt       9.82524854       5.67261039      19.95766860        3       0.00175581       0.00399542      -0.02442784
Pt       0.00000046       1.62074540      22.29208304        2      -0.00650395      -0.01522683       0.03083844
Pt       2.80721419       1.62074531      22.29208311        2      -0.00628876      -0.01138125       0.02968330
Pt       5.61442748       1.62074566      22.29208290        2      -0.00521484      -0.01272911       0.03021016
Pt       1.40360675       4.05186459      22.29208313        2      -0.00393646      -0.00946394       0.02742956
Pt       4.21082083       4.05186449      22.29208278        2      -0.01033084      -0.00915896       0.02923169
Pt       7.01803481       4.05186460      22.29208288        2      -0.00788972      -0.01183238       0.02983591
Pt       2.80721463       6.48298242      22.29208276        2      -0.00649747      -0.00947286       0.03678893
Pt       5.61442775       6.48298327      22.29208278        2      -0.00938550      -0.00901726       0.02974875
Pt       8.42164096       6.48298261      22.29208273        2      -0.00283421      -0.00594160       0.02890892
Pt      -0.00930355      -0.01616513      24.63414724        1       0.00128539       0.00350767      -0.00827421
Pt       2.79754303      -0.01710988      24.63239148        1       0.00362166       0.01163731      -0.00393281
Pt       5.60486711      -0.01564351      24.63435471        1       0.00573826       0.00257960      -0.00661169
Pt       1.39349549       2.41516484      24.63191342        1       0.00805878       0.00348689      -0.00220101
Pt       4.20195596       2.41497173      24.63207415        1       0.00084282       0.00421550      -0.00049911
Pt       7.00867699       2.41407868      24.63385296        1       0.00277994       0.00907854      -0.01078642
Pt       2.79800143       4.84551479      24.63413177        1       0.00235522       0.00953432      -0.00554250
Pt       5.60430752       4.84628479      24.63323909        1       0.00726264       0.00336550      -0.00820333
Pt       8.41287529       4.84672442      24.63221889        1       0.00026934       0.00237865      -0.00589084
C        7.05634764       4.10494819      29.55729073        0      -0.00621755       0.00154950       0.03673828
H        6.82579262       4.96939688      30.20065638        0       0.00869653      -0.03206622      -0.01955544
H        7.28780090       3.23013384      30.18608239        0      -0.00787229       0.03062761      -0.01979069
H        7.92348529       4.34147404      28.92248961        0       0.00755876       0.00117384       0.00033591
H        6.18758873       3.87910175      28.92038312        0      -0.00326809      -0.00076608       0.00158504
