31
Lattice="8.421641763931781 0.0 0.0 4.2108208819658905 7.293355709136913 0.0 0.0 0.0 44.584161137365626" Properties=species:S:1:pos:R:3:tags:I:1:forces:R:3 energy=-173.71566772460938 free_energy=-173.71566772460938 stress="0.010731147602200508 -3.5872820269844397e-09 8.559075226344248e-09 -3.5872820269844397e-09 0.010731132701039314 3.4804934490040296e-09 8.559075226344248e-09 3.4804934490040296e-09 2.097151991620194e-05" pbc="T T T"
Pt       1.40360696       0.81037286      20.00000000        3       0.00554332       0.00235881      -0.00801665
Pt       4.21082088       0.81037286      20.00000000        3      -0.00056582       0.00240831      -0.00491786
Pt       7.01803480       0.81037286      20.00000000        3      -0.00481825       0.00361681      -0.00801742
Pt       2.80721392       3.24149143      20.00000000        3       0.00237248      -0.00071417      -0.00491950
Pt       5.61442784       3.24149143      20.00000000        3      -0.00180549      -0.00169666      -0.00491926
Pt       8.42164176       3.24149143      20.00000000        3       0.00012971       0.00453629       0.01194811
Pt       4.21082088       5.67261000      20.00000000        3      -0.00072401      -0.00597895      -0.00801706
Pt       7.01803480       5.67261000      20.00000000        3       0.00386174      -0.00237654       0.01194996
Pt       9.82524872       5.67261000      20.00000000        3      -0.00399339      -0.00215324       0.01194975
Pt      -0.00000000       1.62074571      22.29208057        2      -0.00345254       0.05798950       0.04052748
Pt       2.80721392       1.62074571      22.29208057        2      -0.00074369      -0.01197783       0.01779808
Pt       5.61442784       1.62074571      22.29208057        2       0.01074138       0.00534131       0.01779618
Pt       1.40360696       4.05186428      22.29208057        2      -0.05778855       0.03318106      -0.03198071
Pt       4.21082088       4.05186428      22.29208057        2      -0.00999864       0.00663259       0.01779810
Pt       7.01803480       4.05186428      22.29208057        2       0.05762766       0.03345761      -0.03198120
Pt       2.80721392       6.48298285      22.29208057        2      -0.04849496      -0.03198669       0.04052569
Pt       5.61442784       6.48298285      22.29208057        2       0.05194863      -0.02600291       0.04052587
Pt       8.42164176       6.48298285      22.29208057        2       0.00015996      -0.06663504      -0.03198316
Pt       0.00000002      -0.00000023      24.59135709        1       0.00000180       0.00000035      -0.01072994
Pt       2.81075436      -0.00383680      24.60838914        1      -0.02135698       0.04124582      -0.01028185
Pt       5.62263197       0.01405287      24.60009349        1       0.00883904       0.02329955      -0.01381133
Pt       1.41167547       2.41698674      24.60009422        1       0.01575777      -0.01930698      -0.01381142
Pt       4.21082105       2.43111823      24.59176600        1      -0.00000288       0.00000214      -0.01550129
Pt       7.01958664       2.43610229      24.60838936        1      -0.02503739      -0.03911658      -0.01028059
Pt       2.80212089       4.86108951      24.60838961        1       0.04639949      -0.00212969      -0.01028116
Pt       5.59815501       4.86231544      24.60009395        1      -0.02460007      -0.00399451      -0.01381083
Pt       8.42164120       4.86223695      24.65832288        1      -0.00000073      -0.00000100      -0.02956486
N        8.42164174       4.86223713      26.72025161        0       0.00007850       0.00002125       0.04313308
H        7.93613964       4.02098811      27.04135384        0      -0.00777063      -0.01585100       0.00297001
H        7.93585009       5.70331976      27.04135285        0      -0.00983439       0.01463362       0.00296190
H        9.39293726       4.86240413      27.04135271        0       0.01752697       0.00119664       0.00294156
