31
Lattice="8.421641763931781 0.0 0.0 4.2108208819658905 7.293355709136913 0.0 0.0 0.0 44.584161137365626" Properties=species:S:1:pos:R:3:tags:I:1:forces:R:3 energy=-172.65090942382812 free_energy=-172.65090942382812 stress="0.010420468635857105 -1.56614254898102e-09 1.451728404155972e-09 -1.56614254898102e-09 0.010420488193631172 -3.580480134601771e-09 1.451728404155972e-09 -3.580480134601771e-09 -9.699567272036802e-06" pbc="T T T"
Pt       1.40360696       0.81037286      20.00000000        3       0.00000092      -0.00000268      -0.00922671
Pt       4.21082088       0.81037286      20.00000000        3      -0.00161700       0.00377610       0.01037946
Pt       7.01803480       0.81037286      20.00000000        3       0.00161613       0.00377544       0.01037824
Pt       2.80721392       3.24149143      20.00000000        3       0.00246363      -0.00329092       0.01037744
Pt       5.61442784       3.24149143      20.00000000        3      -0.00000198      -0.00000024       0.05188459
Pt       8.42164176       3.24149143      20.00000000        3      -0.00246084      -0.00329039       0.01037621
Pt       4.21082088       5.67261000      20.00000000        3       0.00408328      -0.00048569       0.01037866
Pt       7.01803480       5.67261000      20.00000000        3      -0.00408290      -0.00048432       0.01037744
Pt       9.82524872       5.67261000      20.00000000        3      -0.00000122       0.00000266      -0.00294673
Pt      -0.00000000       1.62074571      22.29208057        2      -0.14261788       0.08234098      -0.01450319
Pt       2.80721392       1.62074571      22.29208057        2       0.14262131       0.08234069      -0.01450219
Pt       5.61442784       1.62074571      22.29208057        2      -0.00000253       0.10560528      -0.00440413
Pt       1.40360696       4.05186428      22.29208057        2       0.00000157      -0.00523458      -0.04636890
Pt       4.21082088       4.05186428      22.29208057        2       0.09145905      -0.05280384      -0.00440203
Pt       7.01803480       4.05186428      22.29208057        2      -0.09146093      -0.05280329      -0.00440220
Pt       2.80721392       6.48298285      22.29208057        2       0.00453241       0.00261740      -0.04637118
Pt       5.61442784       6.48298285      22.29208057        2       0.00000010      -0.16468275      -0.01450500
Pt       8.42164176       6.48298285      22.29208057        2      -0.00453244       0.00261986      -0.04637114
Pt       0.00520226       0.00300330      24.55814245        1      -0.02220508      -0.01281979       0.03849109
Pt       2.80201211       0.00300314      24.55814294        1       0.02220293      -0.01281835       0.03848287
Pt       5.61442778       0.00060328      24.57922943        1       0.00000132      -0.02770659       0.00173236
Pt       1.40360710       2.42511190      24.55814331        1       0.00000094       0.02563798       0.03848259
Pt       4.18051141       2.41361887      24.62834607        1       0.03288580       0.01899106      -0.01524493
Pt       7.04834409       2.41361914      24.62834597        1      -0.03288725       0.01898704      -0.01524444
Pt       2.80773609       4.86193544      24.57922940        1      -0.02399105       0.01385165       0.00173327
Pt       5.61442824       4.89723568      24.62834602        1      -0.00000334      -0.03797636      -0.01524414
Pt       8.42111868       4.86193516      24.57922956        1       0.02399533       0.01385327       0.00173479
N        5.61442771       3.24149139      26.85409067        0      -0.00000328       0.00001094       0.03312041
H        4.81739286       3.70166015      26.34143977        0       0.01377226      -0.00795523      -0.00472856
H        6.41146253       3.70165959      26.34144006        0      -0.01376608      -0.00794762      -0.00473008
H        5.61442821       2.32115504      26.34144034        0      -0.00000321       0.01589242      -0.00473392
