32
Lattice="8.421641763931781 0.0 0.0 4.2108208819658905 7.293355709136913 0.0 0.0 0.0 44.584161137365626" Properties=species:S:1:pos:R:3:tags:I:1:forces:R:3 charge=0 spin=0 energy=-161.48129043096037 free_energy=-161.48129043096037 stress="0.012258763425052166 1.6975065591395833e-05 2.8040863071510103e-06 1.6975065591395833e-05 0.012316849082708359 9.389167985318636e-07 2.8040863071510103e-06 9.389167985318636e-07 -0.00020214862888678908" pbc="T T T"
Pt       1.40360727       0.81037244      19.95766877        3      -0.00362044       0.00530313      -0.02432508
Pt       4.21082123       0.81037256      19.95766888        3      -0.00525022       0.00465535      -0.02568566
Pt       7.01803445       0.81037243      19.95766851        3      -0.00528198       0.00850919      -0.02401469
Pt       2.80721413       3.24149135      19.95766844        3      -0.00539634       0.00636940      -0.02216881
Pt       5.61442751       3.24149134      19.95766853        3      -0.00340374       0.00759064      -0.02339347
Pt       8.42164211       3.24149148      19.95766852        3      -0.00644795       0.00728550      -0.02514887
Pt       4.21082074       5.67261030      19.95766878        3      -0.00332009       0.00646047      -0.02309389
Pt       7.01803477       5.67261047      19.95766871        3      -0.00498773       0.00573176      -0.02570402
Pt       9.82524854       5.67261039      19.95766860        3      -0.00718170       0.00689367      -0.02441204
Pt       0.00000046       1.62074540      22.29208304        2       0.00881249      -0.01558139       0.03140417
Pt       2.80721419       1.62074531      22.29208311        2       0.00456099      -0.00592891       0.02073016
Pt       5.61442748       1.62074566      22.29208290        2       0.01880154      -0.01192937       0.01921835
Pt       1.40360675       4.05186459      22.29208313        2       0.02225666      -0.01796249       0.01787196
Pt       4.21082083       4.05186449      22.29208278        2       0.00502191      -0.01171789       0.02090989
Pt       7.01803481       4.05186460      22.29208288        2       0.00617093      -0.02023637       0.02872378
Pt       2.80721463       6.48298242      22.29208276        2       0.01484986      -0.01722589       0.03125072
Pt       5.61442775       6.48298327      22.29208278        2       0.00233650      -0.01343628       0.01637986
Pt       8.42164096       6.48298261      22.29208273        2       0.01885990      -0.00975828       0.00789726
Pt       0.01679952      -0.01940652      24.63423777        1      -0.00904977       0.00184934      -0.00429233
Pt       2.82440132      -0.02130886      24.62592232        1      -0.01186251       0.01145451       0.02289228
Pt       5.63310319      -0.01935343      24.63051733        1      -0.00826042      -0.00144278       0.00777358
Pt       1.41616961       2.41123016      24.63353484        1       0.01275230       0.00131382      -0.00579354
Pt       4.22821899       2.40858299      24.62906608        1      -0.00893764       0.02013187       0.01639107
Pt       7.03416030       2.41088290      24.63626566        1      -0.00533196       0.01279884      -0.01789096
Pt       2.82524984       4.83864391      24.63483321        1      -0.00882668       0.02126052      -0.00951357
Pt       5.62751041       4.84354951      24.63163245        1       0.01513458      -0.00682668      -0.00307274
Pt       8.44214713       4.84170676      24.62665785        1      -0.02998687       0.00595310       0.02120518
C        6.72866833       4.36692473      29.66946200        0       0.00511221       0.04255283       0.00880000
H        7.78609446       4.10443438      29.50739825        0      -0.02976463       0.01061696       0.01967079
H        6.60617546       4.82229330      30.66481835        0       0.02704772      -0.02880036      -0.00400665
H        6.10985499       3.45959108      29.60266823        0      -0.00444051      -0.00497903      -0.00545215
H        6.40817724       5.08898578      28.90298069        0      -0.00036652      -0.02090511      -0.02315005
