31
Lattice="8.421641763931781 0.0 0.0 4.2108208819658905 7.293355709136913 0.0 0.0 0.0 44.584161137365626" Properties=species:S:1:pos:R:3:tags:I:1:forces:R:3 energy=-172.80471801757812 free_energy=-172.80471801757812 stress="0.010281156748533249 -1.4014478466606306e-08 1.50891672490161e-08 -1.4014478466606306e-08 0.010281155817210674 8.529487116604173e-10 1.50891672490161e-08 8.529487116604173e-10 -4.826663644053042e-05" pbc="T T T"
Pt       1.40360696       0.81037286      20.00000000        3       0.00149634       0.00066811      -0.01032102
Pt       4.21082088       0.81037286      20.00000000        3      -0.00132700       0.00095781      -0.01032087
Pt       7.01803480       0.81037286      20.00000000        3      -0.00020922       0.00324211      -0.00452143
Pt       2.80721392       3.24149143      20.00000000        3      -0.00016522      -0.00163115      -0.01032233
Pt       5.61442784       3.24149143      20.00000000        3       0.00040390       0.00063033       0.01849160
Pt       8.42164176       3.24149143      20.00000000        3      -0.00074780       0.00003685       0.01849151
Pt       4.21082088       5.67261000      20.00000000        3       0.00291560      -0.00144194      -0.00452107
Pt       7.01803480       5.67261000      20.00000000        3       0.00034113      -0.00066412       0.01849246
Pt       9.82524872       5.67261000      20.00000000        3      -0.00270822      -0.00179892      -0.00452176
Pt      -0.00000000       1.62074571      22.29208057        2      -0.12139623       0.09940684      -0.00064580
Pt       2.80721392       1.62074571      22.29208057        2       0.00000055      -0.00000112      -0.11639433
Pt       5.61442784       1.62074571      22.29208057        2       0.11676548       0.09309904       0.00273054
Pt       1.40360696       4.05186428      22.29208057        2      -0.13901094       0.05457269       0.00273249
Pt       4.21082088       4.05186428      22.29208057        2       0.14678967       0.05542731      -0.00064917
Pt       7.01803480       4.05186428      22.29208057        2      -0.00000151      -0.00000091       0.08543589
Pt       2.80721392       6.48298285      22.29208057        2       0.00000053       0.00000166      -0.07498226
Pt       5.61442784       6.48298285      22.29208057        2       0.02224276      -0.14767040       0.00272852
Pt       8.42164176       6.48298285      22.29208057        2      -0.02539084      -0.15483454      -0.00064758
Pt      -0.00300992       0.00562075      24.55891398        1      -0.00084600      -0.02667783       0.02328263
Pt       2.80730353       0.00953809      24.56699233        1      -0.00311622       0.00675776       0.01103461
Pt       5.61106473      -0.00541773      24.55891445        1       0.02352689       0.01260834       0.02328353
Pt       1.41182230       2.42627203      24.56699207        1       0.00741290      -0.00068022       0.01103473
Pt       4.20251620       2.42642697      24.56699202        1      -0.00429706      -0.00607907       0.01103339
Pt       7.01123520       2.41008165      24.61570116        1       0.02000867       0.00549120       0.00408149
Pt       2.81358689       4.86203341      24.55891369        1      -0.02268362       0.01407100       0.02328439
Pt       5.59960894       4.87864331      24.61570058        1      -0.00524481      -0.02007185       0.00409419
Pt       8.44325920       4.86686722      24.61570147        1      -0.01476038       0.01457988       0.00408547
N        7.01803570       4.05186393      26.95925697        0      -0.00010782      -0.00001798       0.01802295
H        6.16557269       4.46867705      26.53936401        0      -0.00421605       0.01343160      -0.01480798
H        7.80523643       4.58171087      26.53936770        0       0.01382625      -0.00299466      -0.01486034
H        7.08329521       3.10520445      26.53936429        0      -0.00950181      -0.01041779      -0.01482486
