31
Lattice="8.421641763931781 0.0 0.0 4.2108208819658905 7.293355709136913 0.0 0.0 0.0 44.584161137365626" Properties=species:S:1:pos:R:3:tags:I:1:forces:R:3 energy=-172.8055419921875 free_energy=-172.8055419921875 stress="0.010267114266753197 1.705742036506308e-08 -7.084163478054961e-09 1.705742036506308e-08 0.01021914929151535 -0.00011346251994837075 -7.084163478054961e-09 -0.00011346251994837075 -5.917854650761001e-05" pbc="T T T"
Pt       1.40360696       0.81037286      20.00000000        3       0.00202983       0.00306363      -0.00474828
Pt       4.21082088       0.81037286      20.00000000        3      -0.00202748       0.00306539      -0.00474817
Pt       7.01803480       0.81037286      20.00000000        3      -0.00000247       0.00165045      -0.01466042
Pt       2.80721392       3.24149143      20.00000000        3       0.00000113       0.00059629      -0.00791016
Pt       5.61442784       3.24149143      20.00000000        3      -0.00193236       0.00454740       0.00620419
Pt       8.42164176       3.24149143      20.00000000        3       0.00193173       0.00454770       0.00620282
Pt       4.21082088       5.67261000      20.00000000        3       0.00229851      -0.00216551       0.00427243
Pt       7.01803480       5.67261000      20.00000000        3      -0.00000219      -0.00018130       0.03382990
Pt       9.82524872       5.67261000      20.00000000        3      -0.00229721      -0.00216390       0.00427085
Pt      -0.00000000       1.62074571      22.29208057        2       0.01726674       0.00747512      -0.08239395
Pt       2.80721392       1.62074571      22.29208057        2       0.00000155      -0.11673959      -0.04283762
Pt       5.61442784       1.62074571      22.29208057        2      -0.01726808       0.00747931      -0.08239964
Pt       1.40360696       4.05186428      22.29208057        2      -0.16514732       0.07757206       0.05781882
Pt       4.21082088       4.05186428      22.29208057        2       0.16515227       0.07757293       0.05781107
Pt       7.01803480       4.05186428      22.29208057        2      -0.00000445       0.10183731       0.06140930
Pt       2.80721392       6.48298285      22.29208057        2       0.00000475      -0.06785162      -0.07098195
Pt       5.61442784       6.48298285      22.29208057        2       0.08123059      -0.12512635       0.02001980
Pt       8.42164176       6.48298285      22.29208057        2      -0.08123469      -0.12512472       0.02001837
Pt      -0.00349619      -0.03012179      24.56748942        1      -0.01285714       0.01348725       0.00481407
Pt       2.80721285       0.00720687      24.59225268        1       0.00000788       0.01144218       0.01752007
Pt       5.61792492      -0.03012104      24.56748667        1       0.01285033       0.01348189       0.00483513
Pt       1.40272533       2.40139416      24.56335324        1       0.02536145       0.02808213       0.01107374
Pt       4.21170310       2.40139645      24.56335179        1      -0.02536831       0.02806093       0.01107231
Pt       7.01803418       2.37698622      24.57053595        1       0.00000706       0.04154503      -0.01219986
Pt       2.80721594       4.82862267      24.56492894        1      -0.00001721       0.01906358      -0.01173584
Pt       5.59299742       4.81991328      24.62335534        1      -0.01329111      -0.00108351      -0.02257822
Pt       8.44307000       4.81991424      24.62335436        1       0.01330771      -0.00109247      -0.02257378
N        7.01803306       5.40412283      26.90603466        0       0.00003647       0.01409585       0.04632112
H        7.84002704       4.88531282      26.54188194        0       0.01503012      -0.00830969      -0.00789236
H        6.19604193       4.88530711      26.54188148        0      -0.01501898      -0.00825179      -0.00791474
H        7.01803903       6.30144399      26.37849622        0      -0.00004904      -0.00057594       0.02808093
