31
Lattice="8.421641763931781 0.0 0.0 4.2108208819658905 7.293355709136913 0.0 0.0 0.0 44.584161137365626" Properties=species:S:1:pos:R:3:tags:I:1:forces:R:3 energy=-173.71585083007812 free_energy=-173.71585083007812 stress="0.010695378296077251 -8.43562197871961e-09 -1.4078415766505259e-08 -8.43562197871961e-09 0.010695433244109154 7.248023958794647e-09 -1.4078415766505259e-08 7.248023958794647e-09 5.3988438594387844e-05" pbc="T T T"
Pt       1.40360696       0.81037286      20.00000000        3       0.00578210       0.00267943      -0.00904906
Pt       4.21082088       0.81037286      20.00000000        3      -0.00040975       0.00292644      -0.00573346
Pt       7.01803480       0.81037286      20.00000000        3      -0.00521601       0.00366286      -0.00904986
Pt       2.80721392       3.24149143      20.00000000        3       0.00274278      -0.00110839      -0.00573590
Pt       5.61442784       3.24149143      20.00000000        3      -0.00233218      -0.00182048      -0.00573495
Pt       8.42164176       3.24149143      20.00000000        3       0.00044933       0.00437540       0.01246923
Pt       4.21082088       5.67261000      20.00000000        3      -0.00056470      -0.00634599      -0.00904930
Pt       7.01803480       5.67261000      20.00000000        3       0.00356202      -0.00257271       0.01247001
Pt       9.82524872       5.67261000      20.00000000        3      -0.00401358      -0.00179595       0.01247036
Pt      -0.00000000       1.62074571      22.29208057        2      -0.00116844       0.06463782       0.03390374
Pt       2.80721392       1.62074571      22.29208057        2      -0.00210142      -0.01191757       0.00323855
Pt       5.61442784       1.62074571      22.29208057        2       0.01136995       0.00413648       0.00324030
Pt       1.40360696       4.05186428      22.29208057        2      -0.06639484       0.03545088      -0.02262609
Pt       4.21082088       4.05186428      22.29208057        2      -0.00926591       0.00777835       0.00323946
Pt       7.01803480       4.05186428      22.29208057        2       0.06389638       0.03977291      -0.02262421
Pt       2.80721392       6.48298285      22.29208057        2      -0.05539503      -0.03332929       0.03390278
Pt       5.61442784       6.48298285      22.29208057        2       0.05656189      -0.03130700       0.03390156
Pt       8.42164176       6.48298285      22.29208057        2       0.00249710      -0.07522317      -0.02262773
Pt       0.00000024      -0.00000022      24.58918317        1      -0.00000105      -0.00000077      -0.00003943
Pt       2.80932691      -0.00204105      24.60569964        1       0.00002371       0.00689915       0.00132827
Pt       5.62556415       0.01952823      24.60028256        1      -0.01657667      -0.02170520      -0.01355438
Pt       1.41495100       2.41170975      24.60028298        1      -0.01050833       0.02520934      -0.01355302
Pt       4.21082089       2.43111842      24.58864097        1       0.00000199      -0.00000019       0.00205049
Pt       7.01874573       2.43396858      24.60570054        1      -0.00598896      -0.00342903       0.00132145
Pt       2.80439002       4.86142755      24.60570039        1       0.00596329      -0.00347032       0.00132929
Pt       5.59194738       4.86211742      24.60028262        1       0.02708594      -0.00350415      -0.01355371
Pt       8.42164131       4.86223693      24.65962436        1       0.00000362       0.00000073       0.02950677
N        8.42164331       4.86223676      26.72769467        0      -0.00014770       0.00005317       0.01210272
H        7.93539390       5.70202061      27.05203682        0      -0.01176214       0.01793024      -0.01453904
H        9.39203733       4.86344890      27.05203646        0       0.02157511       0.00122228      -0.01448561
H        7.93749233       4.02124357      27.05203682        0      -0.00966865      -0.01920541      -0.01451936
