31
Lattice="8.421641763931781 0.0 0.0 4.2108208819658905 7.293355709136913 0.0 0.0 0.0 44.584161137365626" Properties=species:S:1:pos:R:3:tags:I:1:forces:R:3 energy=-172.64569091796875 free_energy=-172.64569091796875 stress="0.010564315132796764 -3.6615252496652317e-10 7.131032209173327e-09 -3.6615252496652317e-10 0.010564322583377361 6.999076873626109e-10 7.131032209173327e-09 6.999076873626109e-10 0.00012951460666954517" pbc="T T T"
Pt       1.40360696       0.81037286      20.00000000        3       0.00160783       0.00092512       0.00035766
Pt       4.21082088       0.81037286      20.00000000        3      -0.00160530       0.00092658       0.00035730
Pt       7.01803480       0.81037286      20.00000000        3      -0.00000245       0.00392914       0.00387087
Pt       2.80721392       3.24149143      20.00000000        3       0.00000078      -0.00185612       0.00035542
Pt       5.61442784       3.24149143      20.00000000        3       0.00078618       0.00045493       0.03163409
Pt       8.42164176       3.24149143      20.00000000        3      -0.00078698       0.00045509       0.03163213
Pt       4.21082088       5.67261000      20.00000000        3       0.00340740      -0.00196421       0.00387096
Pt       7.01803480       5.67261000      20.00000000        3      -0.00000176      -0.00090730       0.03163329
Pt       9.82524872       5.67261000      20.00000000        3      -0.00340621      -0.00196309       0.00387058
Pt      -0.00000000       1.62074571      22.29208057        2      -0.08638555       0.08268756       0.00364261
Pt       2.80721392       1.62074571      22.29208057        2       0.00000104      -0.00000152      -0.05205313
Pt       5.61442784       1.62074571      22.29208057        2       0.08638505       0.08268858       0.00364258
Pt       1.40360696       4.05186428      22.29208057        2      -0.11480427       0.03346836       0.00364313
Pt       4.21082088       4.05186428      22.29208057        2       0.11480717       0.03346931       0.00364458
Pt       7.01803480       4.05186428      22.29208057        2      -0.00000311       0.00000013       0.03507162
Pt       2.80721392       6.48298285      22.29208057        2       0.00000189       0.00000128      -0.05437890
Pt       5.61442784       6.48298285      22.29208057        2       0.02841516      -0.11615750       0.00364335
Pt       8.42164176       6.48298285      22.29208057        2      -0.02841733      -0.11615580       0.00364283
Pt      -0.00256092      -0.00147839      24.56614445        1       0.00538676       0.00310271      -0.00713739
Pt       2.80721419       0.00400324      24.58142023        1      -0.00000063       0.01598291      -0.00494811
Pt       5.61698900      -0.00147886      24.56614463        1      -0.00538734       0.00310769      -0.00713697
Pt       1.40707374       2.42911645      24.58142003        1       0.01384437      -0.00799084      -0.00494806
Pt       4.20735374       2.42911655      24.58142052        1      -0.01384077      -0.00798887      -0.00494829
Pt       7.01803469       2.40793799      24.63180147        1      -0.00000215       0.01428982      -0.00863561
Pt       2.80721336       4.86519435      24.56614457        1       0.00000544      -0.00621681      -0.00713521
Pt       5.59435377       4.87382719      24.63180148        1       0.01236816      -0.00714271      -0.00863850
Pt       8.44171608       4.87382705      24.63180109        1      -0.01237562      -0.00714430      -0.00863296
N        7.01803592       4.05186371      26.88132161        0      -0.00004696       0.00000277       0.03624226
H        6.22252011       3.59257433      26.36859769        0      -0.00271210      -0.00158040      -0.01070458
H        7.01803366       4.97044553      26.36859799        0       0.00001889       0.00315298      -0.01072097
H        7.81355043       3.59257266      26.36859872        0       0.00274241      -0.00157557      -0.01073700
