31
Lattice="8.421641763931781 0.0 0.0 4.2108208819658905 7.293355709136913 0.0 0.0 0.0 44.584161137365626" Properties=species:S:1:pos:R:3:tags:I:1:forces:R:3 energy=-172.5789794921875 free_energy=-172.5789794921875 stress="0.010473107919096947 2.4660014030786215e-09 -1.004493377365634e-08 2.4660014030786215e-09 0.010473087430000305 6.045461020676157e-09 -1.004493377365634e-08 6.045461020676157e-09 -0.00020022982789669186" pbc="T T T"
Pt       1.40360696       0.81037286      20.00000000        3       0.00000054      -0.00000295      -0.00540212
Pt       4.21082088       0.81037286      20.00000000        3      -0.00079442       0.00067963      -0.00219902
Pt       7.01803480       0.81037286      20.00000000        3       0.00074416       0.00084654      -0.00204563
Pt       2.80721392       3.24149143      20.00000000        3       0.00036346      -0.00107140      -0.00204551
Pt       5.61442784       3.24149143      20.00000000        3      -0.00000245      -0.00000028       0.00783727
Pt       8.42164176       3.24149143      20.00000000        3      -0.00019031      -0.00102960      -0.00220168
Pt       4.21082088       5.67261000      20.00000000        3       0.00099002       0.00035049      -0.00219956
Pt       7.01803480       5.67261000      20.00000000        3      -0.00111025       0.00022496      -0.00204539
Pt       9.82524872       5.67261000      20.00000000        3      -0.00000098       0.00000245      -0.00681758
Pt      -0.00000000       1.62074571      22.29208057        2      -0.03218998       0.01882749      -0.02422085
Pt       2.80721392       1.62074571      22.29208057        2       0.03240379       0.01846315      -0.02422199
Pt       5.61442784       1.62074571      22.29208057        2       0.00152466       0.04198271       0.02925786
Pt       1.40360696       4.05186428      22.29208057        2       0.00078608      -0.01329002      -0.03097422
Pt       4.21082088       4.05186428      22.29208057        2       0.03559504      -0.02231391       0.02926070
Pt       7.01803480       4.05186428      22.29208057        2      -0.03712390      -0.01966804       0.02926144
Pt       2.80721392       6.48298285      22.29208057        2       0.01111981       0.00732475      -0.03097720
Pt       5.61442784       6.48298285      22.29208057        2      -0.00021326      -0.03729278      -0.02422225
Pt       8.42164176       6.48298285      22.29208057        2      -0.01190205       0.00596784      -0.03097723
Pt       0.00125023       0.00150237      24.57723225        1      -0.00713236      -0.00009500      -0.00424275
Pt       2.80528753       0.00033110      24.57723227        1       0.00364989      -0.00612930      -0.00424218
Pt       5.61499730      -0.00636818      24.57875342        1       0.00299028       0.01932036      -0.00732219
Pt       1.40428340       2.42928467      24.57723237        1       0.00348309       0.00622443      -0.00424126
Pt       4.19857754       2.42122459      24.58945428        1       0.02483358       0.00794758       0.00628369
Pt       7.03272476       2.42546250      24.58945427        1      -0.01929859       0.01753138       0.00628456
Pt       2.80141429       4.86492802      24.57875354        1       0.01523662      -0.01225180      -0.00733271
Pt       5.61198092       4.87778734      24.58945428        1      -0.00553348      -0.02547918       0.00628409
Pt       8.42687199       4.86591446      24.57875363        1      -0.01822908      -0.00706969      -0.00733116
N        5.61442715       3.24149171      27.59559758        0       0.00007355      -0.00003067       0.00372311
H        6.55914021       3.23643175      27.19906521        0      -0.02440573      -0.02474547       0.03570977
H        5.13769033       2.42587681      27.19906539        0      -0.00926018       0.03346746       0.03568712
H        5.14645387       4.06216549      27.19906546        0       0.03359234      -0.00869128       0.03567254
