32
Lattice="8.421641763931781 0.0 0.0 4.2108208819658905 7.293355709136913 0.0 0.0 0.0 44.584161137365626" Properties=species:S:1:pos:R:3:tags:I:1:forces:R:3 charge=0 spin=0 energy=-161.48356208318205 free_energy=-161.48356208318205 stress="0.01227269321680069 -4.331079708208563e-06 9.649552339396905e-07 -4.331079708208563e-06 0.012287537567317486 -2.5066362923098495e-06 9.649552339396905e-07 -2.5066362923098495e-06 -0.00018673863087315112" pbc="T T T"
Pt       1.40360727       0.81037244      19.95766877        3       0.00002630       0.00040803      -0.02389330
Pt       4.21082123       0.81037256      19.95766888        3      -0.00045876       0.00032513      -0.02345861
Pt       7.01803445       0.81037243      19.95766851        3      -0.00048193       0.00272187      -0.02439826
Pt       2.80721413       3.24149135      19.95766844        3       0.00000311       0.00249877      -0.02239822
Pt       5.61442751       3.24149134      19.95766853        3       0.00136635       0.00290778      -0.02479497
Pt       8.42164211       3.24149148      19.95766852        3      -0.00195001       0.00308114      -0.02406734
Pt       4.21082074       5.67261030      19.95766878        3       0.00111861       0.00074509      -0.02431206
Pt       7.01803477       5.67261047      19.95766871        3      -0.00034193       0.00054187      -0.02384879
Pt       9.82524854       5.67261039      19.95766860        3      -0.00173842       0.00131076      -0.02426405
Pt       0.00000046       1.62074540      22.29208304        2       0.00217012      -0.00638202       0.02449633
Pt       2.80721419       1.62074531      22.29208311        2       0.00013903      -0.00146055       0.02563298
Pt       5.61442748       1.62074566      22.29208290        2       0.00180619      -0.00414087       0.02265011
Pt       1.40360675       4.05186459      22.29208313        2       0.00532725      -0.00495991       0.02314110
Pt       4.21082083       4.05186449      22.29208278        2      -0.00621205      -0.00371308       0.02316041
Pt       7.01803481       4.05186460      22.29208288        2       0.00091062      -0.00591496       0.02062282
Pt       2.80721463       6.48298242      22.29208276        2       0.00087316      -0.00435416       0.02829292
Pt       5.61442775       6.48298327      22.29208278        2      -0.00121028      -0.00077543       0.02108975
Pt       8.42164096       6.48298261      22.29208273        2       0.00230200       0.00031420       0.01972378
Pt       0.00185714      -0.00563743      24.63175317        1      -0.00594664       0.00280963       0.00308973
Pt       2.80810213      -0.00521259      24.63172589        1      -0.00042312       0.00349816      -0.00072973
Pt       5.61488202      -0.00528078      24.63157913        1       0.00383080       0.00143785       0.00441663
Pt       1.40382540       2.42633183      24.63159817        1       0.00499722       0.00074123       0.00241363
Pt       4.21255331       2.42600432      24.63129486        1      -0.00485860       0.00115008       0.00388725
Pt       7.01915422       2.42571036      24.63187026        1      -0.00043183       0.00167126      -0.00101603
Pt       2.80823968       4.85684401      24.63369781        1       0.00016533       0.00294028      -0.00314416
Pt       5.61455489       4.85704710      24.63065624        1       0.00383071       0.00131671      -0.00206899
Pt       8.42364634       4.85713629      24.63066168        1      -0.00478723       0.00129631      -0.00186106
C        7.02001431       4.86016275      29.34018445        0       0.00005384      -0.00010703       0.02328526
H        6.44506062       5.55297740      29.97451569        0       0.00939275      -0.01038920      -0.01116922
H        7.58761305       4.16443596      29.97794952        0      -0.00921981       0.01055353      -0.01125223
H        7.71713960       5.43266735      28.71002580        0       0.00392378       0.00165769       0.00047354
H        6.33025994       4.29053666      28.69941805        0      -0.00417658      -0.00173014       0.00030083
