31
Lattice="8.421641763931781 0.0 0.0 4.2108208819658905 7.293355709136913 0.0 0.0 0.0 44.584161137365626" Properties=species:S:1:pos:R:3:tags:I:1:forces:R:3 energy=-173.7161865234375 free_energy=-173.7161865234375 stress="0.010666691698133945 -1.5431979250024597e-08 -4.905475581296059e-09 -1.5431979250024597e-08 0.010666696354746819 -1.5490474680746047e-08 -4.905475581296059e-09 -1.5490474680746047e-08 -1.8293451375939185e-06" pbc="T T T"
Pt       1.40360696       0.81037286      20.00000000        3       0.00502252       0.00367277      -0.00957438
Pt       4.21082088       0.81037286      20.00000000        3       0.00066989       0.00312299      -0.00628421
Pt       7.01803480       0.81037286      20.00000000        3      -0.00569649       0.00250909      -0.00957412
Pt       2.80721392       3.24149143      20.00000000        3       0.00237310      -0.00214141      -0.00628579
Pt       5.61442784       3.24149143      20.00000000        3      -0.00304198      -0.00098381      -0.00628597
Pt       8.42164176       3.24149143      20.00000000        3       0.00054080       0.00469330       0.01201937
Pt       4.21082088       5.67261000      20.00000000        3       0.00067465      -0.00618478      -0.00957483
Pt       7.01803480       5.67261000      20.00000000        3       0.00379229      -0.00281129       0.01202035
Pt       9.82524872       5.67261000      20.00000000        3      -0.00433492      -0.00187665       0.01202032
Pt      -0.00000000       1.62074571      22.29208057        2       0.00612083       0.06274426       0.02846893
Pt       2.80721392       1.62074571      22.29208057        2      -0.00941593       0.00433228      -0.00398378
Pt       5.61442784       1.62074571      22.29208057        2       0.00095424      -0.01032479      -0.00398519
Pt       1.40360696       4.05186428      22.29208057        2      -0.07003772       0.03508770      -0.02902861
Pt       4.21082088       4.05186428      22.29208057        2       0.00846362       0.00598927      -0.00398377
Pt       7.01803480       4.05186428      22.29208057        2       0.06540298       0.04311236      -0.02903121
Pt       2.80721392       6.48298285      22.29208057        2      -0.05739788      -0.02607404       0.02846934
Pt       5.61442784       6.48298285      22.29208057        2       0.05128096      -0.03667026       0.02846926
Pt       8.42164176       6.48298285      22.29208057        2       0.00463514      -0.07819594      -0.02903089
Pt       0.00000190       0.00000024      24.58874904        1       0.00000073      -0.00000355      -0.00018814
Pt       2.80256915       0.01090828      24.59462618        1      -0.00540059       0.00065745       0.01185410
Pt       5.61710028       0.00668639      24.60592492        1      -0.00698484      -0.01684405      -0.00246555
Pt       1.40806403       2.42546217      24.60592508        1      -0.01109333       0.01446826      -0.00246646
Pt       4.21082305       2.43111878      24.58900192        1      -0.00000559       0.00000089      -0.00093976
Pt       7.01091289       2.42163940      24.59462630        1       0.00212566      -0.00500132       0.01185547
Pt       2.81898442       4.86080785      24.59462611        1       0.00326744       0.00434110       0.01185375
Pt       5.60730203       4.86120718      24.60592522        1       0.01807358       0.00237554      -0.00246452
Pt       8.42164031       4.86223604      24.65974754        1      -0.00000005       0.00000245       0.03699517
N        8.42163636       4.86223789      26.72996652        0      -0.00000185      -0.00012460      -0.04319632
H        8.90516665       4.01818127      27.04813378        0      -0.00427154       0.00508609       0.00141992
H        7.44890042       4.86551642      27.04813973        0       0.00649309       0.00117669       0.00142274
H        8.91084815       5.70301214      27.04812812        0      -0.00220881      -0.00613604       0.00147475
