31
Lattice="8.421641763931781 0.0 0.0 4.2108208819658905 7.293355709136913 0.0 0.0 0.0 44.584161137365626" Properties=species:S:1:pos:R:3:tags:I:1:forces:R:3 energy=-172.8055419921875 free_energy=-172.8055419921875 stress="0.010267108678817749 -2.502661189396349e-09 -3.498858314188169e-09 -2.502661189396349e-09 0.01021912507712841 -0.00011344326048856601 -3.498858314188169e-09 -0.00011344326048856601 -5.919860996073112e-05" pbc="T T T"
Pt       1.40360696       0.81037286      20.00000000        3       0.00203013       0.00306401      -0.00474784
Pt       4.21082088       0.81037286      20.00000000        3      -0.00202841       0.00306581      -0.00474775
Pt       7.01803480       0.81037286      20.00000000        3      -0.00000197       0.00165099      -0.01465991
Pt       2.80721392       3.24149143      20.00000000        3       0.00000150       0.00059632      -0.00791082
Pt       5.61442784       3.24149143      20.00000000        3      -0.00193315       0.00454777       0.00620458
Pt       8.42164176       3.24149143      20.00000000        3       0.00193236       0.00454754       0.00620171
Pt       4.21082088       5.67261000      20.00000000        3       0.00229861      -0.00216503       0.00427300
Pt       7.01803480       5.67261000      20.00000000        3      -0.00000238      -0.00018113       0.03382957
Pt       9.82524872       5.67261000      20.00000000        3      -0.00229732      -0.00216412       0.00427046
Pt      -0.00000000       1.62074571      22.29208057        2       0.01726700       0.00746779      -0.08239451
Pt       2.80721392       1.62074571      22.29208057        2       0.00000183      -0.11674081      -0.04284312
Pt       5.61442784       1.62074571      22.29208057        2      -0.01726823       0.00747577      -0.08239672
Pt       1.40360696       4.05186428      22.29208057        2      -0.16515201       0.07757506       0.05781553
Pt       4.21082088       4.05186428      22.29208057        2       0.16515818       0.07757575       0.05781873
Pt       7.01803480       4.05186428      22.29208057        2      -0.00000718       0.10184038       0.06141017
Pt       2.80721392       6.48298285      22.29208057        2       0.00000698      -0.06784566      -0.07097664
Pt       5.61442784       6.48298285      22.29208057        2       0.08122324      -0.12512659       0.02002939
Pt       8.42164176       6.48298285      22.29208057        2      -0.08122914      -0.12512536       0.02001887
Pt      -0.00349790      -0.03012105      24.56749324        1      -0.01283998       0.01348208       0.00479335
Pt       2.80721581       0.00720686      24.59225159        1      -0.00001240       0.01144796       0.01752264
Pt       5.61792532      -0.03012114      24.56748963        1       0.01284967       0.01348553       0.00481610
Pt       1.40272589       2.40139518      24.56335091        1       0.02535567       0.02807510       0.01108360
Pt       4.21170178       2.40139552      24.56335214        1      -0.02535366       0.02807787       0.01107073
Pt       7.01803488       2.37698700      24.57053323        1      -0.00000133       0.04154471      -0.01218778
Pt       2.80721394       4.82862372      24.56492699        1       0.00000087       0.01905929      -0.01172484
Pt       5.59299907       4.81991442      24.62335711        1      -0.01331685      -0.00109124      -0.02260458
Pt       8.44306927       4.81991433      24.62335658        1       0.01331615      -0.00109595      -0.02258703
N        7.01803423       5.40412658      26.90602964        0       0.00001579       0.01403251       0.04641294
H        6.19604221       4.88531287      26.54188044        0      -0.01504384      -0.00829366      -0.00790992
H        7.01803543       6.30144656      26.37849493        0      -0.00000314      -0.00049330       0.02803186
H        7.84002811       4.88531335      26.54188116        0       0.01503299      -0.00828914      -0.00791183
