31
Lattice="8.421641763931781 0.0 0.0 4.2108208819658905 7.293355709136913 0.0 0.0 0.0 44.584161137365626" Properties=species:S:1:pos:R:3:tags:I:1:forces:R:3 energy=-172.8042755126953 free_energy=-172.8042755126953 stress="0.010287945158779621 -2.2065116400682427e-09 -6.4399672261572505e-09 -2.2065116400682427e-09 0.010287960059940815 -3.0322531152648935e-09 -6.4399672261572505e-09 -3.0322531152648935e-09 2.580150066933129e-05" pbc="T T T"
Pt       1.40360696       0.81037286      20.00000000        3       0.00000062      -0.00000206      -0.01219091
Pt       4.21082088       0.81037286      20.00000000        3      -0.00218455       0.00302614       0.00097686
Pt       7.01803480       0.81037286      20.00000000        3       0.00197783       0.00239086       0.00095388
Pt       2.80721392       3.24149143      20.00000000        3       0.00108276      -0.00291238       0.00095239
Pt       5.61442784       3.24149143      20.00000000        3      -0.00000212      -0.00000025       0.03240672
Pt       8.42164176       3.24149143      20.00000000        3      -0.00152737      -0.00340769       0.00097543
Pt       4.21082088       5.67261000      20.00000000        3       0.00371760       0.00038155       0.00097540
Pt       7.01803480       5.67261000      20.00000000        3      -0.00306497       0.00052092       0.00095147
Pt       9.82524872       5.67261000      20.00000000        3      -0.00000087       0.00000320      -0.01432922
Pt      -0.00000000       1.62074571      22.29208057        2      -0.14878751       0.08583938       0.01205862
Pt       2.80721392       1.62074571      22.29208057        2       0.14873114       0.08593749       0.01205587
Pt       5.61442784       1.62074571      22.29208057        2      -0.00261197       0.12158676       0.04922281
Pt       1.40360696       4.05186428      22.29208057        2       0.00523472      -0.02982160      -0.07347620
Pt       4.21082088       4.05186428      22.29208057        2       0.10661237      -0.05853514       0.04921762
Pt       7.01803480       4.05186428      22.29208057        2      -0.10399976      -0.06306006       0.04922211
Pt       2.80721392       6.48298285      22.29208057        2       0.02320014       0.01944904      -0.07347801
Pt       5.61442784       6.48298285      22.29208057        2       0.00005636      -0.17177500       0.01205409
Pt       8.42164176       6.48298285      22.29208057        2      -0.02843472       0.01037863      -0.07347427
Pt       0.00377133       0.00392375      24.56071252        1      -0.01566791      -0.02144916       0.02084096
Pt       2.80193002       0.00130396      24.56071275        1       0.02641050      -0.00284937       0.02084029
Pt       5.60582002      -0.01200249      24.56954152        1       0.02004861       0.02604551      -0.00909473
Pt       1.40511991       2.42588972      24.56071569        1      -0.01074181       0.02429597       0.02081878
Pt       4.18209377       2.42267667      24.61256652        1       0.02813082       0.00079408       0.01038443
Pt       7.03970931       2.41046026      24.61256752        1      -0.01475202       0.02396465       0.01037664
Pt       2.80112357       4.87569304      24.56953687        1       0.01253118      -0.03038993      -0.00906053
Pt       5.62148090       4.89133623      24.61256698        1      -0.01337812      -0.02475663       0.01037465
Pt       8.43633916       4.86078328      24.56953870        1      -0.03258082       0.00434484      -0.00907072
N        5.61442779       3.24149120      26.94051450        0       0.00004151       0.00001759      -0.04885402
H        5.70219697       4.18769390      26.52021880        0      -0.01307187      -0.02009091       0.00246302
H        6.38997949       2.69238097      26.52021720        0      -0.01086587       0.02135432       0.00246431
H        4.75110892       2.84439980      26.52021699        0       0.02389595      -0.00128069       0.00244221
