31
Lattice="8.421641763931781 0.0 0.0 4.2108208819658905 7.293355709136913 0.0 0.0 0.0 44.584161137365626" Properties=species:S:1:pos:R:3:tags:I:1:forces:R:3 energy=-172.76148986816406 free_energy=-172.76148986816406 stress="0.010289765894412994 1.794322997739073e-05 0.0001431838027201593 1.794322997739073e-05 0.010455893352627754 2.1103066956129624e-06 0.0001431838027201593 2.1103066956129624e-06 3.076031134696677e-05" pbc="T T T"
Pt       1.40360696       0.81037286      20.00000000        3       0.00218899       0.00061510       0.00321835
Pt       4.21082088       0.81037286      20.00000000        3      -0.00350639       0.00066682       0.00238043
Pt       7.01803480       0.81037286      20.00000000        3      -0.00084085       0.00283992      -0.00485665
Pt       2.80721392       3.24149143      20.00000000        3      -0.00090104      -0.00002959      -0.00353837
Pt       5.61442784       3.24149143      20.00000000        3      -0.00228764       0.00241041       0.01940981
Pt       8.42164176       3.24149143      20.00000000        3       0.00146545       0.00183504       0.01590368
Pt       4.21082088       5.67261000      20.00000000        3       0.00199687      -0.00220196       0.00399825
Pt       7.01803480       5.67261000      20.00000000        3      -0.00195484      -0.00240312       0.03659719
Pt       9.82524872       5.67261000      20.00000000        3      -0.00348632      -0.00157479       0.00172281
Pt      -0.00000000       1.62074571      22.29208057        2       0.00069785       0.04354993      -0.04282235
Pt       2.80721392       1.62074571      22.29208057        2       0.01690341      -0.06630013      -0.05669848
Pt       5.61442784       1.62074571      22.29208057        2       0.02897014       0.06047865      -0.03392507
Pt       1.40360696       4.05186428      22.29208057        2      -0.11816427       0.05243679       0.01836723
Pt       4.21082088       4.05186428      22.29208057        2       0.18250228       0.07137505       0.06492890
Pt       7.01803480       4.05186428      22.29208057        2      -0.02831245       0.06735657       0.02687011
Pt       2.80721392       6.48298285      22.29208057        2       0.01797886      -0.01325270      -0.05894417
Pt       5.61442784       6.48298285      22.29208057        2       0.05331768      -0.12697716       0.02739123
Pt       8.42164176       6.48298285      22.29208057        2      -0.03652235      -0.09004764      -0.01967061
Pt       0.01051398       0.00627064      24.57091182        1       0.00372640      -0.00178877      -0.01211831
Pt       2.83566359      -0.01586902      24.60179861        1      -0.01504615       0.03898468       0.00962326
Pt       5.64423673       0.00975742      24.57063949        1       0.00260223       0.00682390      -0.00685868
Pt       1.43322643       2.41098365      24.57289294        1       0.02226080      -0.00303143      -0.01404518
Pt       4.21939242       2.41224950      24.57390711        1      -0.00815169       0.01363607      -0.02148612
Pt       7.04676465       2.43565423      24.60072272        1      -0.01824270      -0.01234876       0.01102147
Pt       2.81642214       4.85843522      24.55895354        1       0.00364409      -0.01374409       0.00540496
Pt       5.58278529       4.85352781      24.62803418        1      -0.01854549      -0.01474573      -0.01594467
Pt       8.47441877       4.85389439      24.61622976        1      -0.00413483      -0.01564098       0.00466299
N        7.03210412       4.87508699      26.87165496        0      -0.03200364       0.00022011       0.02701384
H        6.03533987       4.87025140      26.56866909        0      -0.00439771      -0.00256330       0.01815408
H        7.39105789       5.69696637      26.32759830        0      -0.02057988      -0.01509638       0.00018656
H        7.39854878       4.05406643      26.33079385        0      -0.02117676       0.01851757      -0.00594661
