32
Lattice="8.421641763931781 0.0 0.0 4.2108208819658905 7.293355709136913 0.0 0.0 0.0 44.584161137365626" Properties=species:S:1:pos:R:3:tags:I:1:forces:R:3 charge=0 spin=0 energy=-161.48208674901457 free_energy=-161.48208674901457 stress="0.012235217727720737 4.408412053180655e-07 6.704256520606577e-06 4.408412053180655e-07 0.012375816702842712 -1.3242133718449622e-05 6.704256520606577e-06 -1.3242133718449622e-05 -0.00017701681645121425" pbc="T T T"
Pt       1.40360727       0.81037244      19.95766877        3      -0.00107078       0.01104178      -0.02406088
Pt       4.21082123       0.81037256      19.95766888        3      -0.00117734       0.01075482      -0.02392409
Pt       7.01803445       0.81037243      19.95766851        3      -0.00117124       0.01393910      -0.02558324
Pt       2.80721413       3.24149135      19.95766844        3      -0.00099805       0.01394607      -0.02170528
Pt       5.61442751       3.24149134      19.95766853        3       0.00119811       0.01395936      -0.02555665
Pt       8.42164211       3.24149148      19.95766852        3      -0.00311453       0.01428464      -0.02516738
Pt       4.21082074       5.67261030      19.95766878        3       0.00024749       0.01203138      -0.02455231
Pt       7.01803477       5.67261047      19.95766871        3      -0.00117770       0.01153675      -0.02448785
Pt       9.82524854       5.67261039      19.95766860        3      -0.00233268       0.01252719      -0.02490197
Pt       0.00000046       1.62074540      22.29208304        2       0.00538413      -0.02868394       0.02831728
Pt       2.80721419       1.62074531      22.29208311        2       0.00262298      -0.02298453       0.02840995
Pt       5.61442748       1.62074566      22.29208290        2       0.00283431      -0.02643216       0.02731621
Pt       1.40360675       4.05186459      22.29208313        2       0.01192090      -0.02960097       0.02475284
Pt       4.21082083       4.05186449      22.29208278        2      -0.00796988      -0.02827517       0.02481161
Pt       7.01803481       4.05186460      22.29208288        2       0.00319406      -0.03091958       0.01957481
Pt       2.80721463       6.48298242      22.29208276        2       0.00325544      -0.02936569       0.03093051
Pt       5.61442775       6.48298327      22.29208278        2       0.00136001      -0.02209792       0.02089290
Pt       8.42164096       6.48298261      22.29208273        2       0.00420918      -0.02013823       0.02007511
Pt       0.00494736      -0.04229610      24.63276628        1      -0.00512269       0.01833642       0.00201159
Pt       2.81136345      -0.04065584      24.63248540        1       0.00016236       0.01039526      -0.00290881
Pt       5.61910641      -0.04190421      24.63226894        1      -0.00101585       0.01698935       0.00416464
Pt       1.40757324       2.38987511      24.63358674        1       0.00119031       0.01177286      -0.00267330
Pt       4.21573036       2.38966503      24.63304961        1      -0.00318276       0.01175526      -0.00049003
Pt       7.02300035       2.38945777      24.63293466        1      -0.00340843       0.01385252      -0.00443903
Pt       2.81177051       4.82005791      24.63691666        1      -0.00110980       0.01553275      -0.01325255
Pt       5.61698155       4.82040388      24.62952389        1       0.01020713       0.01400144       0.00498722
Pt       8.42847794       4.82125299      24.62936369        1      -0.01490252       0.01190974       0.00560842
C        7.02378524       4.87091280      29.35490473        0      -0.00008455       0.00064877       0.02312169
H        6.83754814       5.75234267      29.98927745        0       0.00906256      -0.03250023      -0.01439535
H        7.20556935       3.98969411      29.99090770        0      -0.00932365       0.03310752      -0.01614023
H        7.90487195       5.05432614      28.72164389        0       0.00754343       0.00236571       0.00443659
H        6.14718965       4.68748388      28.71544046        0      -0.00722980      -0.00369019       0.00482782
