32
Lattice="8.421641763931781 0.0 0.0 4.2108208819658905 7.293355709136913 0.0 0.0 0.0 44.584161137365626" Properties=species:S:1:pos:R:3:tags:I:1:forces:R:3 charge=0 spin=0 energy=-161.48265704625578 free_energy=-161.48265704625578 stress="0.012258612550795078 -8.254400199803058e-06 -1.5197959157831065e-07 -8.254400199803058e-06 0.012225273996591568 1.2267608326510526e-05 -1.5197959157831065e-07 1.2267608326510526e-05 -0.00024258902703877538" pbc="T T T"
Pt       1.40360727       0.81037244      19.95766877        3       0.00293343      -0.00620487      -0.02338929
Pt       4.21082123       0.81037256      19.95766888        3       0.00440285      -0.00499793      -0.02389754
Pt       7.01803445       0.81037243      19.95766851        3       0.00320171      -0.00519452      -0.02447438
Pt       2.80721413       3.24149135      19.95766844        3       0.00482817      -0.00734864      -0.02392105
Pt       5.61442751       3.24149134      19.95766853        3       0.00358854      -0.00715545      -0.02349748
Pt       8.42164211       3.24149148      19.95766852        3       0.00232451      -0.00741841      -0.02448706
Pt       4.21082074       5.67261030      19.95766878        3       0.00433456      -0.00799185      -0.02372862
Pt       7.01803477       5.67261047      19.95766871        3       0.00259908      -0.00846887      -0.02346230
Pt       9.82524854       5.67261039      19.95766860        3       0.00365271      -0.00694222      -0.02338636
Pt       0.00000046       1.62074540      22.29208304        2      -0.00574921       0.01260535       0.00895050
Pt       2.80721419       1.62074531      22.29208311        2      -0.00828184       0.01504484       0.01246656
Pt       5.61442748       1.62074566      22.29208290        2      -0.00934370       0.01150439       0.01118980
Pt       1.40360675       4.05186459      22.29208313        2      -0.00800991       0.01933994       0.01697321
Pt       4.21082083       4.05186449      22.29208278        2      -0.00926915       0.01671663       0.01729419
Pt       7.01803481       4.05186460      22.29208288        2      -0.00657847       0.02008022       0.01337399
Pt       2.80721463       6.48298242      22.29208276        2      -0.00972675       0.01137403       0.01671212
Pt       5.61442775       6.48298327      22.29208278        2      -0.00639337       0.01362392       0.01565369
Pt       8.42164096       6.48298261      22.29208273        2      -0.00552780       0.01383665       0.01678325
Pt      -0.01271263       0.02187280      24.62861653        1       0.00519699      -0.01121666       0.01740642
Pt       2.79512424       0.02177596      24.62866724        1       0.00348706      -0.00946882       0.01536054
Pt       5.60194892       0.02294063      24.63057859        1       0.00476729      -0.01832691       0.00670596
Pt       1.39136071       2.45317371      24.62861930        1       0.00637374      -0.00625121       0.01917039
Pt       4.19887440       2.45261367      24.63056610        1       0.00033121      -0.00519791       0.00366555
Pt       7.00588844       2.45282508      24.62859252        1       0.00450473      -0.00620798       0.01097690
Pt       2.79551366       4.88400242      24.63115216        1      -0.00099103      -0.00581617       0.00323201
Pt       5.60231131       4.88364893      24.63192753        1       0.00184231      -0.00417447      -0.00135727
Pt       8.40849746       4.88366786      24.63095470        1       0.01207517      -0.00369492       0.00392673
C        5.66929573       3.14936968      29.46944533        0       0.00108134      -0.00263782       0.03756213
H        5.39395841       2.30526289      30.12256507        0       0.00265913       0.03557663      -0.03450501
H        5.84645390       4.04637736      30.08471070        0      -0.01417958      -0.02985654      -0.02894007
H        4.85599315       3.34477567      28.75427053        0      -0.02217103       0.00407260       0.02538260
H        6.58490992       2.89987068      28.91329550        0       0.03203723      -0.00920324       0.00625982
