31
Lattice="8.421641763931781 0.0 0.0 4.2108208819658905 7.293355709136913 0.0 0.0 0.0 44.584161137365626" Properties=species:S:1:pos:R:3:tags:I:1:forces:R:3 energy=-172.5946807861328 free_energy=-172.5946807861328 stress="0.010531822219491005 4.958878307981252e-10 -4.516411133970166e-10 4.958878307981252e-10 0.01053188368678093 -1.7172565591749844e-08 -4.516411133970166e-10 -1.7172565591749844e-08 -0.00010160938836634159" pbc="T T T"
Pt       1.40360696       0.81037286      20.00000000        3       0.00046595       0.00026527      -0.00698963
Pt       4.21082088       0.81037286      20.00000000        3      -0.00046315       0.00026652      -0.00698921
Pt       7.01803480       0.81037286      20.00000000        3      -0.00000246       0.00081071      -0.00487512
Pt       2.80721392       3.24149143      20.00000000        3       0.00000130      -0.00053714      -0.00699091
Pt       5.61442784       3.24149143      20.00000000        3       0.00043348       0.00025144      -0.00006604
Pt       8.42164176       3.24149143      20.00000000        3      -0.00043418       0.00025180      -0.00006682
Pt       4.21082088       5.67261000      20.00000000        3       0.00070568      -0.00040486      -0.00487483
Pt       7.01803480       5.67261000      20.00000000        3      -0.00000190      -0.00050019      -0.00006613
Pt       9.82524872       5.67261000      20.00000000        3      -0.00070521      -0.00040388      -0.00487521
Pt      -0.00000000       1.62074571      22.29208057        2      -0.02140770       0.02138527      -0.00027273
Pt       2.80721392       1.62074571      22.29208057        2       0.00000154      -0.00000503      -0.05402280
Pt       5.61442784       1.62074571      22.29208057        2       0.02140783       0.02138449      -0.00027513
Pt       1.40360696       4.05186428      22.29208057        2      -0.02922627       0.00784685      -0.00027537
Pt       4.21082088       4.05186428      22.29208057        2       0.02922896       0.00784796      -0.00027414
Pt       7.01803480       4.05186428      22.29208057        2      -0.00000272       0.00000038       0.04414126
Pt       2.80721392       6.48298285      22.29208057        2       0.00000217       0.00000151      -0.03137785
Pt       5.61442784       6.48298285      22.29208057        2       0.00781720      -0.02923277      -0.00027373
Pt       8.42164176       6.48298285      22.29208057        2      -0.00781828      -0.02923067      -0.00027469
Pt      -0.00239872      -0.00138553      24.57829673        1       0.01536137       0.00887003       0.00744343
Pt       2.80721432       0.00768670      24.57860717        1      -0.00000100      -0.03944448       0.01255339
Pt       5.61682773      -0.00138690      24.57829647        1      -0.01536454       0.00887650       0.00744379
Pt       1.41026560       2.42727525      24.57860624        1      -0.03416787       0.01971978       0.01256585
Pt       4.20416390       2.42727426      24.57860588        1       0.03416272       0.01972373       0.01256499
Pt       7.01803451       2.42801270      24.59073946        1       0.00000278      -0.02196151       0.00538620
Pt       2.80721336       4.86500741      24.57829634        1       0.00000643      -0.01773845       0.00744358
Pt       5.61173810       4.86378936      24.59073956        1      -0.01901978       0.01097991       0.00538626
Pt       8.42433087       4.86378998      24.59073967        1       0.01901752       0.01097673       0.00538839
N        7.01803459       4.05186384      27.96139626        0       0.00000559       0.00010506       0.02141237
H        7.01803458       4.99159887      27.56270769        0       0.00000064       0.02575348      -0.00626677
H        7.83186648       3.58199721      27.56270774        0       0.02240476      -0.01292723      -0.00630998
H        6.20420283       3.58199751      27.56270740        0      -0.02241080      -0.01293132      -0.00631219
