32
Lattice="8.421641763931781 0.0 0.0 4.2108208819658905 7.293355709136913 0.0 0.0 0.0 44.584161137365626" Properties=species:S:1:pos:R:3:tags:I:1:forces:R:3 charge=0 spin=0 energy=-161.4831586789462 free_energy=-161.4831586789462 stress="0.012240460142493248 3.852408553939313e-05 8.526544661435764e-06 3.852408553939313e-05 0.012253185734152794 3.084002855757717e-06 8.526544661435764e-06 3.084002855757717e-06 -0.00023092891206033528" pbc="T T T"
Pt       1.40360727       0.81037244      19.95766877        3      -0.00711764       0.00073910      -0.02336900
Pt       4.21082123       0.81037256      19.95766888        3      -0.00679440       0.00126978      -0.02404056
Pt       7.01803445       0.81037243      19.95766851        3      -0.00655071       0.00270646      -0.02394796
Pt       2.80721413       3.24149135      19.95766844        3      -0.00634433       0.00174616      -0.02350670
Pt       5.61442751       3.24149134      19.95766853        3      -0.00557717       0.00206802      -0.02365231
Pt       8.42164211       3.24149148      19.95766852        3      -0.00835030       0.00202193      -0.02401425
Pt       4.21082074       5.67261030      19.95766878        3      -0.00574212       0.00076030      -0.02408607
Pt       7.01803477       5.67261047      19.95766871        3      -0.00702544       0.00010631      -0.02401073
Pt       9.82524854       5.67261039      19.95766860        3      -0.00799843       0.00065312      -0.02441615
Pt       0.00000046       1.62074540      22.29208304        2       0.01526360      -0.00399375       0.01775844
Pt       2.80721419       1.62074531      22.29208311        2       0.01512951      -0.00246958       0.01801512
Pt       5.61442748       1.62074566      22.29208290        2       0.01562217      -0.00357723       0.01658711
Pt       1.40360675       4.05186459      22.29208313        2       0.01341270      -0.00160537       0.01874845
Pt       4.21082083       4.05186449      22.29208278        2       0.01091460      -0.00327583       0.01348779
Pt       7.01803481       4.05186460      22.29208288        2       0.01788438      -0.00395517       0.01784323
Pt       2.80721463       6.48298242      22.29208276        2       0.01410048      -0.00313530       0.01710480
Pt       5.61442775       6.48298327      22.29208278        2       0.01472425      -0.00118514       0.01290633
Pt       8.42164096       6.48298261      22.29208273        2       0.01699786      -0.00230489       0.01957018
Pt       0.02260232      -0.00326730      24.63026935        1      -0.01044760       0.00246881       0.01278245
Pt       2.82943290      -0.00412031      24.62994281        1      -0.00677535       0.00603181       0.00702719
Pt       5.63677246      -0.00348963      24.62988121        1      -0.00866584       0.00071483       0.01068909
Pt       1.42595498       2.42778435      24.63021579        1      -0.00844787       0.00108344       0.00754326
Pt       4.23370982       2.42788005      24.63006450        1      -0.01180993      -0.00263393       0.00780895
Pt       7.04013529       2.42744298      24.63155250        1      -0.00615675       0.00306757      -0.00070602
Pt       2.82934572       4.85842808      24.63013630        1      -0.00982508       0.00317990       0.01232005
Pt       5.63585673       4.85907177      24.62950892        1      -0.00311614      -0.00079127       0.00669867
Pt       8.44386589       4.85853261      24.63234498        1      -0.00699125       0.00209433      -0.00418977
C        6.91937165       4.07053510      29.50667511        0      -0.00487468       0.00323197       0.00525527
H        7.59547151       4.65792488      30.14706462        0       0.00259478      -0.00453092      -0.01339421
H        6.31765699       3.39484816      30.13399407        0       0.00469856      -0.00306036      -0.01204858
H        7.50966731       3.48138116      28.78863439        0       0.01116310      -0.01221875       0.01718095
H        6.25229889       4.74994411      28.95538032        0      -0.01389497       0.01479378       0.00605491
