32
Lattice="8.421641763931781 0.0 0.0 4.2108208819658905 7.293355709136913 0.0 0.0 0.0 44.584161137365626" Properties=species:S:1:pos:R:3:tags:I:1:forces:R:3 charge=0 spin=0 energy=-161.48441657536955 free_energy=-161.48441657536955 stress="0.01225489191710949 -1.5575818906654604e-05 -2.951512954041391e-07 -1.5575818906654604e-05 0.012261876836419106 -1.1529890571182477e-06 -2.951512954041391e-07 -1.1529890571182477e-06 -0.00020949206373188645" pbc="T T T"
Pt       1.40360727       0.81037244      19.95766877        3       0.00111785       0.00108486      -0.02417232
Pt       4.21082123       0.81037256      19.95766888        3       0.00059157      -0.00114844      -0.02403855
Pt       7.01803445       0.81037243      19.95766851        3      -0.00059410       0.00108103      -0.02391348
Pt       2.80721413       3.24149135      19.95766844        3      -0.00113764       0.00158961      -0.02383899
Pt       5.61442751       3.24149134      19.95766853        3       0.00186777       0.00143632      -0.02421429
Pt       8.42164211       3.24149148      19.95766852        3       0.00008028       0.00090366      -0.02407979
Pt       4.21082074       5.67261030      19.95766878        3       0.00021748      -0.00024056      -0.02405984
Pt       7.01803477       5.67261047      19.95766871        3       0.00064534       0.00026907      -0.02416931
Pt       9.82524854       5.67261039      19.95766860        3       0.00000093       0.00056889      -0.02403490
Pt       0.00000046       1.62074540      22.29208304        2       0.00072115       0.00204722       0.01963652
Pt       2.80721419       1.62074531      22.29208311        2      -0.00364407      -0.00373301       0.01919530
Pt       5.61442748       1.62074566      22.29208290        2       0.00259053      -0.00258892       0.01733692
Pt       1.40360675       4.05186459      22.29208313        2       0.00242203      -0.00412755       0.02246346
Pt       4.21082083       4.05186449      22.29208278        2      -0.00110699       0.00197966       0.01831378
Pt       7.01803481       4.05186460      22.29208288        2      -0.00435298      -0.00305551       0.02226475
Pt       2.80721463       6.48298242      22.29208276        2      -0.00363665      -0.00236838       0.01928042
Pt       5.61442775       6.48298327      22.29208278        2       0.00191419      -0.00329642       0.02015601
Pt       8.42164096       6.48298261      22.29208273        2      -0.00070432       0.00291016       0.02287035
Pt      -0.00100499      -0.00205201      24.62821856        1       0.00112420       0.00060438       0.01747932
Pt       2.80586826      -0.00138003      24.63233179        1       0.00348580      -0.00579143      -0.00188307
Pt       5.61368301      -0.00126280      24.63203535        1      -0.00274328      -0.00746524      -0.00083689
Pt       1.40302434       2.42868719      24.63235616        1      -0.00403596       0.00615398      -0.00201382
Pt       4.20990763       2.42911591      24.62779002        1      -0.00082969       0.00077841       0.01848517
Pt       7.01651753       2.42819351      24.63199342        1       0.00554942       0.00843015      -0.00054841
Pt       2.80709307       4.85992701      24.63209094        1      -0.00746147       0.00234823      -0.00106914
Pt       5.61285211       4.86031661      24.63207981        1       0.00809469       0.00087672      -0.00134936
Pt       8.42077550       4.86020490      24.62945542        1      -0.00021067       0.00075414       0.00518200
C        8.41973095       4.86219865      29.82748157        0       0.00001521      -0.00010924       0.03092726
H        7.78494746       5.49799830      30.46441302        0       0.00839335      -0.00955671      -0.01587714
H        9.05284994       4.22369988      30.46336693        0      -0.00837711       0.00956470      -0.01578481
H        9.05578659       5.49647472      29.19269107        0       0.02009104       0.01850745       0.00122667
H        7.78536556       4.23062364      29.18832229        0      -0.02008801      -0.01840714       0.00106618
