32
Lattice="8.421641763931781 0.0 0.0 4.2108208819658905 7.293355709136913 0.0 0.0 0.0 44.584161137365626" Properties=species:S:1:pos:R:3:tags:I:1:forces:R:3 charge=0 spin=0 energy=-161.4771657895419 free_energy=-161.4771657895419 stress="0.012280575931072235 -3.600040145101957e-05 -1.5499828805332072e-05 -3.600040145101957e-05 0.012277633883059025 1.56380428961711e-06 -1.5499828805332072e-05 1.56380428961711e-06 -0.00020147504983469844" pbc="T T T"
Pt       1.40360727       0.81037244      19.95766877        3       0.00765078      -0.00053585      -0.02406164
Pt       4.21082123       0.81037256      19.95766888        3       0.00960518      -0.00396100      -0.02331569
Pt       7.01803445       0.81037243      19.95766851        3       0.00722455      -0.00142260      -0.02525966
Pt       2.80721413       3.24149135      19.95766844        3       0.00638431      -0.00057686      -0.02253747
Pt       5.61442751       3.24149134      19.95766853        3       0.01064243      -0.00232465      -0.02447724
Pt       8.42164211       3.24149148      19.95766852        3       0.00773497      -0.00044112      -0.02517459
Pt       4.21082074       5.67261030      19.95766878        3       0.00741469      -0.00282883      -0.02371223
Pt       7.01803477       5.67261047      19.95766871        3       0.01037454      -0.00351097      -0.02275978
Pt       9.82524854       5.67261039      19.95766860        3       0.00787928      -0.00217536      -0.02555843
Pt       0.00000046       1.62074540      22.29208304        2      -0.00443409       0.00052742       0.01970658
Pt       2.80721419       1.62074531      22.29208311        2      -0.02194773      -0.00050058       0.03132352
Pt       5.61442748       1.62074566      22.29208290        2      -0.02454184       0.00714464       0.00683346
Pt       1.40360675       4.05186459      22.29208313        2      -0.01146288      -0.00276456       0.03033792
Pt       4.21082083       4.05186449      22.29208278        2      -0.02022700       0.00912008       0.02947389
Pt       7.01803481       4.05186460      22.29208288        2      -0.02239668       0.01477568       0.02341999
Pt       2.80721463       6.48298242      22.29208276        2      -0.01070155      -0.00194667       0.01051304
Pt       5.61442775       6.48298327      22.29208278        2      -0.01339528       0.00107593       0.04554731
Pt       8.42164096       6.48298261      22.29208273        2      -0.03219614       0.00529712       0.02368724
Pt      -0.02989762       0.00462156      24.63114981        1       0.03927787      -0.00148287       0.00894987
Pt       2.77926125       0.00935665      24.63699998        1       0.00361373      -0.02869083      -0.02562366
Pt       5.58730415       0.00436204      24.62650211        1      -0.00423032       0.00913155       0.02634581
Pt       1.37679320       2.43652188      24.63625037        1       0.01108535      -0.00179355      -0.01622536
Pt       4.18300206       2.43872777      24.63001479        1       0.00560372      -0.00893866       0.01049624
Pt       6.99221808       2.43544284      24.62565600        1       0.00627434       0.01184794       0.02692902
Pt       2.77843861       4.87068340      24.63529476        1       0.02290061      -0.02363376      -0.00864311
Pt       5.58607412       4.86486235      24.63566062        1       0.02310366       0.02544919      -0.02029748
Pt       8.39764963       4.86770645      24.63185280        1      -0.02125777       0.00297501      -0.01428785
C        8.45071567       4.84056278      29.24887226        0       0.00632063      -0.00687464      -0.00393361
H        7.79264801       5.44251747      29.89357073        0      -0.01083190      -0.00088625      -0.00012823
H        9.14224408       4.25617368      29.87369014        0       0.01987908      -0.00364881       0.01973429
H        9.02649306       5.50675870      28.58886822        0      -0.00230400       0.00000156      -0.00256594
H        7.84433335       4.15352020      28.63965396        0      -0.01304266       0.01159239      -0.00473642
