32
Lattice="8.421641763931781 0.0 0.0 4.2108208819658905 7.293355709136913 0.0 0.0 0.0 44.584161137365626" Properties=species:S:1:pos:R:3:tags:I:1:forces:R:3 charge=0 spin=0 energy=-161.483546824393 free_energy=-161.483546824393 stress="0.012324178591370583 3.8087961002020165e-05 5.221652372711105e-06 3.8087961002020165e-05 0.012325327843427658 2.658886842255015e-06 5.221652372711105e-06 2.658886842255015e-06 -0.00013184444105718285" pbc="T T T"
Pt       1.40360727       0.81037244      19.95766877        3      -0.00619552      -0.00022837      -0.02384408
Pt       4.21082123       0.81037256      19.95766888        3      -0.00568651       0.00007962      -0.02420653
Pt       7.01803445       0.81037243      19.95766851        3      -0.00537592       0.00188213      -0.02443142
Pt       2.80721413       3.24149135      19.95766844        3      -0.00546815       0.00062959      -0.02401228
Pt       5.61442751       3.24149134      19.95766853        3      -0.00427269       0.00117685      -0.02454520
Pt       8.42164211       3.24149148      19.95766852        3      -0.00739903       0.00098588      -0.02494482
Pt       4.21082074       5.67261030      19.95766878        3      -0.00433095      -0.00046725      -0.02443460
Pt       7.01803477       5.67261047      19.95766871        3      -0.00606559      -0.00132763      -0.02480549
Pt       9.82524854       5.67261039      19.95766860        3      -0.00708081      -0.00053242      -0.02482230
Pt       0.00000046       1.62074540      22.29208304        2       0.01309823      -0.00442242       0.02920829
Pt       2.80721419       1.62074531      22.29208311        2       0.01298456       0.00021666       0.02969050
Pt       5.61442748       1.62074566      22.29208290        2       0.01248516      -0.00366697       0.02972701
Pt       1.40360675       4.05186459      22.29208313        2       0.01362850       0.00180459       0.03023433
Pt       4.21082083       4.05186449      22.29208278        2       0.00656110       0.00048711       0.02890377
Pt       7.01803481       4.05186460      22.29208288        2       0.01417135      -0.00094423       0.02979897
Pt       2.80721463       6.48298242      22.29208276        2       0.01145192      -0.00089628       0.03679855
Pt       5.61442775       6.48298327      22.29208278        2       0.01015572       0.00132343       0.02744020
Pt       8.42164096       6.48298261      22.29208273        2       0.01641643       0.00198593       0.03088012
Pt       0.01906675       0.00033587      24.63414775        1      -0.00940561      -0.00267332      -0.00562238
Pt       2.82607529      -0.00081745      24.63192239        1      -0.00705380       0.00521662      -0.00220231
Pt       5.63306540      -0.00001601      24.63414823        1      -0.00368284      -0.00059863      -0.00827105
Pt       1.42201542       2.43147294      24.63207959        1      -0.00410415      -0.00136334      -0.00053825
Pt       4.23044888       2.43126009      24.63239157        1      -0.01186348      -0.00268195      -0.00393309
Pt       7.03689186       2.43029716      24.63322870        1      -0.00655432       0.00460567      -0.00817907
Pt       2.82552481       4.86173666      24.63435826        1      -0.00508388       0.00369780      -0.00662608
Pt       5.63222577       4.86236267      24.63221271        1      -0.00218511      -0.00096174      -0.00586275
Pt       8.44107152       4.86261389      24.63384044        1      -0.00924498      -0.00211125      -0.01071946
C        6.95291095       4.05849904      29.55723710        0       0.00176855      -0.00609457       0.03643156
H        6.31956071       3.42661415      30.20059737        0       0.02321684       0.02336079      -0.01938389
H        7.59478981       4.69634384      30.18602579        0      -0.02240796      -0.02195758      -0.01964706
H        6.31450831       4.69119719      28.92243208        0      -0.00483711       0.00599344       0.00034829
H        7.58287543       3.41906067      28.92032453        0       0.00236011      -0.00251822       0.00157074
