32
Lattice="8.421641763931781 0.0 0.0 4.2108208819658905 7.293355709136913 0.0 0.0 0.0 44.584161137365626" Properties=species:S:1:pos:R:3:tags:I:1:forces:R:3 charge=0 spin=0 energy=-161.4682184171054 free_energy=-161.4682184171054 stress="0.012183022685348988 9.830902854446322e-06 1.3780868357571308e-05 9.830902854446322e-06 0.012390772812068462 -1.9126902770949528e-05 1.3780868357571308e-05 -1.9126902770949528e-05 -0.0003031700034625828" pbc="T T T"
Pt       1.40360727       0.81037244      19.95766877        3      -0.00069450       0.02390793      -0.02416134
Pt       4.21082123       0.81037256      19.95766888        3      -0.00051358       0.02360494      -0.02392184
Pt       7.01803445       0.81037243      19.95766851        3      -0.00080702       0.02763790      -0.02605095
Pt       2.80721413       3.24149135      19.95766844        3      -0.00042554       0.02810010      -0.01950289
Pt       5.61442751       3.24149134      19.95766853        3       0.00237884       0.02771503      -0.02661369
Pt       8.42164211       3.24149148      19.95766852        3      -0.00382165       0.02856266      -0.02564395
Pt       4.21082074       5.67261030      19.95766878        3       0.00150771       0.02611981      -0.02576908
Pt       7.01803477       5.67261047      19.95766871        3      -0.00066195       0.02453604      -0.02608144
Pt       9.82524854       5.67261039      19.95766860        3      -0.00317217       0.02676925      -0.02617306
Pt       0.00000046       1.62074540      22.29208304        2       0.00796783      -0.05721162       0.01781939
Pt       2.80721419       1.62074531      22.29208311        2       0.00267857      -0.04434216       0.01221869
Pt       5.61442748       1.62074566      22.29208290        2       0.00154566      -0.05398673       0.01699544
Pt       1.40360675       4.05186459      22.29208313        2       0.01819317      -0.06174431       0.01352952
Pt       4.21082083       4.05186449      22.29208278        2      -0.01344190      -0.06020864       0.01517731
Pt       7.01803481       4.05186460      22.29208288        2       0.00352828      -0.05922497       0.00909763
Pt       2.80721463       6.48298242      22.29208276        2       0.00459924      -0.05431706       0.02364040
Pt       5.61442775       6.48298327      22.29208278        2      -0.00346410      -0.04842583       0.00856761
Pt       8.42164096       6.48298261      22.29208273        2       0.00622822      -0.04635190       0.00559992
Pt       0.00498623      -0.08828386      24.63438635        1      -0.00866969       0.02940775       0.00636457
Pt       2.81136025      -0.08421594      24.62940084        1      -0.00056940       0.00433317       0.01894725
Pt       5.61931894      -0.08823044      24.63307701        1       0.00297877       0.03295463       0.00874291
Pt       1.40808800       2.34092181      24.63464097        1      -0.00324074       0.04443275       0.00249395
Pt       4.21499844       2.34087453      24.63424464        1       0.00175083       0.04288706       0.00342904
Pt       7.02305160       2.34205762      24.63144562        1      -0.00452796       0.03871001       0.00826760
Pt       2.81166337       4.77517762      24.63688569        1       0.00072508       0.01606208      -0.00529271
Pt       5.61462308       4.77484093      24.62671887        1       0.02401923       0.02063692       0.01863500
Pt       8.43139490       4.77558271      24.62641449        1      -0.03315882       0.01781313       0.02057946
C        7.03941902       4.91086292      29.14467826        0      -0.00086238      -0.00054429      -0.01868680
H        6.24749619       5.35664238      29.76679387        0       0.03445029       0.00450122       0.00055156
H        7.83764061       4.50885150      29.78813458        0      -0.03292192      -0.00379703       0.00623138
H        7.46249845       5.67882064      28.47865275        0      -0.02203003      -0.00029016       0.01631009
H        6.61014087       4.09846611      28.53803305        0       0.02043190       0.00175232       0.01469882
