32
Lattice="8.421641763931781 0.0 0.0 4.2108208819658905 7.293355709136913 0.0 0.0 0.0 44.584161137365626" Properties=species:S:1:pos:R:3:tags:I:1:forces:R:3 charge=0 spin=0 energy=-161.48478469365568 free_energy=-161.48478469365568 stress="0.012278505600988865 -1.639103288653132e-06 1.0285123153153108e-06 -1.639103288653132e-06 0.012312833219766617 -2.8180884328321554e-06 1.0285123153153108e-06 -2.8180884328321554e-06 -0.00017039604426827282" pbc="T T T"
Pt       1.40360727       0.81037244      19.95766877        3      -0.00025574       0.00081912      -0.02393990
Pt       4.21082123       0.81037256      19.95766888        3      -0.00050885       0.00068272      -0.02367638
Pt       7.01803445       0.81037243      19.95766851        3      -0.00034675       0.00295782      -0.02473316
Pt       2.80721413       3.24149135      19.95766844        3      -0.00020727       0.00278818      -0.02259578
Pt       5.61442751       3.24149134      19.95766853        3       0.00131015       0.00336071      -0.02496549
Pt       8.42164211       3.24149148      19.95766852        3      -0.00166058       0.00349027      -0.02462587
Pt       4.21082074       5.67261030      19.95766878        3       0.00104337       0.00105221      -0.02423125
Pt       7.01803477       5.67261047      19.95766871        3      -0.00038844       0.00075397      -0.02375250
Pt       9.82524854       5.67261039      19.95766860        3      -0.00159625       0.00146274      -0.02441134
Pt       0.00000046       1.62074540      22.29208304        2       0.00209504      -0.00692238       0.02574771
Pt       2.80721419       1.62074531      22.29208311        2       0.00088218      -0.00187700       0.02702114
Pt       5.61442748       1.62074566      22.29208290        2       0.00103669      -0.00499192       0.02528620
Pt       1.40360675       4.05186459      22.29208313        2       0.00453162      -0.00532834       0.02560844
Pt       4.21082083       4.05186449      22.29208278        2      -0.00538179      -0.00437825       0.02547595
Pt       7.01803481       4.05186460      22.29208288        2       0.00081782      -0.00589180       0.02333322
Pt       2.80721463       6.48298242      22.29208276        2       0.00051714      -0.00491626       0.02973327
Pt       5.61442775       6.48298327      22.29208278        2      -0.00084656      -0.00221195       0.02284024
Pt       8.42164096       6.48298261      22.29208273        2       0.00278866      -0.00077262       0.02199826
Pt       0.00185707      -0.00661091      24.63206585        1      -0.00535849       0.00334321       0.00186145
Pt       2.80828057      -0.00630548      24.63194645        1      -0.00046778       0.00349286      -0.00159628
Pt       5.61498173      -0.00647565      24.63199490        1       0.00353872       0.00266825       0.00258021
Pt       1.40392956       2.42510832      24.63193920        1       0.00450820       0.00137799       0.00093556
Pt       4.21263382       2.42508242      24.63182071        1      -0.00452718       0.00078137       0.00163927
Pt       7.01926434       2.42484108      24.63206626        1      -0.00085296       0.00163302      -0.00197815
Pt       2.80831458       4.85581362      24.63418545        1       0.00002720       0.00302428      -0.00528203
Pt       5.61457919       4.85584362      24.63148034        1       0.00464078       0.00192659      -0.00532571
Pt       8.42372345       4.85618418      24.63144118        1      -0.00532504       0.00168896      -0.00514742
C        7.01888874       4.85948417      29.34221325        0       0.00002669      -0.00004340       0.03422536
H        6.85093646       5.74475313      29.97633042        0       0.00530651      -0.02831820      -0.01828889
H        7.18309884       3.97629599      29.98021156        0      -0.00521609       0.02838574      -0.01854343
H        7.90381455       5.02479884      28.70912906        0      -0.00050299      -0.00093832       0.00240838
H        6.13771864       4.69207779      28.70446778        0       0.00037191       0.00090048       0.00239895
