32
Lattice="8.421641763931781 0.0 0.0 4.2108208819658905 7.293355709136913 0.0 0.0 0.0 44.584161137365626" Properties=species:S:1:pos:R:3:tags:I:1:forces:R:3 charge=0 spin=0 energy=-161.48189410680266 free_energy=-161.48189410680266 stress="0.012237170711159706 3.2282159736496396e-06 1.1548116845006007e-06 3.2282159736496396e-06 0.012312579900026321 -1.0557509995123837e-05 1.1548116845006007e-06 -1.0557509995123837e-05 -0.00019497836183290929" pbc="T T T"
Pt       1.40360727       0.81037244      19.95766877        3       0.00094567       0.00818279      -0.02405246
Pt       4.21082123       0.81037256      19.95766888        3       0.00020233       0.00807174      -0.02400002
Pt       7.01803445       0.81037243      19.95766851        3       0.00096160       0.01060819      -0.02413982
Pt       2.80721413       3.24149135      19.95766844        3       0.00056025       0.01000119      -0.02258739
Pt       5.61442751       3.24149134      19.95766853        3       0.00246110       0.01058412      -0.02415710
Pt       8.42164211       3.24149148      19.95766852        3      -0.00095298       0.01066943      -0.02446096
Pt       4.21082074       5.67261030      19.95766878        3       0.00225647       0.00892470      -0.02446280
Pt       7.01803477       5.67261047      19.95766871        3       0.00057111       0.00872726      -0.02414285
Pt       9.82524854       5.67261039      19.95766860        3      -0.00061024       0.00899498      -0.02457805
Pt       0.00000046       1.62074540      22.29208304        2      -0.00145615      -0.02142365       0.02134750
Pt       2.80721419       1.62074531      22.29208311        2      -0.00007407      -0.01808834       0.02218146
Pt       5.61442748       1.62074566      22.29208290        2      -0.00000460      -0.01981591       0.02072677
Pt       1.40360675       4.05186459      22.29208313        2       0.00365230      -0.02022077       0.02203755
Pt       4.21082083       4.05186449      22.29208278        2      -0.00757302      -0.02029484       0.02231204
Pt       7.01803481       4.05186460      22.29208288        2      -0.00088724      -0.02249332       0.02292576
Pt       2.80721463       6.48298242      22.29208276        2      -0.00259241      -0.02239597       0.02449343
Pt       5.61442775       6.48298327      22.29208278        2      -0.00142568      -0.01816896       0.01864911
Pt       8.42164096       6.48298261      22.29208273        2      -0.00065089      -0.01618063       0.02016362
Pt      -0.00123173      -0.03130165      24.63103330        1      -0.00034355       0.01269089       0.00844262
Pt       2.80573055      -0.03002146      24.63194453        1       0.00010271       0.00508593      -0.00157724
Pt       5.61260931      -0.03099069      24.63127605        1       0.00225140       0.01043239       0.00760708
Pt       1.40179518       2.40030981      24.63103890        1       0.00098998       0.01216700       0.00635181
Pt       4.21018060       2.39994457      24.63120179        1      -0.00158005       0.01263619       0.00632405
Pt       7.01658748       2.39956765      24.63242471        1       0.00174044       0.01650186      -0.00339128
Pt       2.80596872       4.83088673      24.63340875        1       0.00000429       0.01152955      -0.00296483
Pt       5.61155879       4.83182531      24.63078723        1       0.01059566       0.00682126      -0.00005657
Pt       8.42188457       4.83195527      24.63073589        1      -0.00928547       0.00662503      -0.00017388
C        7.01395087       4.86781582      29.46055358        0      -0.00000095       0.00005478       0.02093523
H        6.18540549       4.52384051      30.09939627        0       0.00964294       0.00129460      -0.01619639
H        7.84482665       5.21379314      30.09526570        0      -0.00938803      -0.00183169      -0.01584238
H        6.66710028       5.69521531      28.82359626        0      -0.00209453       0.01102538       0.00597942
H        7.35841880       4.03849563      28.82475187        0       0.00198203      -0.01071521       0.00630690
