36
Lattice="8.421641763931781 0.0 0.0 4.2108208819658905 7.293355709136913 0.0 0.0 0.0 46.87624170604845" Properties=species:S:1:pos:R:3:tags:I:1:forces:R:3 charge=0 spin=0 energy=-187.00367709663286 free_energy=-187.00367709663286 stress="0.010496607981622219 2.9884863472773304e-09 -2.4632349493458605e-09 2.9884863472773304e-09 0.010496636852622032 -7.127846091137258e-10 -2.4632349493458605e-09 -7.127846091137258e-10 4.6161163481883705e-05" pbc="T T T"
Pt      -0.00000001       0.00000004      19.95723550        4       0.00000165      -0.00000053       0.01627129
Pt       2.80721400      -0.00000009      19.95723557        4      -0.00000097       0.00000242       0.01627156
Pt       5.61442776      -0.00000012      19.95723555        4      -0.00000076       0.00000312       0.01627211
Pt       1.40360718       2.43111835      19.95723542        4       0.00000002       0.00000159       0.01627279
Pt       4.21082079       2.43111843      19.95723552        4       0.00000155      -0.00000029       0.01627271
Pt       7.01803481       2.43111844      19.95723550        4      -0.00000148      -0.00000006       0.01627230
Pt       2.80721421       4.86223734      19.95723529        4      -0.00000141      -0.00000257       0.01627322
Pt       5.61442795       4.86223729      19.95723542        4      -0.00000147      -0.00000255       0.01627131
Pt       8.42164148       4.86223724      19.95723551        4       0.00000216      -0.00000306       0.01627167
Pt       1.40360717       0.81037261      22.29206804        3       0.00000102       0.00000221      -0.04298034
Pt       4.21082121       0.81037256      22.29206808        3      -0.00000242       0.00000324      -0.04298194
Pt       7.01803485       0.81037259      22.29206811        3      -0.00000124       0.00000255      -0.04298200
Pt       2.80721434       3.24149110      22.29206780        3      -0.00000378       0.00000438      -0.04297966
Pt       5.61442775       3.24149130      22.29206801        3       0.00000144       0.00000091      -0.04298006
Pt       8.42164144       3.24149143      22.29206808        3       0.00000316       0.00000062      -0.04298021
Pt       4.21082099       5.67261006      22.29206776        3      -0.00000307      -0.00000290      -0.04297588
Pt       7.01803485       5.67260985      22.29206778        3      -0.00000378       0.00000107      -0.04297683
Pt       9.82524820       5.67261061      22.29206807        3       0.00000702      -0.00000829      -0.04298139
Pt      -0.00000053       1.62074559      24.58417356        2       0.00000476       0.00000097       0.04298079
Pt       2.80721447       1.62074548      24.58417379        2      -0.00000420       0.00000294       0.04297952
Pt       5.61442782       1.62074544      24.58417375        2      -0.00000097       0.00000443       0.04298139
Pt       1.40360648       4.05186445      24.58417388        2       0.00000069      -0.00000317       0.04297810
Pt       4.21082098       4.05186402      24.58417384        2      -0.00000046       0.00000473       0.04297965
Pt       7.01803473       4.05186413      24.58417382        2      -0.00000114       0.00000407       0.04297939
Pt       2.80721282       6.48298339      24.58417358        2       0.00001299      -0.00000648       0.04297864
Pt       5.61442787       6.48298335      24.58417389        2      -0.00000171      -0.00000573       0.04297729
Pt       8.42164231       6.48298348      24.58417365        2      -0.00000721      -0.00000541       0.04298133
Pt       0.00000052      -0.00000003      26.91900640        1      -0.00000277       0.00000234      -0.01627241
Pt       2.80721402      -0.00000011      26.91900611        1       0.00000076       0.00000201      -0.01627122
Pt       5.61442784      -0.00000013      26.91900601        1       0.00000021       0.00000242      -0.01626987
Pt       1.40360725       2.43111855      26.91900632        1      -0.00000022       0.00000057      -0.01627294
Pt       4.21082087       2.43111854      26.91900615        1       0.00000250      -0.00000044      -0.01627141
Pt       7.01803483       2.43111870      26.91900619        1      -0.00000097      -0.00000168      -0.01627169
Pt       2.80721396       4.86223727      26.91900640        1      -0.00000247      -0.00000174      -0.01627254
Pt       5.61442795       4.86223742      26.91900613        1      -0.00000024      -0.00000251      -0.01627252
Pt       8.42164124       4.86223707      26.91900625        1       0.00000284       0.00000068      -0.01627205
