36
Lattice="8.421641763931781 0.0 0.0 4.2108208819658905 7.293355709136913 0.0 0.0 0.0 46.87624170604845" Properties=species:S:1:pos:R:3:tags:I:1:forces:R:3 charge=0 spin=0 energy=-186.93033381965532 free_energy=-186.93033381965532 stress="0.008562121540307999 -4.329388403334633e-09 -1.776577551737546e-09 -4.329388403334633e-09 0.00856211967766285 -1.7822860964855636e-09 -1.776577551737546e-09 -1.7822860964855636e-09 -0.0033283401280641556" pbc="T T T"
Pt       0.00000000       0.00000000      20.00000000        4       0.00000197      -0.00000272      -0.22563648
Pt       2.80721392       0.00000000      20.00000000        4       0.00000045      -0.00000160      -0.22563551
Pt       5.61442784       0.00000000      20.00000000        4      -0.00000257      -0.00000122      -0.22563487
Pt       1.40360696       2.43111857      20.00000000        4       0.00000124       0.00000017      -0.22563776
Pt       4.21082088       2.43111857      20.00000000        4       0.00000137       0.00000002      -0.22563589
Pt       7.01803480       2.43111857      20.00000000        4      -0.00000274      -0.00000029      -0.22563829
Pt       2.80721392       4.86223714      20.00000000        4       0.00000080       0.00000052      -0.22563754
Pt       5.61442784       4.86223714      20.00000000        4      -0.00000216       0.00000157      -0.22563608
Pt       8.42164176       4.86223714      20.00000000        4       0.00000157       0.00000255      -0.22563703
Pt       1.40360696       0.81037286      22.29208057        3       0.00000183      -0.00000374       0.21236114
Pt       4.21082088       0.81037286      22.29208057        3       0.00000307      -0.00000249       0.21236068
Pt       7.01803480       0.81037286      22.29208057        3      -0.00000391      -0.00000278       0.21236148
Pt       2.80721392       3.24149143      22.29208057        3       0.00000136      -0.00000093       0.21235895
Pt       5.61442784       3.24149143      22.29208057        3      -0.00000338       0.00000012       0.21236049
Pt       8.42164176       3.24149143      22.29208057        3       0.00000285       0.00000087       0.21236086
Pt       4.21082088       5.67261000      22.29208057        3       0.00000457       0.00000103       0.21235865
Pt       7.01803480       5.67261000      22.29208057        3      -0.00000225       0.00000334       0.21235965
Pt       9.82524872       5.67261000      22.29208057        3      -0.00000267       0.00000367       0.21236098
Pt      -0.00000000       1.62074571      24.58416114        2       0.00000327      -0.00000140      -0.21236043
Pt       2.80721392       1.62074571      24.58416114        2       0.00000107      -0.00000238      -0.21235973
Pt       5.61442784       1.62074571      24.58416114        2      -0.00000304      -0.00000280      -0.21236049
Pt       1.40360696       4.05186428      24.58416114        2      -0.00000300       0.00000172      -0.21236034
Pt       4.21082088       4.05186428      24.58416114        2       0.00000461      -0.00000062      -0.21235964
Pt       7.01803480       4.05186428      24.58416114        2      -0.00000248       0.00000019      -0.21236070
Pt       2.80721392       6.48298285      24.58416114        2      -0.00000717       0.00000220      -0.21236068
Pt       5.61442784       6.48298285      24.58416114        2      -0.00000149       0.00000217      -0.21236068
Pt       8.42164176       6.48298285      24.58416114        2       0.00000499       0.00000371      -0.21235934
Pt       0.00000000       0.00000000      26.87624171        1       0.00000286      -0.00000201       0.22563699
Pt       2.80721392       0.00000000      26.87624171        1       0.00000082      -0.00000092       0.22563559
Pt       5.61442784       0.00000000      26.87624171        1      -0.00000226      -0.00000205       0.22563420
Pt       1.40360696       2.43111857      26.87624171        1       0.00000138      -0.00000047       0.22563788
Pt       4.21082088       2.43111857      26.87624171        1       0.00000152      -0.00000045       0.22563611
Pt       7.01803480       2.43111857      26.87624171        1      -0.00000254       0.00000012       0.22563832
Pt       2.80721392       4.86223714      26.87624171        1       0.00000074       0.00000132       0.22563733
Pt       5.61442784       4.86223714      26.87624171        1      -0.00000221       0.00000092       0.22563592
Pt       8.42164176       4.86223714      26.87624171        1       0.00000172       0.00000265       0.22563669
