36
Lattice="8.421641763931781 0.0 0.0 4.2108208819658905 7.293355709136913 0.0 0.0 0.0 46.87624170604845" Properties=species:S:1:pos:R:3:tags:I:1:forces:R:3 charge=0 spin=0 energy=-186.93033381965532 free_energy=-186.93033381965532 stress="0.00856211967766285 -3.8643230837465126e-09 -1.452483355812717e-09 -3.8643230837465126e-09 0.00856211967766285 -1.7682421082909627e-09 -1.452483355812717e-09 -1.7682421082909627e-09 -0.0033283394295722246" pbc="T T T"
Pt       0.00000000       0.00000000      20.00000000        4       0.00000203      -0.00000276      -0.22563648
Pt       2.80721392       0.00000000      20.00000000        4       0.00000043      -0.00000160      -0.22563548
Pt       5.61442784       0.00000000      20.00000000        4      -0.00000253      -0.00000123      -0.22563487
Pt       1.40360696       2.43111857      20.00000000        4       0.00000119       0.00000019      -0.22563772
Pt       4.21082088       2.43111857      20.00000000        4       0.00000140      -0.00000004      -0.22563589
Pt       7.01803480       2.43111857      20.00000000        4      -0.00000269      -0.00000026      -0.22563818
Pt       2.80721392       4.86223714      20.00000000        4       0.00000082       0.00000062      -0.22563751
Pt       5.61442784       4.86223714      20.00000000        4      -0.00000214       0.00000159      -0.22563604
Pt       8.42164176       4.86223714      20.00000000        4       0.00000163       0.00000249      -0.22563693
Pt       1.40360696       0.81037286      22.29208057        3       0.00000186      -0.00000372       0.21236108
Pt       4.21082088       0.81037286      22.29208057        3       0.00000306      -0.00000256       0.21236059
Pt       7.01803480       0.81037286      22.29208057        3      -0.00000392      -0.00000275       0.21236145
Pt       2.80721392       3.24149143      22.29208057        3       0.00000131      -0.00000095       0.21235895
Pt       5.61442784       3.24149143      22.29208057        3      -0.00000333       0.00000014       0.21236040
Pt       8.42164176       3.24149143      22.29208057        3       0.00000288       0.00000088       0.21236084
Pt       4.21082088       5.67261000      22.29208057        3       0.00000457       0.00000102       0.21235859
Pt       7.01803480       5.67261000      22.29208057        3      -0.00000229       0.00000332       0.21235961
Pt       9.82524872       5.67261000      22.29208057        3      -0.00000271       0.00000368       0.21236093
Pt      -0.00000000       1.62074571      24.58416114        2       0.00000325      -0.00000142      -0.21236038
Pt       2.80721392       1.62074571      24.58416114        2       0.00000108      -0.00000234      -0.21235965
Pt       5.61442784       1.62074571      24.58416114        2      -0.00000307      -0.00000277      -0.21236049
Pt       1.40360696       4.05186428      24.58416114        2      -0.00000299       0.00000169      -0.21236031
Pt       4.21082088       4.05186428      24.58416114        2       0.00000461      -0.00000063      -0.21235964
Pt       7.01803480       4.05186428      24.58416114        2      -0.00000247       0.00000022      -0.21236074
Pt       2.80721392       6.48298285      24.58416114        2      -0.00000717       0.00000222      -0.21236068
Pt       5.61442784       6.48298285      24.58416114        2      -0.00000151       0.00000214      -0.21236061
Pt       8.42164176       6.48298285      24.58416114        2       0.00000501       0.00000372      -0.21235943
Pt       0.00000000       0.00000000      26.87624171        1       0.00000279      -0.00000193       0.22563696
Pt       2.80721392       0.00000000      26.87624171        1       0.00000077      -0.00000097       0.22563562
Pt       5.61442784       0.00000000      26.87624171        1      -0.00000210      -0.00000212       0.22563420
Pt       1.40360696       2.43111857      26.87624171        1       0.00000134      -0.00000042       0.22563782
Pt       4.21082088       2.43111857      26.87624171        1       0.00000154      -0.00000038       0.22563607
Pt       7.01803480       2.43111857      26.87624171        1      -0.00000254       0.00000006       0.22563833
Pt       2.80721392       4.86223714      26.87624171        1       0.00000071       0.00000128       0.22563736
Pt       5.61442784       4.86223714      26.87624171        1      -0.00000221       0.00000101       0.22563587
Pt       8.42164176       4.86223714      26.87624171        1       0.00000161       0.00000260       0.22563669
