36
Lattice="8.421641763931781 0.0 0.0 4.2108208819658905 7.293355709136913 0.0 0.0 0.0 46.87624170604845" Properties=species:S:1:pos:R:3:tags:I:1:forces:R:3 charge=0 spin=0 energy=-187.00367709663286 free_energy=-187.00367709663286 stress="0.010496609844267368 2.0121808663731144e-09 -2.0244327048057897e-10 2.0121808663731144e-09 0.010496633127331734 -9.259117916826654e-10 -2.0244327048057897e-10 -9.259117916826654e-10 4.616047226591036e-05" pbc="T T T"
Pt       0.00000003       0.00000007      19.95723551        4       0.00000161      -0.00000030       0.01627129
Pt       2.80721399      -0.00000008      19.95723555        4      -0.00000081       0.00000237       0.01627129
Pt       5.61442774      -0.00000012      19.95723554        4      -0.00000045       0.00000312       0.01627156
Pt       1.40360717       2.43111834      19.95723540        4      -0.00000009       0.00000166       0.01627218
Pt       4.21082076       2.43111843      19.95723549        4       0.00000200      -0.00000027       0.01627201
Pt       7.01803486       2.43111843      19.95723547        4      -0.00000133       0.00000008       0.01627313
Pt       2.80721421       4.86223732      19.95723529        4      -0.00000125      -0.00000248       0.01627317
Pt       5.61442794       4.86223731      19.95723540        4      -0.00000139      -0.00000275       0.01627148
Pt       8.42164146       4.86223722      19.95723551        4       0.00000200      -0.00000294       0.01627177
Pt       1.40360717       0.81037261      22.29206807        3       0.00000117       0.00000171      -0.04297955
Pt       4.21082122       0.81037254      22.29206808        3      -0.00000240       0.00000348      -0.04298178
Pt       7.01803484       0.81037259      22.29206812        3      -0.00000139       0.00000248      -0.04298204
Pt       2.80721436       3.24149112      22.29206782        3      -0.00000411       0.00000457      -0.04297873
Pt       5.61442774       3.24149129      22.29206807        3       0.00000112       0.00000084      -0.04298033
Pt       8.42164142       3.24149141      22.29206809        3       0.00000302       0.00000063      -0.04298104
Pt       4.21082097       5.67261006      22.29206778        3      -0.00000318      -0.00000315      -0.04297625
Pt       7.01803483       5.67260987      22.29206781        3      -0.00000400       0.00000122      -0.04297704
Pt       9.82524821       5.67261060      22.29206810        3       0.00000693      -0.00000823      -0.04298121
Pt      -0.00000049       1.62074561      24.58417352        2       0.00000376      -0.00000098       0.04298089
Pt       2.80721437       1.62074550      24.58417378        2      -0.00000301       0.00000215       0.04297986
Pt       5.61442785       1.62074544      24.58417371        2      -0.00000153       0.00000424       0.04298109
Pt       1.40360647       4.05186444      24.58417385        2       0.00000696      -0.00000238       0.04297811
Pt       4.21082100       4.05186404      24.58417381        2      -0.00000303       0.00000380       0.04297965
Pt       7.01803473       4.05186412      24.58417379        2      -0.00000267       0.00000325       0.04297946
Pt       2.80721284       6.48298340      24.58417356        2       0.00001255      -0.00000727       0.04297873
Pt       5.61442787       6.48298334      24.58417388        2      -0.00000207      -0.00000212       0.04297728
Pt       8.42164233       6.48298347      24.58417367        2      -0.00000762      -0.00000423       0.04298131
Pt       0.00000052      -0.00000006      26.91900641        1      -0.00000270       0.00000223      -0.01627245
Pt       2.80721403      -0.00000012      26.91900612        1       0.00000058       0.00000229      -0.01627146
Pt       5.61442781      -0.00000011      26.91900602        1       0.00000023       0.00000243      -0.01626978
Pt       1.40360726       2.43111854      26.91900633        1      -0.00000025       0.00000055      -0.01627277
Pt       4.21082088       2.43111854      26.91900619        1       0.00000252      -0.00000033      -0.01627154
Pt       7.01803482       2.43111869      26.91900618        1      -0.00000109      -0.00000174      -0.01627158
Pt       2.80721396       4.86223726      26.91900642        1      -0.00000261      -0.00000194      -0.01627336
Pt       5.61442795       4.86223743      26.91900614        1      -0.00000033      -0.00000268      -0.01627222
Pt       8.42164126       4.86223708      26.91900625        1       0.00000269       0.00000075      -0.01627116
