38
Lattice="8.421641763931781 0.0 0.0 4.2108208819658905 7.293355709136913 0.0 0.0 0.0 46.87624170604845" Properties=species:S:1:pos:R:3:tags:I:1:initial_magmoms:R:1:forces:R:3 charge=0 spin=0 energy=-196.55118509823643 free_energy=-196.55118509823643 stress="0.009007306769490242 0.0003521749749779701 0.0001831802073866129 0.0003521749749779701 0.009526807814836502 -0.00013811270764563233 0.0001831802073866129 -0.00013811270764563233 -0.00031016356660984457" pbc="T T T"
Pt      -0.00000011      -0.00000005      19.95723442        4       0.00000000       0.00257921      -0.00181989       0.00331530
Pt       2.80721395      -0.00000019      19.95723450        4       0.00000000       0.00103666       0.00127460       0.01497203
Pt       5.61442786      -0.00000007      19.95723452        4       0.00000000       0.00878473      -0.00157925       0.01329046
Pt       1.40360721       2.43111839      19.95723434        4       0.00000000      -0.00787077      -0.00916221      -0.02184046
Pt       4.21082082       2.43111837      19.95723444        4       0.00000000      -0.01452434       0.00881011       0.03335222
Pt       7.01803481       2.43111844      19.95723433        4       0.00000000       0.00896129      -0.00561890       0.01716639
Pt       2.80721415       4.86223733      19.95723415        4       0.00000000       0.00842518       0.01062559      -0.02264165
Pt       5.61442796       4.86223739      19.95723433        4       0.00000000      -0.00119126      -0.00019869       0.01254076
Pt       8.42164143       4.86223725      19.95723439        4       0.00000000       0.01494267      -0.00238878       0.01732671
Pt       1.40360728       0.81037261      22.29206792        3       0.00000000       0.00986565       0.00352210      -0.07254200
Pt       4.21082128       0.81037249      22.29206789        3       0.00000000       0.02249625      -0.01869779      -0.04846993
Pt       7.01803472       0.81037258      22.29206780        3       0.00000000       0.01987254      -0.00564001      -0.07417206
Pt       2.80721447       3.24149123      22.29206774        3       0.00000000      -0.01373492       0.01079976       0.05423554
Pt       5.61442762       3.24149120      22.29206786        3       0.00000000       0.03091877       0.00149528      -0.04615294
Pt       8.42164156       3.24149131      22.29206806        3       0.00000000       0.03471279      -0.01583750      -0.09469806
Pt       4.21082090       5.67260998      22.29206740        3       0.00000000       0.00173582      -0.01001852      -0.07721408
Pt       7.01803486       5.67261041      22.29206774        3       0.00000000       0.02197310      -0.01131050      -0.03573056
Pt       9.82524817       5.67261060      22.29206803        3       0.00000000       0.03857418      -0.01660462      -0.09034573
Pt      -0.00000054       1.62074568      24.58417374        2       0.00000000      -0.02673052       0.09503230      -0.13002865
Pt       2.80721436       1.62074546      24.58417392        2       0.00000000      -0.05017276      -0.29057831       0.50260949
Pt       5.61442782       1.62074536      24.58417379        2       0.00000000      -0.01876186      -0.00284900      -0.02293014
Pt       1.40360636       4.05186439      24.58417387        2       0.00000000       0.08028088      -0.05520659      -0.25129035
Pt       4.21082089       4.05186396      24.58417387        2       0.00000000       0.23270407       0.15738198       0.51220179
Pt       7.01803504       4.05186408      24.58417404        2       0.00000000      -0.15821519       0.00753459      -0.04164517
Pt       2.80721273       6.48298349      24.58417384        2       0.00000000      -0.11754748      -0.06211057      -0.14202948
Pt       5.61442806       6.48298330      24.58417399        2       0.00000000      -0.02990880       0.00158294      -0.02260629
Pt       8.42164222       6.48298344      24.58417375        2       0.00000000      -0.10194820       0.09993963      -0.03538646
Pt      -0.13706356       0.05837738      26.87869465        1       0.00000000       0.01354547       0.01180924      -0.00177190
Pt       2.71221518       0.08874076      26.94886814        1       0.00000000       0.00670225       0.00649210      -0.00056266
Pt       5.53746979       0.01584323      26.91255706        1       0.00000000      -0.00584420       0.04740313       0.01217832
Pt       1.32000311       2.46023597      26.93903953        1       0.00000000       0.03061666       0.02654798       0.00323019
Pt       4.14433437       2.45711383      26.91238429        1       0.00000000      -0.00742565       0.00003994      -0.01242573
Pt       6.94688326       2.45345215      26.91268299        1       0.00000000      -0.03129113       0.02051674       0.00822044
Pt       2.72395865       4.88328404      26.93798315        1       0.00000000       0.00420828      -0.00472624       0.00648930
Pt       5.48007762       4.88082466      26.95037219        1       0.00000000      -0.00421971      -0.00737034       0.00550024
Pt       8.41832690       4.84183254      26.83872775        1       0.00000000       0.02090594       0.01305246       0.03684469
O        6.37794072       6.03137770      28.58605939        0       0.50000000       0.00275591      -0.00935556      -0.00301091
H        5.62897699       6.46714586      29.04946026        0       0.50000000      -0.02721128       0.00721273      -0.00597867
