38
Lattice="8.421641763931781 0.0 0.0 4.2108208819658905 7.293355709136913 0.0 0.0 0.0 46.87624170604845" Properties=species:S:1:pos:R:3:tags:I:1:initial_magmoms:R:1:forces:R:3 charge=0 spin=0 energy=-196.55281969601475 free_energy=-196.55281969601475 stress="0.009081896394491196 0.00034514963044784963 0.00020224048057571054 0.00034514963044784963 0.00951360259205103 -0.00011777910549426451 0.00020224048057571054 -0.00011777910549426451 -0.00029969352181069553" pbc="T T T"
Pt      -0.00000011      -0.00000005      19.95723442        4       0.00000000       0.00331394      -0.00350631       0.00358551
Pt       2.80721395      -0.00000019      19.95723450        4       0.00000000       0.00190228      -0.00073219       0.01542392
Pt       5.61442786      -0.00000007      19.95723452        4       0.00000000       0.00897603      -0.00396911       0.01282494
Pt       1.40360721       2.43111839      19.95723434        4       0.00000000      -0.00782507      -0.01074664      -0.02275272
Pt       4.21082082       2.43111837      19.95723444        4       0.00000000      -0.01354760       0.00683083       0.03371927
Pt       7.01803481       2.43111844      19.95723433        4       0.00000000       0.00936215      -0.00783785       0.01692283
Pt       2.80721415       4.86223733      19.95723415        4       0.00000000       0.00854275       0.00957806      -0.02228821
Pt       5.61442796       4.86223739      19.95723433        4       0.00000000      -0.00041828      -0.00239561       0.01231850
Pt       8.42164143       4.86223725      19.95723439        4       0.00000000       0.01550645      -0.00438903       0.01721507
Pt       1.40360728       0.81037261      22.29206792        3       0.00000000       0.01034749      -0.00217884      -0.07232268
Pt       4.21082128       0.81037249      22.29206789        3       0.00000000       0.02196153      -0.02672786      -0.04682336
Pt       7.01803472       0.81037258      22.29206780        3       0.00000000       0.01981177      -0.01410532      -0.07513873
Pt       2.80721447       3.24149123      22.29206774        3       0.00000000      -0.01322380       0.00322267       0.05166167
Pt       5.61442762       3.24149120      22.29206786        3       0.00000000       0.03122367      -0.00723887      -0.04624269
Pt       8.42164156       3.24149131      22.29206806        3       0.00000000       0.03367382      -0.02450547      -0.09443334
Pt       4.21082090       5.67260998      22.29206740        3       0.00000000       0.00299890      -0.01738978      -0.07781908
Pt       7.01803486       5.67261041      22.29206774        3       0.00000000       0.02101018      -0.01909096      -0.03700542
Pt       9.82524817       5.67261060      22.29206803        3       0.00000000       0.03737136      -0.02478434      -0.08873193
Pt      -0.00000054       1.62074568      24.58417374        2       0.00000000      -0.02573891       0.12685966      -0.12942317
Pt       2.80721436       1.62074546      24.58417392        2       0.00000000      -0.05506848      -0.27831843       0.49218786
Pt       5.61442782       1.62074536      24.58417379        2       0.00000000      -0.01407657       0.02191175      -0.02462715
Pt       1.40360636       4.05186439      24.58417387        2       0.00000000       0.07473136      -0.02285227      -0.23334002
Pt       4.21082089       4.05186396      24.58417387        2       0.00000000       0.22995034       0.18654753       0.50515032
Pt       7.01803504       4.05186408      24.58417404        2       0.00000000      -0.14259291       0.03355923      -0.03963271
Pt       2.80721273       6.48298349      24.58417384        2       0.00000000      -0.11584252      -0.03497254      -0.12002851
Pt       5.61442806       6.48298330      24.58417399        2       0.00000000      -0.02889071       0.02288460      -0.02429111
Pt       8.42164222       6.48298344      24.58417375        2       0.00000000      -0.09213994       0.12861028      -0.03875514
Pt      -0.13886860       0.08952527      26.87993440        1       0.00000000      -0.00003844       0.00047471      -0.00646566
Pt       2.70719899       0.10903225      26.95025034        1       0.00000000      -0.00652610       0.00032490       0.00937506
Pt       5.53514316       0.05556338      26.91606334        1       0.00000000      -0.00235421      -0.00888837       0.00304045
Pt       1.32410032       2.49461230      26.93825731        1       0.00000000      -0.01059760      -0.00791077       0.00431460
Pt       4.13152318       2.47875724      26.91045264        1       0.00000000       0.02280724       0.00667877       0.00428428
Pt       6.94214980       2.48882698      26.91452186        1       0.00000000      -0.01096224      -0.01699738       0.00301672
Pt       2.72524637       4.91593850      26.94115087        1       0.00000000      -0.03875887      -0.00889017      -0.00294965
Pt       5.47225395       4.90118638      26.94645497        1       0.00000000       0.01305601      -0.00923137       0.01045438
Pt       8.41712020       4.87568605      26.84258785        1       0.00000000       0.03348553      -0.01504788       0.01542802
O        6.36404506       6.03593468      28.58545176        0       0.50000000      -0.03198488       0.02870652       0.00510737
H        5.60928160       6.47009693      29.04300169        0       0.50000000       0.01055423      -0.00348208      -0.01295938
