38
Lattice="8.421641763931781 0.0 0.0 4.2108208819658905 7.293355709136913 0.0 0.0 0.0 46.87624170604845" Properties=species:S:1:pos:R:3:tags:I:1:initial_magmoms:R:1:forces:R:3 charge=0 spin=0 energy=-196.55264994198643 free_energy=-196.55264994198643 stress="0.009062119759619236 0.00035291019594296813 0.00020679870794992894 0.00035291019594296813 0.009499252773821354 -0.00011834120959974825 0.00020679870794992894 -0.00011834120959974825 -0.00030140287708491087" pbc="T T T"
Pt      -0.00000011      -0.00000005      19.95723442        4       0.00000000       0.00327531      -0.00350180       0.00360279
Pt       2.80721395      -0.00000019      19.95723450        4       0.00000000       0.00181276      -0.00067869       0.01546582
Pt       5.61442786      -0.00000007      19.95723452        4       0.00000000       0.00889817      -0.00407145       0.01277397
Pt       1.40360721       2.43111839      19.95723434        4       0.00000000      -0.00779709      -0.01060404      -0.02266518
Pt       4.21082082       2.43111837      19.95723444        4       0.00000000      -0.01382139       0.00700438       0.03378930
Pt       7.01803481       2.43111844      19.95723433        4       0.00000000       0.00931149      -0.00773919       0.01696157
Pt       2.80721415       4.86223733      19.95723415        4       0.00000000       0.00845984       0.00969962      -0.02244368
Pt       5.61442796       4.86223739      19.95723433        4       0.00000000      -0.00057588      -0.00238378       0.01235469
Pt       8.42164143       4.86223725      19.95723439        4       0.00000000       0.01550587      -0.00428195       0.01728127
Pt       1.40360728       0.81037261      22.29206792        3       0.00000000       0.01016573      -0.00207875      -0.07232575
Pt       4.21082128       0.81037249      22.29206789        3       0.00000000       0.02182477      -0.02645048      -0.04761366
Pt       7.01803472       0.81037258      22.29206780        3       0.00000000       0.01948456      -0.01398121      -0.07574696
Pt       2.80721447       3.24149123      22.29206774        3       0.00000000      -0.01330250       0.00395040       0.05243062
Pt       5.61442762       3.24149120      22.29206786        3       0.00000000       0.03088136      -0.00722281      -0.04682007
Pt       8.42164156       3.24149131      22.29206806        3       0.00000000       0.03327326      -0.02452730      -0.09438804
Pt       4.21082090       5.67260998      22.29206740        3       0.00000000       0.00276362      -0.01722975      -0.07808937
Pt       7.01803486       5.67261041      22.29206774        3       0.00000000       0.02079738      -0.01888709      -0.03678825
Pt       9.82524817       5.67261060      22.29206803        3       0.00000000       0.03725423      -0.02453621      -0.08856995
Pt      -0.00000054       1.62074568      24.58417374        2       0.00000000      -0.02486792       0.12422118      -0.12627046
Pt       2.80721436       1.62074546      24.58417392        2       0.00000000      -0.05481437      -0.28033286       0.49247015
Pt       5.61442782       1.62074536      24.58417379        2       0.00000000      -0.01381875       0.02193844      -0.02442317
Pt       1.40360636       4.05186439      24.58417387        2       0.00000000       0.07381088      -0.02147903      -0.23766592
Pt       4.21082089       4.05186396      24.58417387        2       0.00000000       0.23012076       0.18552262       0.50076395
Pt       7.01803504       4.05186408      24.58417404        2       0.00000000      -0.13846223       0.03526744      -0.03630954
Pt       2.80721273       6.48298349      24.58417384        2       0.00000000      -0.11440701      -0.03482974      -0.11964173
Pt       5.61442806       6.48298330      24.58417399        2       0.00000000      -0.02790915       0.02369433      -0.02286230
Pt       8.42164222       6.48298344      24.58417375        2       0.00000000      -0.09218621       0.12443720      -0.03236256
Pt      -0.13822647       0.08832719      26.88073628        1       0.00000000       0.00397830       0.00360836      -0.01153022
Pt       2.70825498       0.10987329      26.95041368        1       0.00000000      -0.00990729       0.00075766       0.00365317
Pt       5.53669334       0.05518073      26.91566715        1       0.00000000      -0.00715378      -0.00928801       0.00316288
Pt       1.32532013       2.49583362      26.93791912        1       0.00000000      -0.01217334      -0.02291675       0.00773221
Pt       4.13115197       2.47907911      26.91031107        1       0.00000000       0.03056460       0.00053378       0.00547108
Pt       6.94333562       2.48805312      26.91446478        1       0.00000000      -0.01221612      -0.01665421       0.00230862
Pt       2.72603157       4.91456197      26.94081473        1       0.00000000      -0.03458062      -0.00142449       0.00090706
Pt       5.47291866       4.89946484      26.94529738        1       0.00000000       0.01284433      -0.00238697       0.01199551
Pt       8.41999680       4.87354197      26.84466367        1       0.00000000       0.02261688      -0.00406070       0.00406760
O        6.36849084       6.03588450      28.58156511        0       0.50000000       0.00154304       0.00526273       0.00525300
H        5.61821804       6.46618129      29.04806012        0       0.50000000      -0.02119361       0.01564904      -0.00592865
