38
Lattice="8.421641763931781 0.0 0.0 4.2108208819658905 7.293355709136913 0.0 0.0 0.0 46.87624170604845" Properties=species:S:1:pos:R:3:tags:I:1:initial_magmoms:R:1:forces:R:3 charge=0 spin=0 energy=-196.55133768612706 free_energy=-196.55133768612706 stress="0.009093867614865303 -0.00039742945227772 -0.00020737199520226568 -0.00039742945227772 0.009428094141185284 -8.160532161127776e-05 -0.00020737199520226568 -8.160532161127776e-05 -0.0003258613869547844" pbc="T T T"
Pt      -0.00000011      -0.00000005      19.95723442        4       0.00000000      -0.00938592      -0.00492868       0.01729325
Pt       2.80721395      -0.00000019      19.95723450        4       0.00000000       0.00027955       0.00115255       0.01266226
Pt       5.61442786      -0.00000007      19.95723452        4       0.00000000      -0.00286109      -0.00134985       0.00327495
Pt       1.40360721       2.43111839      19.95723434        4       0.00000000       0.01493326       0.00822075       0.03339925
Pt       4.21082082       2.43111837      19.95723444        4       0.00000000       0.00499881      -0.01256807      -0.02258828
Pt       7.01803481       2.43111844      19.95723433        4       0.00000000      -0.00574596      -0.00675818       0.01320149
Pt       2.80721415       4.86223733      19.95723415        4       0.00000000      -0.00402755       0.01162896      -0.02202996
Pt       5.61442796       4.86223739      19.95723433        4       0.00000000      -0.00950802      -0.01173243       0.01739912
Pt       8.42164143       4.86223725      19.95723439        4       0.00000000       0.00047486      -0.00158144       0.01480439
Pt       1.40360728       0.81037261      22.29206792        3       0.00000000      -0.01397056      -0.02714497      -0.04589372
Pt       4.21082128       0.81037249      22.29206789        3       0.00000000      -0.00964472       0.00354428      -0.07736801
Pt       7.01803472       0.81037258      22.29206780        3       0.00000000      -0.01493454      -0.01437183      -0.07415058
Pt       2.80721447       3.24149123      22.29206774        3       0.00000000       0.01606218       0.00723075       0.05346881
Pt       5.61442762       3.24149120      22.29206786        3       0.00000000      -0.03372597      -0.02502018      -0.09039405
Pt       8.42164156       3.24149131      22.29206806        3       0.00000000      -0.02738796      -0.01001192      -0.04878598
Pt       4.21082090       5.67260998      22.29206740        3       0.00000000      -0.03126724      -0.02208736      -0.09514025
Pt       7.01803486       5.67261041      22.29206774        3       0.00000000      -0.02089165      -0.01344797      -0.03565238
Pt       9.82524817       5.67261060      22.29206803        3       0.00000000      -0.00206768      -0.01046052      -0.07335334
Pt      -0.00000054       1.62074568      24.58417374        2       0.00000000       0.00596506       0.01683938      -0.02841988
Pt       2.80721436       1.62074546      24.58417392        2       0.00000000       0.02100232      -0.28326190       0.51030195
Pt       5.61442782       1.62074536      24.58417379        2       0.00000000       0.00644628       0.13265680      -0.13944805
Pt       1.40360636       4.05186439      24.58417387        2       0.00000000      -0.22563623       0.18947768       0.49636275
Pt       4.21082089       4.05186396      24.58417387        2       0.00000000      -0.08633759      -0.04162910      -0.24798524
Pt       7.01803504       4.05186408      24.58417404        2       0.00000000       0.13375908       0.03917802      -0.03416993
Pt       2.80721273       6.48298349      24.58417384        2       0.00000000       0.09630778      -0.02336980      -0.12599139
Pt       5.61442806       6.48298330      24.58417399        2       0.00000000       0.08525787       0.12985706      -0.03752034
Pt       8.42164222       6.48298344      24.58417375        2       0.00000000       0.01663384       0.02656357      -0.02423251
Pt       0.05673033       0.05230742      26.91283402        1       0.00000000       0.02281247       0.00310737       0.00795505
Pt       2.89061879       0.10695526      26.95090482        1       0.00000000      -0.00515078       0.01611885      -0.00653300
Pt       5.73368273       0.08980591      26.87942097        1       0.00000000       0.01110635      -0.01649615      -0.00705827
Pt       1.45948266       2.47582090      26.91068982        1       0.00000000       0.00668787       0.00594062      -0.00399766
Pt       4.26980648       2.49105153      26.93781483        1       0.00000000       0.00351252       0.00895541       0.00637000
Pt       7.07281572       2.48995141      26.91257419        1       0.00000000       0.02844730      -0.01891374       0.01251038
Pt       2.87321829       4.91958061      26.93895793        1       0.00000000       0.01845683      -0.03403373       0.00277438
Pt       5.59746061       4.87439663      26.84004829        1       0.00000000      -0.00099762      -0.02512935       0.02700880
Pt       8.54663908       4.89992766      26.94781091        1       0.00000000       0.00091901      -0.01186697      -0.00512208
O        7.64758304       6.05021995      28.58131633        0       0.50000000       0.02400046       0.00507388       0.04257547
H        8.40185031       6.47607927      29.04732055        0       0.50000000      -0.01452249       0.01061802      -0.02552726
