38
Lattice="8.421641763931781 0.0 0.0 4.2108208819658905 7.293355709136913 0.0 0.0 0.0 46.87624170604845" Properties=species:S:1:pos:R:3:tags:I:1:initial_magmoms:R:1:forces:R:3 charge=0 spin=0 energy=-196.55264994198643 free_energy=-196.55264994198643 stress="0.00905788317322731 0.00035510960151441395 0.00020685092022176832 0.00035510960151441395 0.009494173340499401 -0.0001188412425108254 0.00020685092022176832 -0.0001188412425108254 -0.00030646321829408407" pbc="T T T"
Pt      -0.00000011      -0.00000005      19.95723442        4       0.00000000       0.00325510      -0.00350596       0.00357985
Pt       2.80721395      -0.00000019      19.95723450        4       0.00000000       0.00185790      -0.00065488       0.01545528
Pt       5.61442786      -0.00000007      19.95723452        4       0.00000000       0.00898109      -0.00406706       0.01273860
Pt       1.40360721       2.43111839      19.95723434        4       0.00000000      -0.00781217      -0.01063657      -0.02270609
Pt       4.21082082       2.43111837      19.95723444        4       0.00000000      -0.01387961       0.00699720       0.03379830
Pt       7.01803481       2.43111844      19.95723433        4       0.00000000       0.00932271      -0.00777482       0.01696140
Pt       2.80721415       4.86223733      19.95723415        4       0.00000000       0.00850421       0.00972452      -0.02252019
Pt       5.61442796       4.86223739      19.95723433        4       0.00000000      -0.00054491      -0.00239714       0.01233811
Pt       8.42164143       4.86223725      19.95723439        4       0.00000000       0.01555108      -0.00428440       0.01725532
Pt       1.40360728       0.81037261      22.29206792        3       0.00000000       0.01024176      -0.00215568      -0.07247248
Pt       4.21082128       0.81037249      22.29206789        3       0.00000000       0.02198250      -0.02655632      -0.04763758
Pt       7.01803472       0.81037258      22.29206780        3       0.00000000       0.01957107      -0.01405652      -0.07569048
Pt       2.80721447       3.24149123      22.29206774        3       0.00000000      -0.01330417       0.00388616       0.05299703
Pt       5.61442762       3.24149120      22.29206786        3       0.00000000       0.03098194      -0.00723524      -0.04685761
Pt       8.42164156       3.24149131      22.29206806        3       0.00000000       0.03322949      -0.02461461      -0.09431542
Pt       4.21082090       5.67260998      22.29206740        3       0.00000000       0.00283471      -0.01732395      -0.07821022
Pt       7.01803486       5.67261041      22.29206774        3       0.00000000       0.02096440      -0.01887307      -0.03709744
Pt       9.82524817       5.67261060      22.29206803        3       0.00000000       0.03734327      -0.02443306      -0.08864316
Pt      -0.00000054       1.62074568      24.58417374        2       0.00000000      -0.02503506       0.12568592      -0.12732770
Pt       2.80721436       1.62074546      24.58417392        2       0.00000000      -0.05522782      -0.27903190       0.49332696
Pt       5.61442782       1.62074536      24.58417379        2       0.00000000      -0.01409512       0.02178678      -0.02401468
Pt       1.40360636       4.05186439      24.58417387        2       0.00000000       0.07524046      -0.02250605      -0.23788480
Pt       4.21082089       4.05186396      24.58417387        2       0.00000000       0.22951320       0.18536694       0.50083059
Pt       7.01803504       4.05186408      24.58417404        2       0.00000000      -0.13881950       0.03416556      -0.03642782
Pt       2.80721273       6.48298349      24.58417384        2       0.00000000      -0.11579472      -0.03533511      -0.12095010
Pt       5.61442806       6.48298330      24.58417399        2       0.00000000      -0.02822591       0.02379950      -0.02603012
Pt       8.42164222       6.48298344      24.58417375        2       0.00000000      -0.09243631       0.12569541      -0.03392458
Pt      -0.13866597       0.08834190      26.88003523        1       0.00000000       0.00365945       0.00387945      -0.00739331
Pt       2.70678649       0.11053373      26.94969233        1       0.00000000      -0.00422741      -0.00002620       0.00631005
Pt       5.53595703       0.05518552      26.91590249        1       0.00000000      -0.00675347      -0.00835005       0.00253931
Pt       1.32447646       2.49580554      26.93844603        1       0.00000000      -0.00952438      -0.02023749       0.00607787
Pt       4.13134723       2.47938425      26.91049057        1       0.00000000       0.02766803       0.00027975       0.00463922
Pt       6.94290874       2.48756997      26.91486062        1       0.00000000      -0.01232652      -0.01329249       0.00089533
Pt       2.72608539       4.91500431      26.94108999        1       0.00000000      -0.03532465      -0.00409036       0.00006495
Pt       5.47310558       4.90012270      26.94458471        1       0.00000000       0.01141493      -0.00563893       0.01408363
Pt       8.42035527       4.87378399      26.84385100        1       0.00000000       0.01964102      -0.00522837       0.00806040
O        6.36826078       6.03591393      28.58112091        0       0.50000000       0.01049883       0.00125053       0.00187544
H        5.61882963       6.46543226      29.04919661        0       0.50000000      -0.02892580       0.01978862      -0.00372380
