38
Lattice="8.421641763931781 0.0 0.0 4.2108208819658905 7.293355709136913 0.0 0.0 0.0 46.87624170604845" Properties=species:S:1:pos:R:3:tags:I:1:initial_magmoms:R:1:forces:R:3 charge=0 spin=0 energy=-196.54989763790928 free_energy=-196.54989763790928 stress="0.009120178408920765 -0.0004091742157470435 -0.00020422739908099174 -0.0004091742157470435 0.009479335509240627 -7.704499148530886e-05 -0.00020422739908099174 -7.704499148530886e-05 -0.00028672200278379023" pbc="T T T"
Pt      -0.00000011      -0.00000005      19.95723442        4       0.00000000      -0.00811774      -0.00387855       0.01787506
Pt       2.80721395      -0.00000019      19.95723450        4       0.00000000       0.00083926       0.00187546       0.01215904
Pt       5.61442786      -0.00000007      19.95723452        4       0.00000000      -0.00177095      -0.00057217       0.00332495
Pt       1.40360721       2.43111839      19.95723434        4       0.00000000       0.01478954       0.00885245       0.03265784
Pt       4.21082082       2.43111837      19.95723444        4       0.00000000       0.00428033      -0.01101390      -0.02058054
Pt       7.01803481       2.43111844      19.95723433        4       0.00000000      -0.00446191      -0.00520285       0.01396022
Pt       2.80721415       4.86223733      19.95723415        4       0.00000000      -0.00359885       0.01224245      -0.02197577
Pt       5.61442796       4.86223739      19.95723433        4       0.00000000      -0.00848194      -0.01014809       0.01760608
Pt       8.42164143       4.86223725      19.95723439        4       0.00000000       0.00096242      -0.00071474       0.01462462
Pt       1.40360728       0.81037261      22.29206792        3       0.00000000      -0.00965877      -0.02205024      -0.04743053
Pt       4.21082128       0.81037249      22.29206789        3       0.00000000      -0.00586203       0.00560561      -0.07789687
Pt       7.01803472       0.81037258      22.29206780        3       0.00000000      -0.01119963      -0.01025287      -0.07378259
Pt       2.80721447       3.24149123      22.29206774        3       0.00000000       0.01689246       0.01145206       0.05013529
Pt       5.61442762       3.24149120      22.29206786        3       0.00000000      -0.03131010      -0.02053795      -0.08722294
Pt       8.42164156       3.24149131      22.29206806        3       0.00000000      -0.02274163      -0.00562891      -0.04802040
Pt       4.21082090       5.67260998      22.29206740        3       0.00000000      -0.02852364      -0.01965953      -0.09226779
Pt       7.01803486       5.67261041      22.29206774        3       0.00000000      -0.01788460      -0.00933093      -0.03264873
Pt       9.82524817       5.67261060      22.29206803        3       0.00000000       0.00213172      -0.00635621      -0.07260377
Pt      -0.00000054       1.62074568      24.58417374        2       0.00000000      -0.00739923       0.00084274      -0.01898074
Pt       2.80721436       1.62074546      24.58417392        2       0.00000000       0.00096099      -0.28536040       0.50706732
Pt       5.61442782       1.62074536      24.58417379        2       0.00000000       0.00215635       0.12804049      -0.14075679
Pt       1.40360636       4.05186439      24.58417387        2       0.00000000      -0.23166586       0.16817078       0.47372329
Pt       4.21082089       4.05186396      24.58417387        2       0.00000000      -0.08490442      -0.04403289      -0.24118306
Pt       7.01803504       4.05186408      24.58417404        2       0.00000000       0.11744444       0.02986210      -0.01185583
Pt       2.80721273       6.48298349      24.58417384        2       0.00000000       0.10127063      -0.03863858      -0.13322106
Pt       5.61442806       6.48298330      24.58417399        2       0.00000000       0.07452727       0.10257648      -0.00917412
Pt       8.42164222       6.48298344      24.58417375        2       0.00000000       0.00422851       0.01402291      -0.02644780
Pt       0.04730469       0.03314529      26.91417313        1       0.00000000      -0.00420751       0.01904335      -0.00310796
Pt       2.87219348       0.09222294      26.95134321        1       0.00000000       0.01416961       0.01857761      -0.00148543
Pt       5.71845997       0.07162082      26.87183925        1       0.00000000       0.03237930       0.00912997       0.00241760
Pt       1.43834434       2.46595760      26.90970361        1       0.00000000       0.03051259      -0.01169071      -0.00231066
Pt       4.25664083       2.47674256      26.93597169        1       0.00000000      -0.00495244       0.00420630       0.00550416
Pt       7.05888231       2.47623708      26.91533540        1       0.00000000       0.02181730      -0.03177764       0.00092023
Pt       2.85569552       4.90012454      26.93688979        1       0.00000000       0.02787700      -0.01095769       0.00379144
Pt       5.58532596       4.85680676      26.84928998        1       0.00000000       0.00550297       0.00291223      -0.00361853
Pt       8.52215578       4.88631081      26.95018011        1       0.00000000       0.01638313       0.02072617       0.01183811
O        7.65136309       6.06764719      28.59610140        0       0.50000000      -0.00035100      -0.02077787      -0.03602289
H        8.42645029       6.50727149      29.01164623        0       0.50000000      -0.00203339       0.01044340       0.03498962
