38
Lattice="8.421641763931781 0.0 0.0 4.2108208819658905 7.293355709136913 0.0 0.0 0.0 46.87624170604845" Properties=species:S:1:pos:R:3:tags:I:1:initial_magmoms:R:1:forces:R:3 charge=0 spin=0 energy=-196.55273386532627 free_energy=-196.55273386532627 stress="0.0090605728328228 0.000354799791239202 0.0002068908652290702 0.000354799791239202 0.009494533762335777 -0.00011891472968272865 0.0002068908652290702 -0.00011891472968272865 -0.0003054735716432333" pbc="T T T"
Pt      -0.00000011      -0.00000005      19.95723442        4       0.00000000       0.00324305      -0.00352541       0.00357064
Pt       2.80721395      -0.00000019      19.95723450        4       0.00000000       0.00190366      -0.00062895       0.01545925
Pt       5.61442786      -0.00000007      19.95723452        4       0.00000000       0.00905043      -0.00405925       0.01271538
Pt       1.40360721       2.43111839      19.95723434        4       0.00000000      -0.00778995      -0.01064156      -0.02269097
Pt       4.21082082       2.43111837      19.95723444        4       0.00000000      -0.01387908       0.00696198       0.03382682
Pt       7.01803481       2.43111844      19.95723433        4       0.00000000       0.00936377      -0.00778491       0.01695754
Pt       2.80721415       4.86223733      19.95723415        4       0.00000000       0.00852436       0.00974103      -0.02254076
Pt       5.61442796       4.86223739      19.95723433        4       0.00000000      -0.00050300      -0.00239254       0.01234297
Pt       8.42164143       4.86223725      19.95723439        4       0.00000000       0.01556051      -0.00429013       0.01725356
Pt       1.40360728       0.81037261      22.29206792        3       0.00000000       0.01035536      -0.00220786      -0.07259847
Pt       4.21082128       0.81037249      22.29206789        3       0.00000000       0.02208782      -0.02656819      -0.04760148
Pt       7.01803472       0.81037258      22.29206780        3       0.00000000       0.01970368      -0.01411647      -0.07551778
Pt       2.80721447       3.24149123      22.29206774        3       0.00000000      -0.01319018       0.00387399       0.05304237
Pt       5.61442762       3.24149120      22.29206786        3       0.00000000       0.03104297      -0.00723250      -0.04701035
Pt       8.42164156       3.24149131      22.29206806        3       0.00000000       0.03328963      -0.02459637      -0.09423680
Pt       4.21082090       5.67260998      22.29206740        3       0.00000000       0.00292469      -0.01742004      -0.07827173
Pt       7.01803486       5.67261041      22.29206774        3       0.00000000       0.02105272      -0.01882955      -0.03718249
Pt       9.82524817       5.67261060      22.29206803        3       0.00000000       0.03742068      -0.02443737      -0.08874746
Pt      -0.00000054       1.62074568      24.58417374        2       0.00000000      -0.02545153       0.12608360      -0.12804194
Pt       2.80721436       1.62074546      24.58417392        2       0.00000000      -0.05537932      -0.27845713       0.49427104
Pt       5.61442782       1.62074536      24.58417379        2       0.00000000      -0.01446987       0.02163932      -0.02424138
Pt       1.40360636       4.05186439      24.58417387        2       0.00000000       0.07459018      -0.02260382      -0.23718682
Pt       4.21082089       4.05186396      24.58417387        2       0.00000000       0.22897820       0.18548186       0.50072420
Pt       7.01803504       4.05186408      24.58417404        2       0.00000000      -0.13817377       0.03385931      -0.03490021
Pt       2.80721273       6.48298349      24.58417384        2       0.00000000      -0.11627379      -0.03520290      -0.12130587
Pt       5.61442806       6.48298330      24.58417399        2       0.00000000      -0.02820527       0.02379623      -0.02609431
Pt       8.42164222       6.48298344      24.58417375        2       0.00000000      -0.09283347       0.12545778      -0.03388720
Pt      -0.13893157       0.08843144      26.87993866        1       0.00000000       0.00315606       0.00281552      -0.00655614
Pt       2.70619974       0.11118369      26.94970179        1       0.00000000      -0.00274631      -0.00208479       0.00633554
Pt       5.53525634       0.05526990      26.91602842        1       0.00000000      -0.00586427      -0.00825647       0.00263820
Pt       1.32353129       2.49576201      26.93852004        1       0.00000000      -0.00714527      -0.01827449       0.00583896
Pt       4.13135929       2.47985594      26.91063456        1       0.00000000       0.02486937      -0.00095927       0.00401010
Pt       6.94231126       2.48690508      26.91507909        1       0.00000000      -0.01149394      -0.00901765       0.00027742
Pt       2.72544919       4.91536469      26.94102898        1       0.00000000      -0.03326897      -0.00574170       0.00032279
Pt       5.47284472       4.90014607      26.94447791        1       0.00000000       0.01241611      -0.00502886       0.01449445
Pt       8.42029318       4.87413128      26.84417819        1       0.00000000       0.01720816      -0.00710610       0.00633891
O        6.36818466       6.03615455      28.58110560        0       0.50000000       0.00395807       0.00408118       0.00178053
H        5.61771765       6.46567769      29.04778855        0       0.50000000      -0.02403146       0.01767236      -0.00358826
