38
Lattice="8.421641763931781 0.0 0.0 4.2108208819658905 7.293355709136913 0.0 0.0 0.0 46.87624170604845" Properties=species:S:1:pos:R:3:tags:I:1:initial_magmoms:R:1:forces:R:3 charge=0 spin=0 energy=-196.55286165768467 free_energy=-196.55286165768467 stress="0.009079581126570702 -0.00036936328979209065 -0.0002055985969491303 -0.00036936328979209065 0.009465780109167099 -0.00011390200234018266 -0.0002055985969491303 -0.00011390200234018266 -0.0003250148147344589" pbc="T T T"
Pt      -0.00000011      -0.00000005      19.95723442        4       0.00000000      -0.00540687       0.01216611      -0.02286041
Pt       2.80721395      -0.00000019      19.95723450        4       0.00000000      -0.01156093      -0.01133302       0.01721441
Pt       5.61442786      -0.00000007      19.95723452        4       0.00000000      -0.00155278      -0.00131280       0.01526187
Pt       1.40360721       2.43111839      19.95723434        4       0.00000000      -0.01151519      -0.00422073       0.01706310
Pt       4.21082082       2.43111837      19.95723444        4       0.00000000      -0.00191071       0.00163265       0.01240843
Pt       7.01803481       2.43111844      19.95723433        4       0.00000000      -0.00461256      -0.00108971       0.00353667
Pt       2.80721415       4.86223733      19.95723415        4       0.00000000       0.01283797       0.00840436       0.03374573
Pt       5.61442796       4.86223739      19.95723433        4       0.00000000       0.00411661      -0.01228138      -0.02244243
Pt       8.42164143       4.86223725      19.95723439        4       0.00000000      -0.00794442      -0.00578793       0.01266235
Pt       1.40360728       0.81037261      22.29206792        3       0.00000000      -0.03815470      -0.01681444      -0.09432940
Pt       4.21082128       0.81037249      22.29206789        3       0.00000000      -0.02704048      -0.00870951      -0.03777238
Pt       7.01803472       0.81037258      22.29206780        3       0.00000000      -0.00733927      -0.00797641      -0.07276237
Pt       2.80721447       3.24149123      22.29206774        3       0.00000000      -0.02172653      -0.02340132      -0.04621401
Pt       5.61442762       3.24149120      22.29206786        3       0.00000000      -0.01645255       0.00599297      -0.07810039
Pt       8.42164156       3.24149131      22.29206806        3       0.00000000      -0.02211068      -0.01002062      -0.07530300
Pt       4.21082090       5.67260998      22.29206740        3       0.00000000       0.00971716       0.00966360       0.05251346
Pt       7.01803486       5.67261041      22.29206774        3       0.00000000      -0.03995696      -0.02014429      -0.08853289
Pt       9.82524817       5.67261060      22.29206803        3       0.00000000      -0.03423978      -0.00559444      -0.04721766
Pt      -0.00000054       1.62074568      24.58417374        2       0.00000000       0.12361590      -0.04190375      -0.13014217
Pt       2.80721436       1.62074546      24.58417392        2       0.00000000       0.09948010       0.10784915      -0.04105959
Pt       5.61442782       1.62074536      24.58417379        2       0.00000000       0.03531791       0.01362381      -0.02951736
Pt       1.40360636       4.05186439      24.58417387        2       0.00000000       0.02595581       0.00143018      -0.02518007
Pt       4.21082089       4.05186396      24.58417387        2       0.00000000       0.04594339      -0.28985825       0.50209355
Pt       7.01803504       4.05186408      24.58417404        2       0.00000000       0.02770331       0.11955103      -0.12186099
Pt       2.80721273       6.48298349      24.58417384        2       0.00000000      -0.21245204       0.18628706       0.49131736
Pt       5.61442806       6.48298330      24.58417399        2       0.00000000      -0.06050590      -0.05535325      -0.23905586
Pt       8.42164222       6.48298344      24.58417375        2       0.00000000       0.15800132       0.01450014      -0.03889919
Pt       0.09528305       0.03728637      26.93874628        1       0.00000000      -0.00863390       0.01343056       0.00406364
Pt       2.81910993      -0.00355300      26.84113438        1       0.00000000      -0.01666177      -0.01630085       0.02351595
Pt       5.75914343       0.03255417      26.94885827        1       0.00000000       0.00703948       0.00340879       0.01055061
Pt       1.49142379       2.46853797      26.91499974        1       0.00000000      -0.00778163       0.01637093       0.00178948
Pt       4.31605235       2.53542970      26.94435326        1       0.00000000      -0.01506848      -0.00588108       0.01484100
Pt       7.16519144       2.50708612      26.87931402        1       0.00000000       0.00178971      -0.00124204      -0.00485475
Pt       2.88779183       4.90720465      26.91045771        1       0.00000000      -0.00452611      -0.02207841       0.00435981
Pt       5.70187519       4.90668807      26.94140748        1       0.00000000       0.01090982       0.03523521      -0.00234115
Pt       8.50973187       4.90257397      26.91640765        1       0.00000000      -0.00733432       0.01107846       0.00200392
O        4.85547760       1.19635519      28.58211244        0       0.50000000      -0.01451389      -0.01703327      -0.00705522
H        5.60562685       1.63181696      29.04313238        0       0.50000000       0.03657408       0.01771236       0.00656025
