38
Lattice="8.421641763931781 0.0 0.0 4.2108208819658905 7.293355709136913 0.0 0.0 0.0 46.87624170604845" Properties=species:S:1:pos:R:3:tags:I:1:initial_magmoms:R:1:forces:R:3 charge=0 spin=0 energy=-196.5499109893497 free_energy=-196.5499109893497 stress="0.00912039540708065 -0.0004091394948773086 -0.00020400516223162413 -0.0004091394948773086 0.009479114785790443 -7.696587272221223e-05 -0.00020400516223162413 -7.696587272221223e-05 -0.0002866739814635366" pbc="T T T"
Pt      -0.00000011      -0.00000005      19.95723442        4       0.00000000      -0.00359908       0.01224919      -0.02198703
Pt       2.80721395      -0.00000019      19.95723450        4       0.00000000      -0.00848472      -0.01013759       0.01759732
Pt       5.61442786      -0.00000007      19.95723452        4       0.00000000       0.00095454      -0.00070414       0.01462721
Pt       1.40360721       2.43111839      19.95723434        4       0.00000000      -0.00812549      -0.00388249       0.01788428
Pt       4.21082082       2.43111837      19.95723444        4       0.00000000       0.00084222       0.00187182       0.01216235
Pt       7.01803481       2.43111844      19.95723433        4       0.00000000      -0.00177191      -0.00057419       0.00333411
Pt       2.80721415       4.86223733      19.95723415        4       0.00000000       0.01479134       0.00884765       0.03265555
Pt       5.61442796       4.86223739      19.95723433        4       0.00000000       0.00427774      -0.01102053      -0.02057433
Pt       8.42164143       4.86223725      19.95723439        4       0.00000000      -0.00445881      -0.00520772       0.01395109
Pt       1.40360728       0.81037261      22.29206792        3       0.00000000      -0.02854069      -0.01965619      -0.09228791
Pt       4.21082128       0.81037249      22.29206789        3       0.00000000      -0.01789292      -0.00930922      -0.03262608
Pt       7.01803472       0.81037258      22.29206780        3       0.00000000       0.00211819      -0.00634875      -0.07261086
Pt       2.80721447       3.24149123      22.29206774        3       0.00000000      -0.00967607      -0.02204937      -0.04745805
Pt       5.61442762       3.24149120      22.29206786        3       0.00000000      -0.00586626       0.00560472      -0.07790770
Pt       8.42164156       3.24149131      22.29206806        3       0.00000000      -0.01120290      -0.01025792      -0.07376480
Pt       4.21082090       5.67260998      22.29206740        3       0.00000000       0.01690446       0.01144313       0.05014411
Pt       7.01803486       5.67261041      22.29206774        3       0.00000000      -0.03132737      -0.02054462      -0.08722433
Pt       9.82524817       5.67261060      22.29206803        3       0.00000000      -0.02273773      -0.00563496      -0.04801680
Pt      -0.00000054       1.62074568      24.58417374        2       0.00000000       0.10132646      -0.03860119      -0.13335195
Pt       2.80721436       1.62074546      24.58417392        2       0.00000000       0.07466199       0.10258152      -0.00913926
Pt       5.61442782       1.62074536      24.58417379        2       0.00000000       0.00417596       0.01398835      -0.02640394
Pt       1.40360636       4.05186439      24.58417387        2       0.00000000      -0.00740865       0.00080740      -0.01893865
Pt       4.21082089       4.05186396      24.58417387        2       0.00000000       0.00100767      -0.28536877       0.50719094
Pt       7.01803504       4.05186408      24.58417404        2       0.00000000       0.00221318       0.12800485      -0.14082313
Pt       2.80721273       6.48298349      24.58417384        2       0.00000000      -0.23173334       0.16820186       0.47376642
Pt       5.61442806       6.48298330      24.58417399        2       0.00000000      -0.08492851      -0.04402827      -0.24132234
Pt       8.42164222       6.48298344      24.58417375        2       0.00000000       0.11749633       0.02985387      -0.01176538
Pt       0.04847729       0.03790826      26.93685682        1       0.00000000       0.02789620      -0.01110479       0.00392145
Pt       2.77809994      -0.00544967      26.84929304        1       0.00000000       0.00579373       0.00308719      -0.00358528
Pt       5.71491700       0.02407832      26.95023603        1       0.00000000       0.01659046       0.02065409       0.01158218
Pt       1.45101116       2.46420805      26.91417153        1       0.00000000      -0.00440741       0.01930294      -0.00311632
Pt       4.27590582       2.52346459      26.95139113        1       0.00000000       0.01389199       0.01840296      -0.00171770
Pt       7.12209575       2.50269158      26.87180749        1       0.00000000       0.03241707       0.00930762       0.00258007
Pt       2.84193018       4.89709677      26.90969092        1       0.00000000       0.03067952      -0.01174823      -0.00231009
Pt       5.66035920       4.90790789      26.93595598        1       0.00000000      -0.00535151       0.00401766       0.00560497
Pt       8.46248931       4.90731963      26.91535764        1       0.00000000       0.02201682      -0.03169240       0.00083490
O        4.84416438       1.20540299      28.59606157        0       0.50000000       0.00018401      -0.02027335      -0.03513635
H        5.61915966       1.64501443      29.01184406        0       0.50000000      -0.00272660       0.00991762       0.03423131
