38
Lattice="8.421641763931781 0.0 0.0 4.2108208819658905 7.293355709136913 0.0 0.0 0.0 46.87624170604845" Properties=species:S:1:pos:R:3:tags:I:1:initial_magmoms:R:1:forces:R:3 charge=0 spin=0 energy=-196.54989954525792 free_energy=-196.54989954525792 stress="0.009120221249759197 -0.00040916603757068515 -0.00020419011707417667 -0.00040916603757068515 0.009479297325015068 -7.703518349444494e-05 -0.00020419011707417667 -7.703518349444494e-05 -0.0002867132134269923" pbc="T T T"
Pt      -0.00000011      -0.00000005      19.95723442        4       0.00000000      -0.00359814       0.01225039      -0.02198590
Pt       2.80721395      -0.00000019      19.95723450        4       0.00000000      -0.00848353      -0.01013948       0.01759889
Pt       5.61442786      -0.00000007      19.95723452        4       0.00000000       0.00095925      -0.00070626       0.01462490
Pt       1.40360721       2.43111839      19.95723434        4       0.00000000      -0.00811888      -0.00388077       0.01788710
Pt       4.21082082       2.43111837      19.95723444        4       0.00000000       0.00084266       0.00187324       0.01216061
Pt       7.01803481       2.43111844      19.95723433        4       0.00000000      -0.00177217      -0.00057521       0.00333434
Pt       2.80721415       4.86223733      19.95723415        4       0.00000000       0.01478833       0.00884640       0.03265528
Pt       5.61442796       4.86223739      19.95723433        4       0.00000000       0.00427815      -0.01102026      -0.02057458
Pt       8.42164143       4.86223725      19.95723439        4       0.00000000      -0.00445905      -0.00520783       0.01395092
Pt       1.40360728       0.81037261      22.29206792        3       0.00000000      -0.02852849      -0.01965684      -0.09228395
Pt       4.21082128       0.81037249      22.29206789        3       0.00000000      -0.01788235      -0.00931866      -0.03264667
Pt       7.01803472       0.81037258      22.29206780        3       0.00000000       0.00212242      -0.00634440      -0.07260612
Pt       2.80721447       3.24149123      22.29206774        3       0.00000000      -0.00966751      -0.02205061      -0.04743676
Pt       5.61442762       3.24149120      22.29206786        3       0.00000000      -0.00585908       0.00560262      -0.07790177
Pt       8.42164156       3.24149131      22.29206806        3       0.00000000      -0.01119806      -0.01025684      -0.07378096
Pt       4.21082090       5.67260998      22.29206740        3       0.00000000       0.01690074       0.01144811       0.05015213
Pt       7.01803486       5.67261041      22.29206774        3       0.00000000      -0.03132192      -0.02054458      -0.08721807
Pt       9.82524817       5.67261060      22.29206803        3       0.00000000      -0.02273742      -0.00563761      -0.04801707
Pt      -0.00000054       1.62074568      24.58417374        2       0.00000000       0.10127383      -0.03862612      -0.13324250
Pt       2.80721436       1.62074546      24.58417392        2       0.00000000       0.07455327       0.10258330      -0.00916312
Pt       5.61442782       1.62074536      24.58417379        2       0.00000000       0.00422443       0.01402493      -0.02644390
Pt       1.40360636       4.05186439      24.58417387        2       0.00000000      -0.00739897       0.00083593      -0.01897225
Pt       4.21082089       4.05186396      24.58417387        2       0.00000000       0.00097231      -0.28535920       0.50708205
Pt       7.01803504       4.05186408      24.58417404        2       0.00000000       0.00216720       0.12803555      -0.14077438
Pt       2.80721273       6.48298349      24.58417384        2       0.00000000      -0.23166832       0.16817027       0.47373068
Pt       5.61442806       6.48298330      24.58417399        2       0.00000000      -0.08490951      -0.04403955      -0.24120469
Pt       8.42164222       6.48298344      24.58417375        2       0.00000000       0.11744823       0.02985341      -0.01183545
Pt       0.04848366       0.03789097      26.93688452        1       0.00000000       0.02787918      -0.01098220       0.00381231
Pt       2.77811310      -0.00543313      26.84929258        1       0.00000000       0.00554627       0.00294121      -0.00361859
Pt       5.71494122       0.02407427      26.95019035        1       0.00000000       0.01640977       0.02071411       0.01179757
Pt       1.45092942       2.46425495      26.91417386        1       0.00000000      -0.00423941       0.01908789      -0.00310979
Pt       4.27581951       2.52336293      26.95135196        1       0.00000000       0.01412114       0.01854089      -0.00151957
Pt       7.12207273       2.50273188      26.87183160        1       0.00000000       0.03238850       0.00915747       0.00245270
Pt       2.84194974       4.89707971      26.90970163        1       0.00000000       0.03053764      -0.01170011      -0.00231180
Pt       5.66026770       4.90786900      26.93596878        1       0.00000000      -0.00501738       0.00417987       0.00552306
Pt       8.46249002       4.90735034      26.91533986        1       0.00000000       0.02185418      -0.03176530       0.00089934
O        4.84415523       1.20540823      28.59609611        0       0.50000000      -0.00024116      -0.02068232      -0.03588052
H        5.61923176       1.64503146      29.01167305        0       0.50000000      -0.00216609       0.01034875       0.03486682
