38
Lattice="8.421641763931781 0.0 0.0 4.2108208819658905 7.293355709136913 0.0 0.0 0.0 46.87624170604845" Properties=species:S:1:pos:R:3:tags:I:1:initial_magmoms:R:1:forces:R:3 charge=0 spin=0 energy=-196.5526480346378 free_energy=-196.5526480346378 stress="0.009082449600100517 -0.00036801001988351345 -0.0002086787426378578 -0.00036801001988351345 0.009473116137087345 -0.00011737555905710906 -0.0002086787426378578 -0.00011737555905710906 -0.00030344154220074415" pbc="T T T"
Pt      -0.00000011      -0.00000005      19.95723442        4       0.00000000      -0.01139138      -0.00425102       0.01708102
Pt       2.80721395      -0.00000019      19.95723450        4       0.00000000      -0.00181274       0.00166916       0.01250143
Pt       5.61442786      -0.00000007      19.95723452        4       0.00000000      -0.00467837      -0.00110189       0.00357893
Pt       1.40360721       2.43111839      19.95723434        4       0.00000000       0.01298047       0.00847224       0.03382370
Pt       4.21082082       2.43111837      19.95723444        4       0.00000000       0.00420196      -0.01221501      -0.02250827
Pt       7.01803481       2.43111844      19.95723433        4       0.00000000      -0.00800726      -0.00570514       0.01263883
Pt       2.80721415       4.86223733      19.95723415        4       0.00000000      -0.00529329       0.01198238      -0.02266359
Pt       5.61442796       4.86223739      19.95723433        4       0.00000000      -0.01147612      -0.01137228       0.01728950
Pt       8.42164143       4.86223725      19.95723439        4       0.00000000      -0.00150487      -0.00127164       0.01533545
Pt       1.40360728       0.81037261      22.29206792        3       0.00000000      -0.02162245      -0.02314163      -0.04663749
Pt       4.21082128       0.81037249      22.29206789        3       0.00000000      -0.01628220       0.00605802      -0.07803101
Pt       7.01803472       0.81037258      22.29206780        3       0.00000000      -0.02195796      -0.00996490      -0.07571594
Pt       2.80721447       3.24149123      22.29206774        3       0.00000000       0.01001165       0.00932018       0.05248630
Pt       5.61442762       3.24149120      22.29206786        3       0.00000000      -0.03986143      -0.02024176      -0.08852133
Pt       8.42164156       3.24149131      22.29206806        3       0.00000000      -0.03396933      -0.00575328      -0.04781513
Pt       4.21082090       5.67260998      22.29206740        3       0.00000000      -0.03801830      -0.01667839      -0.09445108
Pt       7.01803486       5.67261041      22.29206774        3       0.00000000      -0.02674395      -0.00873180      -0.03687702
Pt       9.82524817       5.67261060      22.29206803        3       0.00000000      -0.00719359      -0.00799770      -0.07268634
Pt      -0.00000054       1.62074568      24.58417374        2       0.00000000       0.02615366       0.00191678      -0.02475567
Pt       2.80721436       1.62074546      24.58417392        2       0.00000000       0.04617231      -0.29213816       0.50029963
Pt       5.61442782       1.62074536      24.58417379        2       0.00000000       0.02743022       0.11734339      -0.12014866
Pt       1.40360636       4.05186439      24.58417387        2       0.00000000      -0.21507405       0.18836856       0.49306336
Pt       4.21082089       4.05186396      24.58417387        2       0.00000000      -0.05572674      -0.05337818      -0.23790078
Pt       7.01803504       4.05186408      24.58417404        2       0.00000000       0.15392743       0.01831741      -0.03201539
Pt       2.80721273       6.48298349      24.58417384        2       0.00000000       0.12009406      -0.04019607      -0.12636727
Pt       5.61442806       6.48298330      24.58417399        2       0.00000000       0.09973621       0.10283392      -0.03603175
Pt       8.42164222       6.48298344      24.58417375        2       0.00000000       0.03448016       0.01269341      -0.02272130
Pt       0.08672827       0.03729918      26.91460970        1       0.00000000      -0.00648699       0.01660527       0.00224136
Pt       2.91038666       0.10448409      26.94538355        1       0.00000000      -0.00790538      -0.01101312       0.01109705
Pt       5.76049711       0.07635533      26.88068311        1       0.00000000      -0.00010064      -0.00653567      -0.01068679
Pt       1.48563721       2.47642960      26.91028013        1       0.00000000      -0.01576290      -0.02518382       0.00591345
Pt       4.29693977       2.47560192      26.94082812        1       0.00000000       0.01695484       0.03152363       0.00111878
Pt       7.10530348       2.47148812      26.91584377        1       0.00000000      -0.00555174       0.01174739       0.00269828
Pt       2.90303093       4.89859970      26.93803744        1       0.00000000      -0.01503153       0.02051464       0.00767002
Pt       5.62494341       4.85841318      26.84456500        1       0.00000000      -0.01258531      -0.01719309       0.00417726
Pt       8.56729083       4.89344371      26.95036296        1       0.00000000       0.00408494       0.00782565       0.00288345
O        7.65765248       6.05325798      28.58092108        0       0.50000000      -0.00265939      -0.00666009       0.00385504
H        8.40448549       6.48794655      29.04847754        0       0.50000000       0.03047037       0.01353255      -0.00321818
