38
Lattice="8.421641763931781 0.0 0.0 4.2108208819658905 7.293355709136913 0.0 0.0 0.0 46.87624170604845" Properties=species:S:1:pos:R:3:tags:I:1:initial_magmoms:R:1:forces:R:3 charge=0 spin=0 energy=-194.61144396359288 free_energy=-194.61144396359288 stress="0.009887179359793663 0.00015180498303379864 -5.509679340320872e-06 0.00015180498303379864 0.009726324118673801 -4.515231921686791e-06 -5.509679340320872e-06 -4.515231921686791e-06 -0.00012573569256346673" pbc="T T T"
Pt      -0.00000011      -0.00000005      19.95723442        4       0.00000000       0.00233184      -0.00464590      -0.00284459
Pt       2.80721395      -0.00000019      19.95723450        4       0.00000000      -0.00365085      -0.00384916       0.01148714
Pt       5.61442786      -0.00000007      19.95723452        4       0.00000000       0.00283835      -0.00099779       0.01179070
Pt       1.40360721       2.43111839      19.95723434        4       0.00000000      -0.00114528       0.00044074       0.01304102
Pt       4.21082082       2.43111837      19.95723444        4       0.00000000      -0.00162420       0.00316846       0.01058468
Pt       7.01803481       2.43111844      19.95723433        4       0.00000000       0.00133852       0.00123449       0.01233813
Pt       2.80721415       4.86223733      19.95723415        4       0.00000000       0.00238488       0.00152692       0.00959454
Pt       5.61442796       4.86223739      19.95723433        4       0.00000000      -0.00334675       0.00405922      -0.00272713
Pt       8.42164143       4.86223725      19.95723439        4       0.00000000       0.00027491      -0.00092473       0.01413433
Pt       1.40360728       0.81037261      22.29206792        3       0.00000000      -0.00239093       0.00445844      -0.02404245
Pt       4.21082128       0.81037249      22.29206789        3       0.00000000       0.00317262       0.00414193      -0.03433896
Pt       7.01803472       0.81037258      22.29206780        3       0.00000000      -0.00077360       0.00780573      -0.04154196
Pt       2.80721447       3.24149123      22.29206774        3       0.00000000      -0.00397864      -0.00988789      -0.03961652
Pt       5.61442762       3.24149120      22.29206786        3       0.00000000       0.00547596      -0.00547890      -0.04187881
Pt       8.42164156       3.24149131      22.29206806        3       0.00000000       0.00124964       0.00239007      -0.04192197
Pt       4.21082090       5.67260998      22.29206740        3       0.00000000      -0.00168156      -0.00048069       0.02730815
Pt       7.01803486       5.67261041      22.29206774        3       0.00000000       0.00102596      -0.00602637      -0.02138031
Pt       9.82524817       5.67261060      22.29206803        3       0.00000000      -0.00833160      -0.00045967      -0.04074418
Pt      -0.00000054       1.62074568      24.58417374        2       0.00000000      -0.01703349       0.00617155       0.02525080
Pt       2.80721436       1.62074546      24.58417392        2       0.00000000      -0.01102533      -0.01626193       0.02430042
Pt       5.61442782       1.62074536      24.58417379        2       0.00000000      -0.00107520      -0.00132444       0.04329491
Pt       1.40360636       4.05186439      24.58417387        2       0.00000000       0.00026451      -0.00282620       0.01506699
Pt       4.21082089       4.05186396      24.58417387        2       0.00000000      -0.00021721       0.01923981      -0.02340396
Pt       7.01803504       4.05186408      24.58417404        2       0.00000000      -0.00393475      -0.01237575       0.02463119
Pt       2.80721273       6.48298349      24.58417384        2       0.00000000       0.02286405      -0.00323340      -0.02082820
Pt       5.61442806       6.48298330      24.58417399        2       0.00000000       0.02196271       0.01117659       0.02695030
Pt       8.42164222       6.48298344      24.58417375        2       0.00000000      -0.01091185      -0.00105966       0.01967608
Pt       0.00707489      -0.00094708      26.91578326        1       0.00000000       0.01611684       0.01265316       0.00858350
Pt       2.79817918      -0.00484946      26.92069090        1       0.00000000       0.03948463       0.02482538       0.00048592
Pt       5.63734595      -0.04200153      26.90584542        1       0.00000000      -0.00198728       0.00071936      -0.00344450
Pt       1.39635487       2.43300412      26.91479677        1       0.00000000      -0.01740340      -0.01448277       0.00188606
Pt       4.18732658       2.47302822      26.90615978        1       0.00000000       0.00273543      -0.00065577      -0.00099892
Pt       7.02685785       2.43619804      26.92027533        1       0.00000000      -0.04107127      -0.02519997      -0.00648997
Pt       2.80658838       4.86167207      26.91716473        1       0.00000000       0.00131821       0.00039334       0.02314237
Pt       5.61698276       4.86774782      26.91671330        1       0.00000000       0.02074709       0.00749166       0.01043871
Pt       8.42005556       4.85591042      26.91592571        1       0.00000000      -0.02110457      -0.00644148       0.00426884
O        4.91045725       1.21455375      29.43507545        0       0.50000000      -0.02606559      -0.01181382       0.00946986
H        4.91575882       1.21720225      28.44130832        0       0.50000000       0.03316703       0.01652943      -0.00152247
