38
Lattice="8.421641763931781 0.0 0.0 4.2108208819658905 7.293355709136913 0.0 0.0 0.0 46.87624170604845" Properties=species:S:1:pos:R:3:tags:I:1:initial_magmoms:R:1:forces:R:3 charge=0 spin=0 energy=-196.5526537566837 free_energy=-196.5526537566837 stress="0.009054104797542095 0.00035546498838812113 0.00020715380378533155 0.00035546498838812113 0.009492754004895687 -0.00011867823923239484 0.00020715380378533155 -0.00011867823923239484 -0.00030878366669639945" pbc="T T T"
Pt      -0.00000011      -0.00000005      19.95723442        4       0.00000000       0.00318084      -0.00352584       0.00357760
Pt       2.80721395      -0.00000019      19.95723450        4       0.00000000       0.00187099      -0.00059626       0.01542479
Pt       5.61442786      -0.00000007      19.95723452        4       0.00000000       0.00902719      -0.00405137       0.01272450
Pt       1.40360721       2.43111839      19.95723434        4       0.00000000      -0.00785895      -0.01067379      -0.02280791
Pt       4.21082082       2.43111837      19.95723444        4       0.00000000      -0.01394786       0.00696365       0.03383729
Pt       7.01803481       2.43111844      19.95723433        4       0.00000000       0.00936054      -0.00779715       0.01694601
Pt       2.80721415       4.86223733      19.95723415        4       0.00000000       0.00851777       0.00976592      -0.02260375
Pt       5.61442796       4.86223739      19.95723433        4       0.00000000      -0.00054490      -0.00244078       0.01229189
Pt       8.42164143       4.86223725      19.95723439        4       0.00000000       0.01554970      -0.00429773       0.01724565
Pt       1.40360728       0.81037261      22.29206792        3       0.00000000       0.01025000      -0.00224428      -0.07270354
Pt       4.21082128       0.81037249      22.29206789        3       0.00000000       0.02199111      -0.02657078      -0.04772824
Pt       7.01803472       0.81037258      22.29206780        3       0.00000000       0.01954242      -0.01410748      -0.07567539
Pt       2.80721447       3.24149123      22.29206774        3       0.00000000      -0.01324273       0.00382088       0.05379746
Pt       5.61442762       3.24149120      22.29206786        3       0.00000000       0.03103667      -0.00728070      -0.04719869
Pt       8.42164156       3.24149131      22.29206806        3       0.00000000       0.03305464      -0.02469704      -0.09409989
Pt       4.21082090       5.67260998      22.29206740        3       0.00000000       0.00286332      -0.01744080      -0.07833844
Pt       7.01803486       5.67261041      22.29206774        3       0.00000000       0.02099710      -0.01889422      -0.03757165
Pt       9.82524817       5.67261060      22.29206803        3       0.00000000       0.03724576      -0.02428514      -0.08860938
Pt      -0.00000054       1.62074568      24.58417374        2       0.00000000      -0.02531011       0.12734216      -0.12766653
Pt       2.80721436       1.62074546      24.58417392        2       0.00000000      -0.05442516      -0.27670327       0.49387804
Pt       5.61442782       1.62074536      24.58417379        2       0.00000000      -0.01406577       0.02183377      -0.02197702
Pt       1.40360636       4.05186439      24.58417387        2       0.00000000       0.07534444      -0.02312630      -0.23676649
Pt       4.21082089       4.05186396      24.58417387        2       0.00000000       0.22769827       0.18423450       0.50004172
Pt       7.01803504       4.05186408      24.58417404        2       0.00000000      -0.13715744       0.03286000      -0.03456070
Pt       2.80721273       6.48298349      24.58417384        2       0.00000000      -0.11682931      -0.03555125      -0.12108867
Pt       5.61442806       6.48298330      24.58417399        2       0.00000000      -0.02876105       0.02446684      -0.03139436
Pt       8.42164222       6.48298344      24.58417375        2       0.00000000      -0.09087443       0.12557152      -0.03420203
Pt      -0.13810164       0.08825277      26.87951703        1       0.00000000      -0.00004137       0.00513013      -0.00497376
Pt       2.70643939       0.11031261      26.94806024        1       0.00000000      -0.00064150       0.00174858       0.01170304
Pt       5.53613059       0.05531954      26.91644487        1       0.00000000      -0.00772882      -0.00721417       0.00062178
Pt       1.32408845       2.49564122      26.93900357        1       0.00000000      -0.00715284      -0.01839259       0.00412367
Pt       4.13174904       2.47993414      26.91117224        1       0.00000000       0.02502377      -0.00236700       0.00174340
Pt       6.94289073       2.48697626      26.91559982        1       0.00000000      -0.01269138      -0.00942862      -0.00230203
Pt       2.72559244       4.91537296      26.94147097        1       0.00000000      -0.03297061      -0.00653918      -0.00074270
Pt       5.47264510       4.90083661      26.94285110        1       0.00000000       0.01398684      -0.00937100       0.02062067
Pt       8.42099316       4.87404985      26.84410185        1       0.00000000       0.01636747      -0.00738279       0.00663381
O        6.36822047       6.03569899      28.58020633        0       0.50000000       0.01250505       0.00084835      -0.00083021
H        5.61894233       6.46572946      29.04792253        0       0.50000000      -0.03116971       0.02039315      -0.00137006
