38
Lattice="8.421641763931781 0.0 0.0 4.2108208819658905 7.293355709136913 0.0 0.0 0.0 46.87624170604845" Properties=species:S:1:pos:R:3:tags:I:1:initial_magmoms:R:1:forces:R:3 charge=0 spin=0 energy=-196.54989573056065 free_energy=-196.54989573056065 stress="0.009120125323534012 -0.0004091844311915338 -0.00020427170966286212 -0.0004091844311915338 0.00947935227304697 -7.705898315180093e-05 -0.00020427170966286212 -7.705898315180093e-05 -0.00028674356872215867" pbc="T T T"
Pt      -0.00000011      -0.00000005      19.95723442        4       0.00000000      -0.00811648      -0.00387852       0.01787557
Pt       2.80721395      -0.00000019      19.95723450        4       0.00000000       0.00083942       0.00187568       0.01215872
Pt       5.61442786      -0.00000007      19.95723452        4       0.00000000      -0.00177085      -0.00057241       0.00332493
Pt       1.40360721       2.43111839      19.95723434        4       0.00000000       0.01478903       0.00885220       0.03265799
Pt       4.21082082       2.43111837      19.95723444        4       0.00000000       0.00428038      -0.01101393      -0.02058048
Pt       7.01803481       2.43111844      19.95723433        4       0.00000000      -0.00446205      -0.00520323       0.01396037
Pt       2.80721415       4.86223733      19.95723415        4       0.00000000      -0.00359880       0.01224285      -0.02197574
Pt       5.61442796       4.86223739      19.95723433        4       0.00000000      -0.00848153      -0.01014851       0.01760625
Pt       8.42164143       4.86223725      19.95723439        4       0.00000000       0.00096330      -0.00071505       0.01462439
Pt       1.40360728       0.81037261      22.29206792        3       0.00000000      -0.00965743      -0.02205081      -0.04742783
Pt       4.21082128       0.81037249      22.29206789        3       0.00000000      -0.00586148       0.00560506      -0.07789525
Pt       7.01803472       0.81037258      22.29206780        3       0.00000000      -0.01119834      -0.01025338      -0.07378422
Pt       2.80721447       3.24149123      22.29206774        3       0.00000000       0.01689172       0.01145263       0.05013729
Pt       5.61442762       3.24149120      22.29206786        3       0.00000000      -0.03130940      -0.02053861      -0.08722164
Pt       8.42164156       3.24149131      22.29206806        3       0.00000000      -0.02274152      -0.00563042      -0.04801979
Pt       4.21082090       5.67260998      22.29206740        3       0.00000000      -0.02852123      -0.01966020      -0.09226671
Pt       7.01803486       5.67261041      22.29206774        3       0.00000000      -0.01788245      -0.00933396      -0.03265402
Pt       9.82524817       5.67261060      22.29206803        3       0.00000000       0.00213205      -0.00635619      -0.07260346
Pt      -0.00000054       1.62074568      24.58417374        2       0.00000000      -0.00740018       0.00084902      -0.01898671
Pt       2.80721436       1.62074546      24.58417392        2       0.00000000       0.00095667      -0.28535914       0.50704592
Pt       5.61442782       1.62074536      24.58417379        2       0.00000000       0.00214861       0.12804943      -0.14075185
Pt       1.40360636       4.05186439      24.58417387        2       0.00000000      -0.23165348       0.16816820       0.47371307
Pt       4.21082089       4.05186396      24.58417387        2       0.00000000      -0.08490078      -0.04403346      -0.24116583
Pt       7.01803504       4.05186408      24.58417404        2       0.00000000       0.11743464       0.02986306      -0.01186627
Pt       2.80721273       6.48298349      24.58417384        2       0.00000000       0.10126216      -0.03864004      -0.13320352
Pt       5.61442806       6.48298330      24.58417399        2       0.00000000       0.07450591       0.10257896      -0.00917720
Pt       8.42164222       6.48298344      24.58417375        2       0.00000000       0.00423640       0.01403133      -0.02645906
Pt       0.04728858       0.03315684      26.91417439        1       0.00000000      -0.00417007       0.01900005      -0.00311032
Pt       2.87217838       0.09220574      26.95133625        1       0.00000000       0.01420997       0.01860289      -0.00144838
Pt       5.71845550       0.07163023      26.87184339        1       0.00000000       0.03237470       0.00910156       0.00240061
Pt       1.43834837       2.46595565      26.90970471        1       0.00000000       0.03048645      -0.01168192      -0.00230504
Pt       4.25662506       2.47673808      26.93597383        1       0.00000000      -0.00489769       0.00423048       0.00549237
Pt       7.05888169       2.47624378      26.91533233        1       0.00000000       0.02179340      -0.03178269       0.00092725
Pt       2.85569718       4.90012437      26.93689439        1       0.00000000       0.02787301      -0.01094119       0.00377446
Pt       5.58532718       4.85681085      26.84929178        1       0.00000000       0.00546644       0.00288950      -0.00362479
Pt       8.52216326       4.88631231      26.95017107        1       0.00000000       0.01633315       0.02072893       0.01188192
O        7.65135935       6.06764845      28.59610675        0       0.50000000      -0.00047273      -0.02088236      -0.03619369
H        8.42646178       6.50727353      29.01161284        0       0.50000000      -0.00188095       0.01055394       0.03514053
