38
Lattice="8.421641763931781 0.0 0.0 4.2108208819658905 7.293355709136913 0.0 0.0 0.0 46.87624170604845" Properties=species:S:1:pos:R:3:tags:I:1:initial_magmoms:R:1:forces:R:3 charge=0 spin=0 energy=-196.55264421994053 free_energy=-196.55264421994053 stress="0.009079520590603352 -0.00036996378912590444 -0.00021010779892094433 -0.00036996378912590444 0.009472444653511047 -0.00011791582073783502 -0.00021010779892094433 -0.00011791582073783502 -0.0002995711693074554" pbc="T T T"
Pt      -0.00000011      -0.00000005      19.95723442        4       0.00000000      -0.01141662      -0.00430031       0.01708394
Pt       2.80721395      -0.00000019      19.95723450        4       0.00000000      -0.00184018       0.00166084       0.01248128
Pt       5.61442786      -0.00000007      19.95723452        4       0.00000000      -0.00465723      -0.00103195       0.00358347
Pt       1.40360721       2.43111839      19.95723434        4       0.00000000       0.01301241       0.00859185       0.03386606
Pt       4.21082082       2.43111837      19.95723444        4       0.00000000       0.00420295      -0.01223974      -0.02262712
Pt       7.01803481       2.43111844      19.95723433        4       0.00000000      -0.00801252      -0.00580478       0.01260809
Pt       2.80721415       4.86223733      19.95723415        4       0.00000000      -0.00526868       0.01199956      -0.02273870
Pt       5.61442796       4.86223739      19.95723433        4       0.00000000      -0.01149191      -0.01138627       0.01728038
Pt       8.42164143       4.86223725      19.95723439        4       0.00000000      -0.00145334      -0.00135094       0.01530104
Pt       1.40360728       0.81037261      22.29206792        3       0.00000000      -0.02166315      -0.02321884      -0.04710710
Pt       4.21082128       0.81037249      22.29206789        3       0.00000000      -0.01639508       0.00604501      -0.07816096
Pt       7.01803472       0.81037258      22.29206780        3       0.00000000      -0.02196728      -0.00998712      -0.07573012
Pt       2.80721447       3.24149123      22.29206774        3       0.00000000       0.00984342       0.00926372       0.05376621
Pt       5.61442762       3.24149120      22.29206786        3       0.00000000      -0.03955126      -0.02039171      -0.08857322
Pt       8.42164156       3.24149131      22.29206806        3       0.00000000      -0.03400892      -0.00589634      -0.04803814
Pt       4.21082090       5.67260998      22.29206740        3       0.00000000      -0.03796083      -0.01646924      -0.09406883
Pt       7.01803486       5.67261041      22.29206774        3       0.00000000      -0.02672245      -0.00891639      -0.03723957
Pt       9.82524817       5.67261060      22.29206803        3       0.00000000      -0.00730766      -0.00798666      -0.07304773
Pt      -0.00000054       1.62074568      24.58417374        2       0.00000000       0.02598256       0.00219417      -0.02244310
Pt       2.80721436       1.62074546      24.58417392        2       0.00000000       0.04633432      -0.29030898       0.49968717
Pt       5.61442782       1.62074536      24.58417379        2       0.00000000       0.02754591       0.11882233      -0.12038618
Pt       1.40360636       4.05186439      24.58417387        2       0.00000000      -0.21274464       0.18655652       0.49322170
Pt       4.21082089       4.05186396      24.58417387        2       0.00000000      -0.05634782      -0.05255128      -0.23557460
Pt       7.01803504       4.05186408      24.58417404        2       0.00000000       0.15248749       0.01811342      -0.03226707
Pt       2.80721273       6.48298349      24.58417384        2       0.00000000       0.12197033      -0.04052916      -0.12647673
Pt       5.61442806       6.48298330      24.58417399        2       0.00000000       0.09726068       0.10153136      -0.03243773
Pt       8.42164222       6.48298344      24.58417375        2       0.00000000       0.03478701       0.01337297      -0.02800212
Pt       0.08586286       0.03822586      26.91556220        1       0.00000000      -0.00143630       0.01327688      -0.00196045
Pt       2.91077150       0.10421275      26.94372508        1       0.00000000      -0.00932631      -0.01093009       0.01888024
Pt       5.76003613       0.07631712      26.87999573        1       0.00000000       0.00179677      -0.00392464      -0.00692832
Pt       1.48616708       2.47576024      26.91099039        1       0.00000000      -0.01743518      -0.02126206       0.00324064
Pt       4.29731653       2.47610600      26.94131091        1       0.00000000       0.01314648       0.02925414      -0.00000142
Pt       7.10523407       2.47214798      26.91632924        1       0.00000000      -0.00356161       0.00985870       0.00093632
Pt       2.90280807       4.89957812      26.93886002        1       0.00000000      -0.01074205       0.01632128       0.00513911
Pt       5.62464003       4.85749686      26.84521788        1       0.00000000      -0.01331061      -0.01029848       0.00052226
Pt       8.56849974       4.89408529      26.94837625        1       0.00000000      -0.00318141       0.00459837       0.01125943
O        7.65645479       6.05271281      28.58026907        0       0.50000000      -0.00497119      -0.01159339      -0.00347953
H        8.40307661       6.48573540      29.04936479        0       0.50000000       0.03440387       0.01891750      -0.00156853
