38
Lattice="8.421641763931781 0.0 0.0 4.2108208819658905 7.293355709136913 0.0 0.0 0.0 46.87624170604845" Properties=species:S:1:pos:R:3:tags:I:1:initial_magmoms:R:1:forces:R:3 charge=0 spin=0 energy=-196.54990335995518 free_energy=-196.54990335995518 stress="0.009120330214500427 -0.0004091312293894589 -0.00020409567514434457 -0.0004091312293894589 0.009479246102273464 -7.699857087573037e-05 -0.00020409567514434457 -7.699857087573037e-05 -0.00028668108279816806" pbc="T T T"
Pt      -0.00000011      -0.00000005      19.95723442        4       0.00000000      -0.00359866       0.01224951      -0.02198603
Pt       2.80721395      -0.00000019      19.95723450        4       0.00000000      -0.00848414      -0.01013889       0.01759809
Pt       5.61442786      -0.00000007      19.95723452        4       0.00000000       0.00095693      -0.00070571       0.01462598
Pt       1.40360721       2.43111839      19.95723434        4       0.00000000      -0.00812177      -0.00388168       0.01788604
Pt       4.21082082       2.43111837      19.95723444        4       0.00000000       0.00084230       0.00187255       0.01216131
Pt       7.01803481       2.43111844      19.95723433        4       0.00000000      -0.00177224      -0.00057476       0.00333432
Pt       2.80721415       4.86223733      19.95723415        4       0.00000000       0.01478948       0.00884675       0.03265525
Pt       5.61442796       4.86223739      19.95723433        4       0.00000000       0.00427795      -0.01102062      -0.02057469
Pt       8.42164143       4.86223725      19.95723439        4       0.00000000      -0.00445938      -0.00520807       0.01395102
Pt       1.40360728       0.81037261      22.29206792        3       0.00000000      -0.02853327      -0.01965690      -0.09228556
Pt       4.21082128       0.81037249      22.29206789        3       0.00000000      -0.01788694      -0.00931558      -0.03263735
Pt       7.01803472       0.81037258      22.29206780        3       0.00000000       0.00212054      -0.00634702      -0.07260799
Pt       2.80721447       3.24149123      22.29206774        3       0.00000000      -0.00967119      -0.02205055      -0.04744590
Pt       5.61442762       3.24149120      22.29206786        3       0.00000000      -0.00586240       0.00560294      -0.07790420
Pt       8.42164156       3.24149131      22.29206806        3       0.00000000      -0.01120007      -0.01025808      -0.07377298
Pt       4.21082090       5.67260998      22.29206740        3       0.00000000       0.01690191       0.01144491       0.05014683
Pt       7.01803486       5.67261041      22.29206774        3       0.00000000      -0.03132433      -0.02054556      -0.08722039
Pt       9.82524817       5.67261060      22.29206803        3       0.00000000      -0.02273735      -0.00563683      -0.04801718
Pt      -0.00000054       1.62074568      24.58417374        2       0.00000000       0.10129879      -0.03861305      -0.13328815
Pt       2.80721436       1.62074546      24.58417392        2       0.00000000       0.07459962       0.10258322      -0.00915051
Pt       5.61442782       1.62074536      24.58417379        2       0.00000000       0.00420281       0.01401166      -0.02642572
Pt       1.40360636       4.05186439      24.58417387        2       0.00000000      -0.00740462       0.00082471      -0.01895650
Pt       4.21082089       4.05186396      24.58417387        2       0.00000000       0.00099025      -0.28536341       0.50713027
Pt       7.01803504       4.05186408      24.58417404        2       0.00000000       0.00218719       0.12802710      -0.14079812
Pt       2.80721273       6.48298349      24.58417384        2       0.00000000      -0.23169342       0.16818625       0.47374648
Pt       5.61442806       6.48298330      24.58417399        2       0.00000000      -0.08491311      -0.04403158      -0.24125364
Pt       8.42164222       6.48298344      24.58417375        2       0.00000000       0.11746746       0.02985682      -0.01180535
Pt       0.04848594       0.03790080      26.93687252        1       0.00000000       0.02787232      -0.01103510       0.00385849
Pt       2.77810994      -0.00543801      26.84929535        1       0.00000000       0.00565577       0.00300834      -0.00360888
Pt       5.71493566       0.02407727      26.95020879        1       0.00000000       0.01647585       0.02069131       0.01171027
Pt       1.45096638       2.46423801      26.91417390        1       0.00000000      -0.00431609       0.01917753      -0.00311426
Pt       4.27585588       2.52340488      26.95136999        1       0.00000000       0.01403096       0.01848879      -0.00160790
Pt       7.12208264       2.50271772      26.87181964        1       0.00000000       0.03240780       0.00921892       0.00251017
Pt       2.84194247       4.89708824      26.90969595        1       0.00000000       0.03060357      -0.01172095      -0.00231053
Pt       5.66030903       4.90788938      26.93596350        1       0.00000000      -0.00516721       0.00409502       0.00555777
Pt       8.46249123       4.90734162      26.91534766        1       0.00000000       0.02192652      -0.03174430       0.00087116
O        4.84416714       1.20540518      28.59608383        0       0.50000000       0.00002998      -0.02045245      -0.03554394
H        5.61921700       1.64502991      29.01173447        0       0.50000000      -0.00249200       0.01011443       0.03457221
