38
Lattice="8.421641763931781 0.0 0.0 4.2108208819658905 7.293355709136913 0.0 0.0 0.0 46.87624170604845" Properties=species:S:1:pos:R:3:tags:I:1:initial_magmoms:R:1:forces:R:3 charge=0 spin=0 energy=-196.55266901547276 free_energy=-196.55266901547276 stress="0.009069795720279217 -0.00037322845309972763 -0.0002057771198451519 -0.00037322845309972763 0.00945972464978695 -0.00011467692820588127 -0.0002057771198451519 -0.00011467692820588127 -0.0003162938810419291" pbc="T T T"
Pt      -0.00000011      -0.00000005      19.95723442        4       0.00000000      -0.00523432       0.01208213      -0.02282150
Pt       2.80721395      -0.00000019      19.95723450        4       0.00000000      -0.01159546      -0.01137212       0.01722788
Pt       5.61442786      -0.00000007      19.95723452        4       0.00000000      -0.00138026      -0.00133270       0.01524631
Pt       1.40360721       2.43111839      19.95723434        4       0.00000000      -0.01138971      -0.00424940       0.01705960
Pt       4.21082082       2.43111837      19.95723444        4       0.00000000      -0.00192231       0.00183459       0.01243960
Pt       7.01803481       2.43111844      19.95723433        4       0.00000000      -0.00453268      -0.00097819       0.00357821
Pt       2.80721415       4.86223733      19.95723415        4       0.00000000       0.01307313       0.00855663       0.03370241
Pt       5.61442796       4.86223739      19.95723433        4       0.00000000       0.00410747      -0.01216367      -0.02249110
Pt       8.42164143       4.86223725      19.95723439        4       0.00000000      -0.00787361      -0.00570643       0.01266080
Pt       1.40360728       0.81037261      22.29206792        3       0.00000000      -0.03793782      -0.01635622      -0.09375319
Pt       4.21082128       0.81037249      22.29206789        3       0.00000000      -0.02666737      -0.00857487      -0.03834962
Pt       7.01803472       0.81037258      22.29206780        3       0.00000000      -0.00726965      -0.00760203      -0.07311787
Pt       2.80721447       3.24149123      22.29206774        3       0.00000000      -0.02157097      -0.02334144      -0.04662543
Pt       5.61442762       3.24149120      22.29206786        3       0.00000000      -0.01610009       0.00586883      -0.07809997
Pt       8.42164156       3.24149131      22.29206806        3       0.00000000      -0.02172567      -0.00983624      -0.07595337
Pt       4.21082090       5.67260998      22.29206740        3       0.00000000       0.00984549       0.00975696       0.05480210
Pt       7.01803486       5.67261041      22.29206774        3       0.00000000      -0.03929942      -0.02008023      -0.08795453
Pt       9.82524817       5.67261060      22.29206803        3       0.00000000      -0.03398008      -0.00548226      -0.04782819
Pt      -0.00000054       1.62074568      24.58417374        2       0.00000000       0.12288115      -0.04332958      -0.12899376
Pt       2.80721436       1.62074546      24.58417392        2       0.00000000       0.09795403       0.10504644      -0.03898256
Pt       5.61442782       1.62074536      24.58417379        2       0.00000000       0.03532139       0.01486694      -0.02917894
Pt       1.40360636       4.05186439      24.58417387        2       0.00000000       0.02554893       0.00122015      -0.02634296
Pt       4.21082089       4.05186396      24.58417387        2       0.00000000       0.04538903      -0.28829759       0.49834713
Pt       7.01803504       4.05186408      24.58417404        2       0.00000000       0.02553907       0.12009131      -0.12060694
Pt       2.80721273       6.48298349      24.58417384        2       0.00000000      -0.21074416       0.18378982       0.48703063
Pt       5.61442806       6.48298330      24.58417399        2       0.00000000      -0.06103244      -0.05570641      -0.24201836
Pt       8.42164222       6.48298344      24.58417375        2       0.00000000       0.15391575       0.01406524      -0.03659591
Pt       0.09444550       0.03560111      26.93920396        1       0.00000000      -0.01500402       0.02133741       0.00420306
Pt       2.81621203      -0.00500313      26.84187367        1       0.00000000      -0.00517834      -0.01072893       0.01967401
Pt       5.75840976       0.03033892      26.94615343        1       0.00000000       0.00155411       0.01889414       0.02448373
Pt       1.48981252       2.46834139      26.91517693        1       0.00000000      -0.00423473       0.01253904       0.00156677
Pt       4.31366077       2.53585910      26.94283927        1       0.00000000      -0.00093675      -0.01792474       0.02667506
Pt       7.16513871       2.50721916      26.87933395        1       0.00000000      -0.00994066      -0.00831804      -0.00470220
Pt       2.88726055       4.90636316      26.91070355        1       0.00000000      -0.00836394      -0.02182599       0.00528273
Pt       5.69980690       4.90756653      26.94189804        1       0.00000000       0.01492355       0.02280248      -0.00226331
Pt       8.50867867       4.90071027      26.91661237        1       0.00000000      -0.00801253       0.01911379       0.00098403
O        4.85231964       1.19378732      28.58119281        0       0.50000000      -0.01291865      -0.01760204      -0.01565986
H        5.60081205       1.62685776      29.04720357        0       0.50000000       0.03479281       0.01894290      -0.00262455
