38
Lattice="8.421641763931781 0.0 0.0 4.2108208819658905 7.293355709136913 0.0 0.0 0.0 46.87624170604845" Properties=species:S:1:pos:R:3:tags:I:1:initial_magmoms:R:1:forces:R:3 charge=0 spin=0 energy=-196.54989954525792 free_energy=-196.54989954525792 stress="0.009120265953242779 -0.00040913582779467106 -0.00020418140047695488 -0.00040913582779467106 0.009479345753788948 -7.702622679062188e-05 -0.00020418140047695488 -7.702622679062188e-05 -0.00028668975573964417" pbc="T T T"
Pt      -0.00000011      -0.00000005      19.95723442        4       0.00000000      -0.00811855      -0.00387948       0.01787487
Pt       2.80721395      -0.00000019      19.95723450        4       0.00000000       0.00083914       0.00187460       0.01215936
Pt       5.61442786      -0.00000007      19.95723452        4       0.00000000      -0.00177103      -0.00057228       0.00332476
Pt       1.40360721       2.43111839      19.95723434        4       0.00000000       0.01478945       0.00885246       0.03265812
Pt       4.21082082       2.43111837      19.95723444        4       0.00000000       0.00428048      -0.01101418      -0.02058092
Pt       7.01803481       2.43111844      19.95723433        4       0.00000000      -0.00446242      -0.00520317       0.01396029
Pt       2.80721415       4.86223733      19.95723415        4       0.00000000      -0.00359928       0.01224172      -0.02197553
Pt       5.61442796       4.86223739      19.95723433        4       0.00000000      -0.00848203      -0.01014819       0.01760578
Pt       8.42164143       4.86223725      19.95723439        4       0.00000000       0.00096126      -0.00071478       0.01462502
Pt       1.40360728       0.81037261      22.29206792        3       0.00000000      -0.00966079      -0.02205080      -0.04743533
Pt       4.21082128       0.81037249      22.29206789        3       0.00000000      -0.00586478       0.00560518      -0.07789702
Pt       7.01803472       0.81037258      22.29206780        3       0.00000000      -0.01120103      -0.01025411      -0.07377897
Pt       2.80721447       3.24149123      22.29206774        3       0.00000000       0.01689166       0.01144886       0.05013241
Pt       5.61442762       3.24149120      22.29206786        3       0.00000000      -0.03131215      -0.02053922      -0.08722235
Pt       8.42164156       3.24149131      22.29206806        3       0.00000000      -0.02274228      -0.00563025      -0.04802087
Pt       4.21082090       5.67260998      22.29206740        3       0.00000000      -0.02852535      -0.01966079      -0.09226751
Pt       7.01803486       5.67261041      22.29206774        3       0.00000000      -0.01788660      -0.00933153      -0.03264505
Pt       9.82524817       5.67261060      22.29206803        3       0.00000000       0.00212997      -0.00635870      -0.07260530
Pt      -0.00000054       1.62074568      24.58417374        2       0.00000000      -0.00740461       0.00084172      -0.01897314
Pt       2.80721436       1.62074546      24.58417392        2       0.00000000       0.00097252      -0.28535983       0.50707918
Pt       5.61442782       1.62074536      24.58417379        2       0.00000000       0.00216574       0.12804648      -0.14077133
Pt       1.40360636       4.05186439      24.58417387        2       0.00000000      -0.23166932       0.16818155       0.47373161
Pt       4.21082089       4.05186396      24.58417387        2       0.00000000      -0.08489573      -0.04402403      -0.24119176
Pt       7.01803504       4.05186408      24.58417404        2       0.00000000       0.11744783       0.02986909      -0.01184040
Pt       2.80721273       6.48298349      24.58417384        2       0.00000000       0.10128270      -0.03863044      -0.13323393
Pt       5.61442806       6.48298330      24.58417399        2       0.00000000       0.07454214       0.10257494      -0.00916466
Pt       8.42164222       6.48298344      24.58417375        2       0.00000000       0.00422002       0.01402071      -0.02644374
Pt       0.04731976       0.03314507      26.91417462        1       0.00000000      -0.00424129       0.01906959      -0.00311339
Pt       2.87220573       0.09223749      26.95135071        1       0.00000000       0.01414937       0.01855360      -0.00150672
Pt       5.71846234       0.07162086      26.87183293        1       0.00000000       0.03240670       0.00914794       0.00244431
Pt       1.43834606       2.46596135      26.90970128        1       0.00000000       0.03053228      -0.01168805      -0.00230536
Pt       4.25665787       2.47675412      26.93596939        1       0.00000000      -0.00500796       0.00416979       0.00551665
Pt       7.05888437       2.47624095      26.91533874        1       0.00000000       0.02184819      -0.03178342       0.00090716
Pt       2.85570418       4.90013332      26.93688605        1       0.00000000       0.02785957      -0.01097981       0.00380442
Pt       5.58532915       4.85680941      26.84929578        1       0.00000000       0.00554201       0.00293617      -0.00363374
Pt       8.52216382       4.88631594      26.95018484        1       0.00000000       0.01637806       0.02071274       0.01181602
O        7.65137789       6.06764620      28.59610277        0       0.50000000      -0.00011166      -0.02061661      -0.03589167
H        8.42647158       6.50727785      29.01164712        0       0.50000000      -0.00228207       0.01029242       0.03485902
