38
Lattice="8.421641763931781 0.0 0.0 4.2108208819658905 7.293355709136913 0.0 0.0 0.0 46.87624170604845" Properties=species:S:1:pos:R:3:tags:I:1:initial_magmoms:R:1:forces:R:3 charge=0 spin=0 energy=-196.54989382321202 free_energy=-196.54989382321202 stress="0.009120100177824497 -0.0004091738082934171 -0.00020433359895832837 -0.0004091738082934171 0.009479442611336708 -7.707189070060849e-05 -0.00020433359895832837 -7.707189070060849e-05 -0.00028676274814642966" pbc="T T T"
Pt      -0.00000011      -0.00000005      19.95723442        4       0.00000000      -0.00359728       0.01225216      -0.02198565
Pt       2.80721395      -0.00000019      19.95723450        4       0.00000000      -0.00848292      -0.01014113       0.01760010
Pt       5.61442786      -0.00000007      19.95723452        4       0.00000000       0.00096371      -0.00070852       0.01462322
Pt       1.40360721       2.43111839      19.95723434        4       0.00000000      -0.00811341      -0.00387953       0.01788903
Pt       4.21082082       2.43111837      19.95723444        4       0.00000000       0.00084270       0.00187438       0.01215917
Pt       7.01803481       2.43111844      19.95723433        4       0.00000000      -0.00177218      -0.00057606       0.00333441
Pt       2.80721415       4.86223733      19.95723415        4       0.00000000       0.01478542       0.00884547       0.03265496
Pt       5.61442796       4.86223739      19.95723433        4       0.00000000       0.00427812      -0.01101999      -0.02057429
Pt       8.42164143       4.86223725      19.95723439        4       0.00000000      -0.00445890      -0.00520840       0.01395083
Pt       1.40360728       0.81037261      22.29206792        3       0.00000000      -0.02851775      -0.01965824      -0.09228070
Pt       4.21082128       0.81037249      22.29206789        3       0.00000000      -0.01787310      -0.00932805      -0.03266497
Pt       7.01803472       0.81037258      22.29206780        3       0.00000000       0.00212620      -0.00634068      -0.07260200
Pt       2.80721447       3.24149123      22.29206774        3       0.00000000      -0.00965953      -0.02205305      -0.04741811
Pt       5.61442762       3.24149120      22.29206786        3       0.00000000      -0.00585325       0.00560060      -0.07789662
Pt       8.42164156       3.24149131      22.29206806        3       0.00000000      -0.01119444      -0.01025746      -0.07379584
Pt       4.21082090       5.67260998      22.29206740        3       0.00000000       0.01689750       0.01145428       0.05015843
Pt       7.01803486       5.67261041      22.29206774        3       0.00000000      -0.03131587      -0.02054544      -0.08721503
Pt       9.82524817       5.67261060      22.29206803        3       0.00000000      -0.02273746      -0.00564097      -0.04801478
Pt      -0.00000054       1.62074568      24.58417374        2       0.00000000       0.10123091      -0.03864849      -0.13314323
Pt       2.80721436       1.62074546      24.58417392        2       0.00000000       0.07445884       0.10259505      -0.00918290
Pt       5.61442782       1.62074536      24.58417379        2       0.00000000       0.00426669       0.01406262      -0.02647888
Pt       1.40360636       4.05186439      24.58417387        2       0.00000000      -0.00738762       0.00086141      -0.01901216
Pt       4.21082089       4.05186396      24.58417387        2       0.00000000       0.00094336      -0.28535688       0.50699574
Pt       7.01803504       4.05186408      24.58417404        2       0.00000000       0.00212456       0.12806393      -0.14072786
Pt       2.80721273       6.48298349      24.58417384        2       0.00000000      -0.23160674       0.16814573       0.47368127
Pt       5.61442806       6.48298330      24.58417399        2       0.00000000      -0.08490230      -0.04404729      -0.24109098
Pt       8.42164222       6.48298344      24.58417375        2       0.00000000       0.11740835       0.02985504      -0.01191362
Pt       0.04847972       0.03787900      26.93691056        1       0.00000000       0.02793547      -0.01087441       0.00370684
Pt       2.77812678      -0.00541698      26.84928671        1       0.00000000       0.00529625       0.00281441      -0.00362866
Pt       5.71496310       0.02407173      26.95014673        1       0.00000000       0.01622786       0.02077650       0.01199250
Pt       1.45085889       2.46430290      26.91417520        1       0.00000000      -0.00408890       0.01887051      -0.00310707
Pt       4.27574760       2.52327504      26.95131819        1       0.00000000       0.01430922       0.01868575      -0.00136876
Pt       7.12205653       2.50277066      26.87185523        1       0.00000000       0.03235394       0.00902877       0.00234056
Pt       2.84196646       4.89707042      26.90971018        1       0.00000000       0.03043043      -0.01168052      -0.00230025
Pt       5.66018700       4.90783489      26.93598124        1       0.00000000      -0.00471679       0.00434252       0.00544138
Pt       8.46249505       4.90738103      26.91532299        1       0.00000000       0.02168996      -0.03183229       0.00096690
O        4.84414352       1.20542425      28.59612302        0       0.50000000      -0.00050596      -0.02102473      -0.03644657
H        5.61929730       1.64504222      29.01152988        0       0.50000000      -0.00178494       0.01069292       0.03535363
