38
Lattice="8.421641763931781 0.0 0.0 4.2108208819658905 7.293355709136913 0.0 0.0 0.0 46.87624170604845" Properties=species:S:1:pos:R:3:tags:I:1:initial_magmoms:R:1:forces:R:3 charge=0 spin=0 energy=-196.55155130917393 free_energy=-196.55155130917393 stress="0.009011303074657917 0.0003529339446686208 0.00018730982264969498 0.0003529339446686208 0.009535637684166431 -0.0001361975009785965 0.00018730982264969498 -0.0001361975009785965 -0.0002952193026430905" pbc="T T T"
Pt      -0.00000011      -0.00000005      19.95723442        4       0.00000000       0.00264258      -0.00183862       0.00340843
Pt       2.80721395      -0.00000019      19.95723450        4       0.00000000       0.00128288       0.00121379       0.01504073
Pt       5.61442786      -0.00000007      19.95723452        4       0.00000000       0.00881182      -0.00175461       0.01324513
Pt       1.40360721       2.43111839      19.95723434        4       0.00000000      -0.00760736      -0.00911808      -0.02171037
Pt       4.21082082       2.43111837      19.95723444        4       0.00000000      -0.01438480       0.00875209       0.03337745
Pt       7.01803481       2.43111844      19.95723433        4       0.00000000       0.00919029      -0.00567673       0.01713401
Pt       2.80721415       4.86223733      19.95723415        4       0.00000000       0.00849584       0.01065747      -0.02273293
Pt       5.61442796       4.86223739      19.95723433        4       0.00000000      -0.00108259      -0.00036984       0.01260349
Pt       8.42164143       4.86223725      19.95723439        4       0.00000000       0.01509973      -0.00246817       0.01735133
Pt       1.40360728       0.81037261      22.29206792        3       0.00000000       0.01040006       0.00318395      -0.07234838
Pt       4.21082128       0.81037249      22.29206789        3       0.00000000       0.02285883      -0.01900077      -0.04833232
Pt       7.01803472       0.81037258      22.29206780        3       0.00000000       0.02018641      -0.00601977      -0.07441650
Pt       2.80721447       3.24149123      22.29206774        3       0.00000000      -0.01259015       0.01101608       0.05425704
Pt       5.61442762       3.24149120      22.29206786        3       0.00000000       0.03137150       0.00100586      -0.04658432
Pt       8.42164156       3.24149131      22.29206806        3       0.00000000       0.03490175      -0.01618222      -0.09398952
Pt       4.21082090       5.67260998      22.29206740        3       0.00000000       0.00215936      -0.01044608      -0.07746406
Pt       7.01803486       5.67261041      22.29206774        3       0.00000000       0.02209658      -0.01174453      -0.03582272
Pt       9.82524817       5.67261060      22.29206803        3       0.00000000       0.03883990      -0.01686253      -0.08985879
Pt      -0.00000054       1.62074568      24.58417374        2       0.00000000      -0.02699033       0.09745917      -0.12917054
Pt       2.80721436       1.62074546      24.58417392        2       0.00000000      -0.05233372      -0.29186732       0.50318778
Pt       5.61442782       1.62074536      24.58417379        2       0.00000000      -0.01949398      -0.00185269      -0.02561397
Pt       1.40360636       4.05186439      24.58417387        2       0.00000000       0.07620195      -0.05305324      -0.25054002
Pt       4.21082089       4.05186396      24.58417387        2       0.00000000       0.22902320       0.15807551       0.51060224
Pt       7.01803504       4.05186408      24.58417404        2       0.00000000      -0.15641709       0.01027770      -0.03881793
Pt       2.80721273       6.48298349      24.58417384        2       0.00000000      -0.11896938      -0.06199640      -0.14092937
Pt       5.61442806       6.48298330      24.58417399        2       0.00000000      -0.02944291       0.00312436      -0.02083915
Pt       8.42164222       6.48298344      24.58417375        2       0.00000000      -0.10191975       0.09900796      -0.03004303
Pt      -0.13857934       0.06038180      26.87845588        1       0.00000000       0.01629296       0.00877453      -0.00127973
Pt       2.71143641       0.08951029      26.94976961        1       0.00000000      -0.00052864       0.00317979       0.00075816
Pt       5.53692862       0.01878057      26.91305325        1       0.00000000      -0.01081888       0.03855897       0.01136144
Pt       1.31926147       2.46286902      26.93924788        1       0.00000000       0.02688832       0.01648034       0.00312745
Pt       4.14254998       2.45726275      26.91228879        1       0.00000000      -0.00750997       0.00507146      -0.01073750
Pt       6.94426516       2.45528279      26.91270885        1       0.00000000      -0.02506499       0.02177481       0.00900937
Pt       2.72030590       4.88420807      26.93834594        1       0.00000000       0.01481204      -0.00026226       0.00655645
Pt       5.47628985       4.88175701      26.94959506        1       0.00000000       0.00806222       0.00037558       0.01472699
Pt       8.41722227       4.84267470      26.84058119        1       0.00000000       0.01270811       0.01883223       0.02901376
O        6.37588809       6.03555183      28.58833488        0       0.50000000       0.01087618      -0.02444547      -0.02894104
H        5.62463137       6.47031347      29.04808494        0       0.50000000      -0.03804805       0.01813752       0.00541082
