38
Lattice="8.421641763931781 0.0 0.0 4.2108208819658905 7.293355709136913 0.0 0.0 0.0 46.87624170604845" Properties=species:S:1:pos:R:3:tags:I:1:initial_magmoms:R:1:forces:R:3 charge=0 spin=0 energy=-196.54989382321202 free_energy=-196.54989382321202 stress="0.00912018958479166 -0.0004091507289558649 -0.00020424550166353583 -0.0004091507289558649 0.009479385800659657 -7.704708696110174e-05 -0.00020424550166353583 -7.704708696110174e-05 -0.0002867307630367577" pbc="T T T"
Pt      -0.00000011      -0.00000005      19.95723442        4       0.00000000      -0.00359791       0.01225107      -0.02198535
Pt       2.80721395      -0.00000019      19.95723450        4       0.00000000      -0.00848306      -0.01014049       0.01759940
Pt       5.61442786      -0.00000007      19.95723452        4       0.00000000       0.00096125      -0.00070762       0.01462409
Pt       1.40360721       2.43111839      19.95723434        4       0.00000000      -0.00811640      -0.00388045       0.01788820
Pt       4.21082082       2.43111837      19.95723444        4       0.00000000       0.00084250       0.00187361       0.01215998
Pt       7.01803481       2.43111844      19.95723433        4       0.00000000      -0.00177205      -0.00057571       0.00333438
Pt       2.80721415       4.86223733      19.95723415        4       0.00000000       0.01478691       0.00884570       0.03265523
Pt       5.61442796       4.86223739      19.95723433        4       0.00000000       0.00427837      -0.01102041      -0.02057490
Pt       8.42164143       4.86223725      19.95723439        4       0.00000000      -0.00445922      -0.00520849       0.01395077
Pt       1.40360728       0.81037261      22.29206792        3       0.00000000      -0.02852359      -0.01965844      -0.09228124
Pt       4.21082128       0.81037249      22.29206789        3       0.00000000      -0.01787831      -0.00932408      -0.03265499
Pt       7.01803472       0.81037258      22.29206780        3       0.00000000       0.00212382      -0.00634367      -0.07260334
Pt       2.80721447       3.24149123      22.29206774        3       0.00000000      -0.00966367      -0.02205197      -0.04742751
Pt       5.61442762       3.24149120      22.29206786        3       0.00000000      -0.00585670       0.00560145      -0.07789903
Pt       8.42164156       3.24149131      22.29206806        3       0.00000000      -0.01119582      -0.01025793      -0.07378686
Pt       4.21082090       5.67260998      22.29206740        3       0.00000000       0.01689933       0.01144877       0.05015239
Pt       7.01803486       5.67261041      22.29206774        3       0.00000000      -0.03131951      -0.02054579      -0.08721621
Pt       9.82524817       5.67261060      22.29206803        3       0.00000000      -0.02273721      -0.00563975      -0.04801675
Pt      -0.00000054       1.62074568      24.58417374        2       0.00000000       0.10125550      -0.03863258      -0.13319986
Pt       2.80721436       1.62074546      24.58417392        2       0.00000000       0.07450971       0.10259009      -0.00917065
Pt       5.61442782       1.62074536      24.58417379        2       0.00000000       0.00424248       0.01404475      -0.02646071
Pt       1.40360636       4.05186439      24.58417387        2       0.00000000      -0.00739563       0.00084824      -0.01898814
Pt       4.21082089       4.05186396      24.58417387        2       0.00000000       0.00096071      -0.28535843       0.50704277
Pt       7.01803504       4.05186408      24.58417404        2       0.00000000       0.00214852       0.12805152      -0.14075764
Pt       2.80721273       6.48298349      24.58417384        2       0.00000000      -0.23164055       0.16816400       0.47371045
Pt       5.61442806       6.48298330      24.58417399        2       0.00000000      -0.08490253      -0.04403793      -0.24115695
Pt       8.42164222       6.48298344      24.58417375        2       0.00000000       0.11742881       0.02985862      -0.01186703
Pt       0.04848547       0.03788939      26.93689502        1       0.00000000       0.02789061      -0.01094104       0.00376765
Pt       2.77811959      -0.00542242      26.84929361        1       0.00000000       0.00544451       0.00288629      -0.00362966
Pt       5.71495397       0.02407682      26.95017053        1       0.00000000       0.01632413       0.02073050       0.01188599
Pt       1.45089773       2.46427885      26.91417448        1       0.00000000      -0.00417052       0.01899663      -0.00310992
Pt       4.27578593       2.52332071      26.95133711        1       0.00000000       0.01421089       0.01862218      -0.00145555
Pt       7.12206511       2.50275208      26.87184189        1       0.00000000       0.03237693       0.00910310       0.00240517
Pt       2.84195802       4.89707743      26.90970456        1       0.00000000       0.03049104      -0.01169423      -0.00230529
Pt       5.66023296       4.90785839      26.93597300        1       0.00000000      -0.00489377       0.00423147       0.00549178
Pt       8.46249171       4.90736862      26.91533215        1       0.00000000       0.02178566      -0.03180383       0.00092905
O        4.84415801       1.20541296      28.59611212        0       0.50000000      -0.00030032      -0.02078671      -0.03612094
H        5.61927367       1.64504327      29.01159893        0       0.50000000      -0.00205452       0.01046162       0.03507121
