38
Lattice="8.421641763931781 0.0 0.0 4.2108208819658905 7.293355709136913 0.0 0.0 0.0 46.87624170604845" Properties=species:S:1:pos:R:3:tags:I:1:initial_magmoms:R:1:forces:R:3 charge=0 spin=0 energy=-196.5499052673038 free_energy=-196.5499052673038 stress="0.009120451286435127 -0.0004090828588232398 -0.00020403001690283418 -0.0004090828588232398 0.00947925541549921 -7.697124237893149e-05 -0.00020403001690283418 -7.697124237893149e-05 -0.00028664377168752253" pbc="T T T"
Pt      -0.00000011      -0.00000005      19.95723442        4       0.00000000      -0.00812325      -0.00388055       0.01787317
Pt       2.80721395      -0.00000019      19.95723450        4       0.00000000       0.00083873       0.00187330       0.01216061
Pt       5.61442786      -0.00000007      19.95723452        4       0.00000000      -0.00177114      -0.00057165       0.00332448
Pt       1.40360721       2.43111839      19.95723434        4       0.00000000       0.01479091       0.00885267       0.03265839
Pt       4.21082082       2.43111837      19.95723444        4       0.00000000       0.00427999      -0.01101462      -0.02058114
Pt       7.01803481       2.43111844      19.95723433        4       0.00000000      -0.00446297      -0.00520352       0.01396029
Pt       2.80721415       4.86223733      19.95723415        4       0.00000000      -0.00360003       0.01224050      -0.02197594
Pt       5.61442796       4.86223739      19.95723433        4       0.00000000      -0.00848283      -0.01014733       0.01760445
Pt       8.42164143       4.86223725      19.95723439        4       0.00000000       0.00095732      -0.00071370       0.01462636
Pt       1.40360728       0.81037261      22.29206792        3       0.00000000      -0.00966780      -0.02205038      -0.04744882
Pt       4.21082128       0.81037249      22.29206789        3       0.00000000      -0.00587022       0.00560572      -0.07790127
Pt       7.01803472       0.81037258      22.29206780        3       0.00000000      -0.01120505      -0.01025501      -0.07376782
Pt       2.80721447       3.24149123      22.29206774        3       0.00000000       0.01689225       0.01144374       0.05012576
Pt       5.61442762       3.24149120      22.29206786        3       0.00000000      -0.03131732      -0.02054000      -0.08722332
Pt       8.42164156       3.24149131      22.29206806        3       0.00000000      -0.02274345      -0.00562888      -0.04802179
Pt       4.21082090       5.67260998      22.29206740        3       0.00000000      -0.02853429      -0.01966085      -0.09226882
Pt       7.01803486       5.67261041      22.29206774        3       0.00000000      -0.01789404      -0.00932554      -0.03263035
Pt       9.82524817       5.67261060      22.29206803        3       0.00000000       0.00212583      -0.00636207      -0.07260996
Pt      -0.00000054       1.62074568      24.58417374        2       0.00000000      -0.00741124       0.00082414      -0.01894294
Pt       2.80721436       1.62074546      24.58417392        2       0.00000000       0.00099937      -0.28535986       0.50714982
Pt       5.61442782       1.62074536      24.58417379        2       0.00000000       0.00219850       0.12804015      -0.14081487
Pt       1.40360636       4.05186439      24.58417387        2       0.00000000      -0.23170526       0.16820225       0.47376400
Pt       4.21082089       4.05186396      24.58417387        2       0.00000000      -0.08490028      -0.04401575      -0.24126951
Pt       7.01803504       4.05186408      24.58417404        2       0.00000000       0.11748119       0.02986987      -0.01179730
Pt       2.80721273       6.48298349      24.58417384        2       0.00000000       0.10132661      -0.03861550      -0.13331093
Pt       5.61442806       6.48298330      24.58417399        2       0.00000000       0.07461581       0.10257402      -0.00915291
Pt       8.42164222       6.48298344      24.58417375        2       0.00000000       0.00418612       0.01399668      -0.02642136
Pt       0.04737975       0.03311496      26.91417497        1       0.00000000      -0.00436657       0.01922493      -0.00311973
Pt       2.87226408       0.09230550      26.95137870        1       0.00000000       0.01401572       0.01844890      -0.00162025
Pt       5.71847901       0.07159799      26.87181162        1       0.00000000       0.03243855       0.00923835       0.00255433
Pt       1.43833628       2.46597200      26.90969469        1       0.00000000       0.03062992      -0.01170805      -0.00231280
Pt       4.25672344       2.47678438      26.93596182        1       0.00000000      -0.00523638       0.00404658       0.00556739
Pt       7.05888635       2.47622605      26.91535212        1       0.00000000       0.02196578      -0.03175674       0.00085806
Pt       2.85571292       4.90014694      26.93686919        1       0.00000000       0.02782384      -0.01106232       0.00387293
Pt       5.58532714       4.85680210      26.84929905        1       0.00000000       0.00571343       0.00303513      -0.00361039
Pt       8.52215462       4.88631983      26.95021532        1       0.00000000       0.01649548       0.02068432       0.01168871
O        7.65139921       6.06764139      28.59608568        0       0.50000000       0.00034608      -0.02023148      -0.03535856
H        8.42645190       6.50727640      29.01174358        0       0.50000000      -0.00282938       0.00990251       0.03437192
