38
Lattice="8.421641763931781 0.0 0.0 4.2108208819658905 7.293355709136913 0.0 0.0 0.0 46.87624170604845" Properties=species:S:1:pos:R:3:tags:I:1:initial_magmoms:R:1:forces:R:3 charge=0 spin=0 energy=-196.5526766448673 free_energy=-196.5526766448673 stress="0.009078556671738625 -0.00036907524918206036 -0.0002085878368234262 -0.00036907524918206036 0.009471173398196697 -0.00011715527944033965 -0.0002085878368234262 -0.00011715527944033965 -0.00030300565413199365" pbc="T T T"
Pt      -0.00000011      -0.00000005      19.95723442        4       0.00000000      -0.01141145      -0.00428351       0.01708927
Pt       2.80721395      -0.00000019      19.95723450        4       0.00000000      -0.00184701       0.00168363       0.01245279
Pt       5.61442786      -0.00000007      19.95723452        4       0.00000000      -0.00462139      -0.00100651       0.00357471
Pt       1.40360721       2.43111839      19.95723434        4       0.00000000       0.01302451       0.00861587       0.03385930
Pt       4.21082082       2.43111837      19.95723444        4       0.00000000       0.00422484      -0.01225613      -0.02265066
Pt       7.01803481       2.43111844      19.95723433        4       0.00000000      -0.00799346      -0.00580309       0.01260380
Pt       2.80721415       4.86223733      19.95723415        4       0.00000000      -0.00526021       0.01201933      -0.02275371
Pt       5.61442796       4.86223739      19.95723433        4       0.00000000      -0.01148705      -0.01138102       0.01726683
Pt       8.42164143       4.86223725      19.95723439        4       0.00000000      -0.00143327      -0.00135568       0.01527937
Pt       1.40360728       0.81037261      22.29206792        3       0.00000000      -0.02162081      -0.02320836      -0.04714521
Pt       4.21082128       0.81037249      22.29206789        3       0.00000000      -0.01634696       0.00604217      -0.07828066
Pt       7.01803472       0.81037258      22.29206780        3       0.00000000      -0.02193918      -0.00993241      -0.07574689
Pt       2.80721447       3.24149123      22.29206774        3       0.00000000       0.00991793       0.00925471       0.05405789
Pt       5.61442762       3.24149120      22.29206786        3       0.00000000      -0.03946253      -0.02035122      -0.08853561
Pt       8.42164156       3.24149131      22.29206806        3       0.00000000      -0.03399608      -0.00583962      -0.04803508
Pt       4.21082090       5.67260998      22.29206740        3       0.00000000      -0.03792987      -0.01640995      -0.09395419
Pt       7.01803486       5.67261041      22.29206774        3       0.00000000      -0.02669409      -0.00888154      -0.03748599
Pt       9.82524817       5.67261060      22.29206803        3       0.00000000      -0.00730236      -0.00791947      -0.07311004
Pt      -0.00000054       1.62074568      24.58417374        2       0.00000000       0.02577512       0.00198933      -0.02209263
Pt       2.80721436       1.62074546      24.58417392        2       0.00000000       0.04590353      -0.28912964       0.49924242
Pt       5.61442782       1.62074536      24.58417379        2       0.00000000       0.02737453       0.11938652      -0.12036701
Pt       1.40360636       4.05186439      24.58417387        2       0.00000000      -0.21220319       0.18573238       0.49302447
Pt       4.21082089       4.05186396      24.58417387        2       0.00000000      -0.05728294      -0.05301809      -0.23586805
Pt       7.01803504       4.05186408      24.58417404        2       0.00000000       0.15256055       0.01721612      -0.03297769
Pt       2.80721273       6.48298349      24.58417384        2       0.00000000       0.12259462      -0.04107800      -0.12681659
Pt       5.61442806       6.48298330      24.58417399        2       0.00000000       0.09646513       0.10169470      -0.03323093
Pt       8.42164222       6.48298344      24.58417375        2       0.00000000       0.03510685       0.01342106      -0.02990069
Pt       0.08570594       0.03806699      26.91578555        1       0.00000000      -0.00156988       0.01326338      -0.00267448
Pt       2.91056058       0.10400922      26.94294909        1       0.00000000      -0.00894348      -0.01062934       0.02161578
Pt       5.75992901       0.07610233      26.87967058        1       0.00000000       0.00189368      -0.00306857      -0.00572097
Pt       1.48571389       2.47551618      26.91119518        1       0.00000000      -0.01587105      -0.02057544       0.00238362
Pt       4.29722954       2.47608285      26.94153954        1       0.00000000       0.01223097       0.02834174      -0.00089947
Pt       7.10517158       2.47189567      26.91653757        1       0.00000000      -0.00407745       0.00996820       0.00025085
Pt       2.90258074       4.89946615      26.93910810        1       0.00000000      -0.01054843       0.01570512       0.00425654
Pt       5.62446093       4.85724090      26.84479488        1       0.00000000      -0.01328639      -0.00967955       0.00278320
Pt       8.56820975       4.89405856      26.94778738        1       0.00000000      -0.00242007       0.00432651       0.01332787
O        7.65684780       6.05275711      28.57986035        0       0.50000000      -0.00049001      -0.00751078      -0.00025804
H        8.40362329       6.48657847      29.04834436        0       0.50000000       0.02896599       0.01465726      -0.00456373
