38
Lattice="8.421641763931781 0.0 0.0 4.2108208819658905 7.293355709136913 0.0 0.0 0.0 46.87624170604845" Properties=species:S:1:pos:R:3:tags:I:1:initial_magmoms:R:1:forces:R:3 charge=0 spin=0 energy=-194.61144396359288 free_energy=-194.61144396359288 stress="0.009898058138787746 -0.00014535343507304788 6.632807071582647e-06 -0.00014535343507304788 0.00971542950719595 -2.42517876358761e-06 6.632807071582647e-06 -2.42517876358761e-06 -0.00012574186257552356" pbc="T T T"
Pt      -0.00000011      -0.00000005      19.95723442        4       0.00000000      -0.00174707       0.00053680       0.01232999
Pt       2.80721395      -0.00000019      19.95723450        4       0.00000000      -0.00055037       0.00296298       0.01179566
Pt       5.61442786      -0.00000007      19.95723452        4       0.00000000       0.00068116       0.00068049       0.01416709
Pt       1.40360721       2.43111839      19.95723434        4       0.00000000       0.00283622       0.00436380      -0.00284473
Pt       4.21082082       2.43111837      19.95723444        4       0.00000000      -0.00250358       0.00133031       0.00959838
Pt       7.01803481       2.43111844      19.95723433        4       0.00000000       0.00017359      -0.00119484       0.01301776
Pt       2.80721415       4.86223733      19.95723415        4       0.00000000      -0.00183296      -0.00495175      -0.00270913
Pt       5.61442796       4.86223739      19.95723433        4       0.00000000      -0.00192619      -0.00299639       0.01057090
Pt       8.42164143       4.86223725      19.95723439        4       0.00000000       0.00515783      -0.00125700       0.01147387
Pt       1.40360728       0.81037261      22.29206792        3       0.00000000      -0.00639377      -0.00453230      -0.04148989
Pt       4.21082128       0.81037249      22.29206789        3       0.00000000       0.00455031      -0.00703057      -0.04074871
Pt       7.01803472       0.81037258      22.29206780        3       0.00000000      -0.00269963      -0.00012023      -0.04189271
Pt       2.80721447       3.24149123      22.29206774        3       0.00000000       0.00124248      -0.00121899       0.02730456
Pt       5.61442762       3.24149120      22.29206786        3       0.00000000       0.01059085       0.00150044      -0.03965067
Pt       8.42164156       3.24149131      22.29206806        3       0.00000000      -0.00264148      -0.00429371      -0.02404037
Pt       4.21082090       5.67260998      22.29206740        3       0.00000000       0.00200084       0.00751290      -0.04185684
Pt       7.01803486       5.67261041      22.29206774        3       0.00000000      -0.00516135       0.00068756      -0.03437804
Pt       9.82524817       5.67261060      22.29206803        3       0.00000000       0.00469248       0.00386578      -0.02140419
Pt      -0.00000054       1.62074568      24.58417374        2       0.00000000       0.00313378      -0.01774074       0.02533676
Pt       2.80721436       1.62074546      24.58417392        2       0.00000000      -0.00863286       0.02148801      -0.02077449
Pt       5.61442782       1.62074536      24.58417379        2       0.00000000       0.00243282       0.00173497       0.01497320
Pt       1.40360636       4.05186439      24.58417387        2       0.00000000      -0.02077312       0.01335983       0.02698833
Pt       4.21082089       4.05186396      24.58417387        2       0.00000000      -0.01645763      -0.00984706      -0.02350250
Pt       7.01803504       4.05186408      24.58417404        2       0.00000000       0.01948900      -0.00145375       0.02429415
Pt       2.80721273       6.48298349      24.58417384        2       0.00000000       0.01280752       0.00273277       0.02458261
Pt       5.61442806       6.48298330      24.58417399        2       0.00000000       0.00166897      -0.00029004       0.04334225
Pt       8.42164222       6.48298344      24.58417375        2       0.00000000       0.00630649      -0.00897558       0.01970349
Pt      -0.00879253       0.00512683      26.92028572        1       0.00000000       0.04230997      -0.02305485      -0.00654818
Pt       2.83211430       0.04086080      26.90585276        1       0.00000000       0.00039012      -0.00212451      -0.00348754
Pt       5.62068197       0.00178399      26.91585568        1       0.00000000       0.01621978      -0.01503653       0.00459541
Pt       1.40089657       2.43773701      26.91584833        1       0.00000000      -0.01907898       0.00756026       0.00829444
Pt       4.21162168       2.43085467      26.91715414        1       0.00000000      -0.00098900       0.00099238       0.02319591
Pt       7.02003058       2.42387259      26.91485473        1       0.00000000       0.02126642      -0.00771805       0.00162750
Pt       2.80117409       4.86170461      26.91664860        1       0.00000000      -0.01689478       0.01417963       0.01072925
Pt       5.58989440       4.82092398      26.90616501        1       0.00000000      -0.00083180       0.00273143      -0.00102877
Pt       8.43034306       4.85681789      26.92069073        1       0.00000000      -0.04120044       0.02183000       0.00048223
O        6.31818512       6.07642217      29.43507464        0       0.50000000       0.02326305      -0.01666510       0.00947597
H        6.31324154       6.07968939      28.44130767        0       0.50000000      -0.03089854       0.02045154      -0.00152239
