38
Lattice="8.421641763931781 0.0 0.0 4.2108208819658905 7.293355709136913 0.0 0.0 0.0 46.87624170604845" Properties=species:S:1:pos:R:3:tags:I:1:initial_magmoms:R:1:forces:R:3 charge=0 spin=0 energy=-196.55278345639073 free_energy=-196.55278345639073 stress="0.009087160229682922 -0.0003660051734186709 -0.00020823509839829057 -0.0003660051734186709 0.009478538297116756 -0.0001160621686722152 -0.00020823509839829057 -0.0001160621686722152 -0.0002985218889079988" pbc="T T T"
Pt      -0.00000011      -0.00000005      19.95723442        4       0.00000000      -0.01144424      -0.00431225       0.01708903
Pt       2.80721395      -0.00000019      19.95723450        4       0.00000000      -0.00183932       0.00157190       0.01250141
Pt       5.61442786      -0.00000007      19.95723452        4       0.00000000      -0.00469231      -0.00109452       0.00357336
Pt       1.40360721       2.43111839      19.95723434        4       0.00000000       0.01291651       0.00850531       0.03385847
Pt       4.21082082       2.43111837      19.95723444        4       0.00000000       0.00416876      -0.01225732      -0.02253955
Pt       7.01803481       2.43111844      19.95723433        4       0.00000000      -0.00804881      -0.00583004       0.01260758
Pt       2.80721415       4.86223733      19.95723415        4       0.00000000      -0.00531953       0.01197820      -0.02267500
Pt       5.61442796       4.86223739      19.95723433        4       0.00000000      -0.01150025      -0.01138717       0.01727603
Pt       8.42164143       4.86223725      19.95723439        4       0.00000000      -0.00152546      -0.00136110       0.01532799
Pt       1.40360728       0.81037261      22.29206792        3       0.00000000      -0.02168124      -0.02327641      -0.04686664
Pt       4.21082128       0.81037249      22.29206789        3       0.00000000      -0.01650610       0.00599528      -0.07808804
Pt       7.01803472       0.81037258      22.29206780        3       0.00000000      -0.02212974      -0.01012532      -0.07546920
Pt       2.80721447       3.24149123      22.29206774        3       0.00000000       0.00977380       0.00921986       0.05267662
Pt       5.61442762       3.24149120      22.29206786        3       0.00000000      -0.03987911      -0.02043262      -0.08872949
Pt       8.42164156       3.24149131      22.29206806        3       0.00000000      -0.03413710      -0.00596220      -0.04778056
Pt       4.21082090       5.67260998      22.29206740        3       0.00000000      -0.03805064      -0.01678136      -0.09422281
Pt       7.01803486       5.67261041      22.29206774        3       0.00000000      -0.02680765      -0.00898874      -0.03694703
Pt       9.82524817       5.67261060      22.29206803        3       0.00000000      -0.00736910      -0.00813424      -0.07284712
Pt      -0.00000054       1.62074568      24.58417374        2       0.00000000       0.02611789       0.00259496      -0.02405285
Pt       2.80721436       1.62074546      24.58417392        2       0.00000000       0.04680567      -0.29165518       0.50117493
Pt       5.61442782       1.62074536      24.58417379        2       0.00000000       0.02793364       0.11822245      -0.12048719
Pt       1.40360636       4.05186439      24.58417387        2       0.00000000      -0.21365485       0.18821284       0.49438164
Pt       4.21082089       4.05186396      24.58417387        2       0.00000000      -0.05600723      -0.05241441      -0.23616497
Pt       7.01803504       4.05186408      24.58417404        2       0.00000000       0.15442668       0.01916502      -0.03292897
Pt       2.80721273       6.48298349      24.58417384        2       0.00000000       0.12140074      -0.03986663      -0.12725225
Pt       5.61442806       6.48298330      24.58417399        2       0.00000000       0.09870195       0.10278525      -0.03380112
Pt       8.42164222       6.48298344      24.58417375        2       0.00000000       0.03445251       0.01312120      -0.02408026
Pt       0.08648851       0.03860839      26.91509407        1       0.00000000      -0.00235105       0.01357230       0.00045153
Pt       2.91076644       0.10420724      26.94514702        1       0.00000000      -0.00774136      -0.00860353       0.01266596
Pt       5.76080212       0.07678710      26.88035183        1       0.00000000       0.00022371      -0.00363860      -0.00842813
Pt       1.48626946       2.47619955      26.91058095        1       0.00000000      -0.01466826      -0.02131715       0.00444723
Pt       4.29795990       2.47630867      26.94094443        1       0.00000000       0.01211366       0.02942479       0.00050269
Pt       7.10590265       2.47305466      26.91605098        1       0.00000000      -0.00508704       0.00761119       0.00260987
Pt       2.90350626       4.90022220      26.93843985        1       0.00000000      -0.01144944       0.01471355       0.00634975
Pt       5.62562949       4.85823080      26.84481782        1       0.00000000      -0.01431555      -0.01141032       0.00323212
Pt       8.56906265       4.89441305      26.95012661        1       0.00000000      -0.00229787       0.00510907       0.00520966
O        7.65808498       6.05386189      28.58150564        0       0.50000000       0.00824105      -0.00218773       0.00403900
H        8.40575946       6.48893298      29.04789871        0       0.50000000       0.02122662       0.00923371      -0.00661345
