38
Lattice="8.421641763931781 0.0 0.0 4.2108208819658905 7.293355709136913 0.0 0.0 0.0 46.87624170604845" Properties=species:S:1:pos:R:3:tags:I:1:initial_magmoms:R:1:forces:R:3 charge=0 spin=0 energy=-196.55134150082432 free_energy=-196.55134150082432 stress="0.009093289263546467 -0.00039747325354255736 -0.00020718637097161263 -0.00039747325354255736 0.009427466429769993 -8.147359039867297e-05 -0.00020718637097161263 -8.147359039867297e-05 -0.0003262046375311911" pbc="T T T"
Pt      -0.00000011      -0.00000005      19.95723442        4       0.00000000      -0.00939139      -0.00493345       0.01728890
Pt       2.80721395      -0.00000019      19.95723450        4       0.00000000       0.00027926       0.00115527       0.01266379
Pt       5.61442786      -0.00000007      19.95723452        4       0.00000000      -0.00286228      -0.00134679       0.00327497
Pt       1.40360721       2.43111839      19.95723434        4       0.00000000       0.01493970       0.00822596       0.03340160
Pt       4.21082082       2.43111837      19.95723444        4       0.00000000       0.00499491      -0.01256315      -0.02258442
Pt       7.01803481       2.43111844      19.95723433        4       0.00000000      -0.00575052      -0.00675787       0.01319946
Pt       2.80721415       4.86223733      19.95723415        4       0.00000000      -0.00402711       0.01163060      -0.02203543
Pt       5.61442796       4.86223739      19.95723433        4       0.00000000      -0.00951578      -0.01173442       0.01739679
Pt       8.42164143       4.86223725      19.95723439        4       0.00000000       0.00047668      -0.00157932       0.01480861
Pt       1.40360728       0.81037261      22.29206792        3       0.00000000      -0.01397933      -0.02714284      -0.04593360
Pt       4.21082128       0.81037249      22.29206789        3       0.00000000      -0.00965503       0.00354076      -0.07736448
Pt       7.01803472       0.81037258      22.29206780        3       0.00000000      -0.01493710      -0.01436582      -0.07415259
Pt       2.80721447       3.24149123      22.29206774        3       0.00000000       0.01605461       0.00723752       0.05352684
Pt       5.61442762       3.24149120      22.29206786        3       0.00000000      -0.03372432      -0.02501670      -0.09037399
Pt       8.42164156       3.24149131      22.29206806        3       0.00000000      -0.02739190      -0.01000777      -0.04881436
Pt       4.21082090       5.67260998      22.29206740        3       0.00000000      -0.03127877      -0.02207772      -0.09512302
Pt       7.01803486       5.67261041      22.29206774        3       0.00000000      -0.02089575      -0.01344021      -0.03567136
Pt       9.82524817       5.67261060      22.29206803        3       0.00000000      -0.00207965      -0.01045484      -0.07335008
Pt      -0.00000054       1.62074568      24.58417374        2       0.00000000       0.00599450       0.01683600      -0.02842415
Pt       2.80721436       1.62074546      24.58417392        2       0.00000000       0.02103754      -0.28320783       0.51021928
Pt       5.61442782       1.62074536      24.58417379        2       0.00000000       0.00641671       0.13264364      -0.13963948
Pt       1.40360636       4.05186439      24.58417387        2       0.00000000      -0.22558714       0.18944596       0.49627501
Pt       4.21082089       4.05186396      24.58417387        2       0.00000000      -0.08637189      -0.04164952      -0.24841335
Pt       7.01803504       4.05186408      24.58417404        2       0.00000000       0.13376029       0.03919592      -0.03412654
Pt       2.80721273       6.48298349      24.58417384        2       0.00000000       0.09631516      -0.02344052      -0.12624173
Pt       5.61442806       6.48298330      24.58417399        2       0.00000000       0.08533084       0.12979355      -0.03750984
Pt       8.42164222       6.48298344      24.58417375        2       0.00000000       0.01666286       0.02653860      -0.02414576
Pt       0.05671964       0.05224882      26.91281639        1       0.00000000       0.02324750       0.00341392       0.00805630
Pt       2.89064729       0.10705828      26.95084868        1       0.00000000      -0.00487250       0.01561399      -0.00625766
Pt       5.73379611       0.08982015      26.87940480        1       0.00000000       0.01035372      -0.01684309      -0.00688997
Pt       1.45951339       2.47582246      26.91068367        1       0.00000000       0.00655444       0.00592404      -0.00401339
Pt       4.26988889       2.49113811      26.93779566        1       0.00000000       0.00309628       0.00820367       0.00659665
Pt       7.07277692       2.48988762      26.91257123        1       0.00000000       0.02893500      -0.01852008       0.01256525
Pt       2.87331880       4.91956255      26.93893764        1       0.00000000       0.01758829      -0.03398500       0.00298841
Pt       5.59738242       4.87433573      26.84005356        1       0.00000000      -0.00003287      -0.02461908       0.02711294
Pt       8.54665636       4.89985493      26.94777793        1       0.00000000       0.00093332      -0.01127149      -0.00489547
O        7.64757160       6.05028155      28.58125599        0       0.50000000       0.02454298       0.00535095       0.04279091
H        8.40179745       6.47611605      29.04739496        0       0.50000000      -0.01516158       0.01020694      -0.02620487
