38
Lattice="8.421641763931781 0.0 0.0 4.2108208819658905 7.293355709136913 0.0 0.0 0.0 46.87624170604845" Properties=species:S:1:pos:R:3:tags:I:1:initial_magmoms:R:1:forces:R:3 charge=0 spin=0 energy=-196.55135103756749 free_energy=-196.55135103756749 stress="0.009092746302485466 -0.00039759266655892134 -0.00020688612130470574 -0.00039759266655892134 0.009426913224160671 -8.132495713653043e-05 -0.00020688612130470574 -8.132495713653043e-05 -0.00032630038913339376" pbc="T T T"
Pt      -0.00000011      -0.00000005      19.95723442        4       0.00000000      -0.00402597       0.01163715      -0.02204935
Pt       2.80721395      -0.00000019      19.95723450        4       0.00000000      -0.00952556      -0.01172901       0.01738594
Pt       5.61442786      -0.00000007      19.95723452        4       0.00000000       0.00047817      -0.00156703       0.01481285
Pt       1.40360721       2.43111839      19.95723434        4       0.00000000      -0.00940054      -0.00494326       0.01729537
Pt       4.21082082       2.43111837      19.95723444        4       0.00000000       0.00028611       0.00115606       0.01266682
Pt       7.01803481       2.43111844      19.95723433        4       0.00000000      -0.00286121      -0.00134519       0.00328368
Pt       2.80721415       4.86223733      19.95723415        4       0.00000000       0.01494627       0.00822537       0.03340224
Pt       5.61442796       4.86223739      19.95723433        4       0.00000000       0.00498817      -0.01256552      -0.02257589
Pt       8.42164143       4.86223725      19.95723439        4       0.00000000      -0.00575398      -0.00676469       0.01318697
Pt       1.40360728       0.81037261      22.29206792        3       0.00000000      -0.03129299      -0.02206715      -0.09511161
Pt       4.21082128       0.81037249      22.29206789        3       0.00000000      -0.02089493      -0.01341799      -0.03569355
Pt       7.01803472       0.81037258      22.29206780        3       0.00000000      -0.00210265      -0.01043439      -0.07334335
Pt       2.80721447       3.24149123      22.29206774        3       0.00000000      -0.01399728      -0.02714776      -0.04599540
Pt       5.61442762       3.24149120      22.29206786        3       0.00000000      -0.00965749       0.00353356      -0.07736668
Pt       8.42164156       3.24149131      22.29206806        3       0.00000000      -0.01493262      -0.01436176      -0.07415163
Pt       4.21082090       5.67260998      22.29206740        3       0.00000000       0.01605863       0.00722574       0.05362559
Pt       7.01803486       5.67261041      22.29206774        3       0.00000000      -0.03372806      -0.02502201      -0.09034385
Pt       9.82524817       5.67261060      22.29206803        3       0.00000000      -0.02739350      -0.01001293      -0.04884919
Pt      -0.00000054       1.62074568      24.58417374        2       0.00000000       0.09631909      -0.02353026      -0.12662281
Pt       2.80721436       1.62074546      24.58417392        2       0.00000000       0.08544511       0.12981641      -0.03755923
Pt       5.61442782       1.62074536      24.58417379        2       0.00000000       0.01667595       0.02648983      -0.02408765
Pt       1.40360636       4.05186439      24.58417387        2       0.00000000       0.00605098       0.01685341      -0.02824841
Pt       4.21082089       4.05186396      24.58417387        2       0.00000000       0.02103744      -0.28302106       0.51028055
Pt       7.01803504       4.05186408      24.58417404        2       0.00000000       0.00635971       0.13263725      -0.13993727
Pt       2.80721273       6.48298349      24.58417384        2       0.00000000      -0.22549818       0.18933603       0.49635318
Pt       5.61442806       6.48298330      24.58417399        2       0.00000000      -0.08650257      -0.04171101      -0.24902552
Pt       8.42164222       6.48298344      24.58417375        2       0.00000000       0.13383009       0.03918245      -0.03406792
Pt       0.06626558       0.05734203      26.93893167        1       0.00000000       0.01618477      -0.03420894       0.00321625
Pt       2.79007577       0.01204282      26.84003155        1       0.00000000       0.00137334      -0.02388191       0.02750860
Pt       5.73945639       0.03753763      26.94774930        1       0.00000000       0.00103930      -0.01056924      -0.00455327
Pt       1.46029175       2.48325375      26.91279890        1       0.00000000       0.02391086       0.00415661       0.00815738
Pt       4.29431142       2.53831449      26.95077205        1       0.00000000      -0.00460970       0.01499504      -0.00575039
Pt       7.13750430       2.52092818      26.87935378        1       0.00000000       0.00955901      -0.01712005      -0.00658390
Pt       2.86312065       4.90694442      26.91074649        1       0.00000000       0.00655183       0.00588646      -0.00437662
Pt       5.67366105       4.92242198      26.93779004        1       0.00000000       0.00208475       0.00694661       0.00683164
Pt       8.47626938       4.92092472      26.91258027        1       0.00000000       0.02993513      -0.01807217       0.01257013
O        4.84046617       1.18811486      28.58124655        0       0.50000000       0.02459523       0.00563395       0.04255033
H        5.59461918       1.61399762      29.04748995        0       0.50000000      -0.01553251       0.00978158      -0.02683419
