38
Lattice="8.421641763931781 0.0 0.0 4.2108208819658905 7.293355709136913 0.0 0.0 0.0 46.87624170604845" Properties=species:S:1:pos:R:3:tags:I:1:initial_magmoms:R:1:forces:R:3 charge=0 spin=0 energy=-196.54989763790928 free_energy=-196.54989763790928 stress="0.00912016537040472 -0.00040915602585300803 -0.00020424046670086682 -0.00040915602585300803 0.00947935227304697 -7.704544987063855e-05 -0.00020424046670086682 -7.704544987063855e-05 -0.00028675064095295966" pbc="T T T"
Pt      -0.00000011      -0.00000005      19.95723442        4       0.00000000      -0.00811689      -0.00387865       0.01787548
Pt       2.80721395      -0.00000019      19.95723450        4       0.00000000       0.00083939       0.00187539       0.01215908
Pt       5.61442786      -0.00000007      19.95723452        4       0.00000000      -0.00177105      -0.00057236       0.00332465
Pt       1.40360721       2.43111839      19.95723434        4       0.00000000       0.01478892       0.00885235       0.03265814
Pt       4.21082082       2.43111837      19.95723444        4       0.00000000       0.00428038      -0.01101393      -0.02058063
Pt       7.01803481       2.43111844      19.95723433        4       0.00000000      -0.00446234      -0.00520301       0.01396029
Pt       2.80721415       4.86223733      19.95723415        4       0.00000000      -0.00359884       0.01224290      -0.02197555
Pt       5.61442796       4.86223739      19.95723433        4       0.00000000      -0.00848160      -0.01014850       0.01760621
Pt       8.42164143       4.86223725      19.95723439        4       0.00000000       0.00096279      -0.00071511       0.01462468
Pt       1.40360728       0.81037261      22.29206792        3       0.00000000      -0.00965762      -0.02205061      -0.04742810
Pt       4.21082128       0.81037249      22.29206789        3       0.00000000      -0.00586230       0.00560521      -0.07789622
Pt       7.01803472       0.81037258      22.29206780        3       0.00000000      -0.01119903      -0.01025345      -0.07378394
Pt       2.80721447       3.24149123      22.29206774        3       0.00000000       0.01689115       0.01145230       0.05013585
Pt       5.61442762       3.24149120      22.29206786        3       0.00000000      -0.03130982      -0.02053878      -0.08722192
Pt       8.42164156       3.24149131      22.29206806        3       0.00000000      -0.02274173      -0.00563050      -0.04801999
Pt       4.21082090       5.67260998      22.29206740        3       0.00000000      -0.02852251      -0.01966036      -0.09226669
Pt       7.01803486       5.67261041      22.29206774        3       0.00000000      -0.01788321      -0.00933378      -0.03265155
Pt       9.82524817       5.67261060      22.29206803        3       0.00000000       0.00213195      -0.00635668      -0.07260396
Pt      -0.00000054       1.62074568      24.58417374        2       0.00000000      -0.00740045       0.00084706      -0.01898889
Pt       2.80721436       1.62074546      24.58417392        2       0.00000000       0.00096035      -0.28536201       0.50705230
Pt       5.61442782       1.62074536      24.58417379        2       0.00000000       0.00215044       0.12805319      -0.14075822
Pt       1.40360636       4.05186439      24.58417387        2       0.00000000      -0.23165259       0.16817047       0.47371209
Pt       4.21082089       4.05186396      24.58417387        2       0.00000000      -0.08489819      -0.04403166      -0.24116522
Pt       7.01803504       4.05186408      24.58417404        2       0.00000000       0.11743617       0.02986580      -0.01186724
Pt       2.80721273       6.48298349      24.58417384        2       0.00000000       0.10126898      -0.03864214      -0.13321105
Pt       5.61442806       6.48298330      24.58417399        2       0.00000000       0.07451172       0.10257686      -0.00917152
Pt       8.42164222       6.48298344      24.58417375        2       0.00000000       0.00423174       0.01402993      -0.02645827
Pt       0.04729384       0.03315611      26.91417502        1       0.00000000      -0.00417952       0.01900289      -0.00311112
Pt       2.87218243       0.09220827      26.95133933        1       0.00000000       0.01420055       0.01860996      -0.00147137
Pt       5.71845677       0.07162880      26.87184033        1       0.00000000       0.03238469       0.00911121       0.00241630
Pt       1.43834871       2.46595687      26.90970309        1       0.00000000       0.03050085      -0.01169125      -0.00230048
Pt       4.25663044       2.47673953      26.93597387        1       0.00000000      -0.00491108       0.00422275       0.00549191
Pt       7.05888468       2.47624484      26.91533339        1       0.00000000       0.02179240      -0.03179280       0.00092888
Pt       2.85569999       4.90012499      26.93689418        1       0.00000000       0.02787864      -0.01094370       0.00377548
Pt       5.58533011       4.85680945      26.84929188        1       0.00000000       0.00546801       0.00290191      -0.00363076
Pt       8.52216820       4.88631169      26.95017223        1       0.00000000       0.01632761       0.02072901       0.01186738
O        7.65136592       6.06764885      28.59610462        0       0.50000000      -0.00029805      -0.02078558      -0.03607439
H        8.42647468       6.50727513      29.01160829        0       0.50000000      -0.00205991       0.01045554       0.03504835
