38
Lattice="8.421641763931781 0.0 0.0 4.2108208819658905 7.293355709136913 0.0 0.0 0.0 46.87624170604845" Properties=species:S:1:pos:R:3:tags:I:1:initial_magmoms:R:1:forces:R:3 charge=0 spin=0 energy=-194.61144396359288 free_energy=-194.61144396359288 stress="0.009898061864078045 -0.00014535382797475904 6.63460423311335e-06 -0.00014535382797475904 0.009715432301163673 -2.425141929052188e-06 6.63460423311335e-06 -2.425141929052188e-06 -0.00012573596904985607" pbc="T T T"
Pt      -0.00000011      -0.00000005      19.95723442        4       0.00000000      -0.00174716       0.00053683       0.01233003
Pt       2.80721395      -0.00000019      19.95723450        4       0.00000000      -0.00055041       0.00296292       0.01179573
Pt       5.61442786      -0.00000007      19.95723452        4       0.00000000       0.00068106       0.00068056       0.01416697
Pt       1.40360721       2.43111839      19.95723434        4       0.00000000       0.00283629       0.00436368      -0.00284461
Pt       4.21082082       2.43111837      19.95723444        4       0.00000000      -0.00250357       0.00133037       0.00959845
Pt       7.01803481       2.43111844      19.95723433        4       0.00000000       0.00017359      -0.00119495       0.01301782
Pt       2.80721415       4.86223733      19.95723415        4       0.00000000      -0.00183292      -0.00495194      -0.00270922
Pt       5.61442796       4.86223739      19.95723433        4       0.00000000      -0.00192630      -0.00299637       0.01057090
Pt       8.42164143       4.86223725      19.95723439        4       0.00000000       0.00515777      -0.00125701       0.01147384
Pt       1.40360728       0.81037261      22.29206792        3       0.00000000      -0.00639379      -0.00453229      -0.04148998
Pt       4.21082128       0.81037249      22.29206789        3       0.00000000       0.00455018      -0.00703050      -0.04074870
Pt       7.01803472       0.81037258      22.29206780        3       0.00000000      -0.00269953      -0.00012005      -0.04189271
Pt       2.80721447       3.24149123      22.29206774        3       0.00000000       0.00124255      -0.00121902       0.02730458
Pt       5.61442762       3.24149120      22.29206786        3       0.00000000       0.01059092       0.00150037      -0.03965082
Pt       8.42164156       3.24149131      22.29206806        3       0.00000000      -0.00264151      -0.00429379      -0.02404028
Pt       4.21082090       5.67260998      22.29206740        3       0.00000000       0.00200090       0.00751279      -0.04185662
Pt       7.01803486       5.67261041      22.29206774        3       0.00000000      -0.00516136       0.00068747      -0.03437814
Pt       9.82524817       5.67261060      22.29206803        3       0.00000000       0.00469243       0.00386573      -0.02140408
Pt      -0.00000054       1.62074568      24.58417374        2       0.00000000       0.00313392      -0.01774074       0.02533683
Pt       2.80721436       1.62074546      24.58417392        2       0.00000000      -0.00863253       0.02148810      -0.02077390
Pt       5.61442782       1.62074536      24.58417379        2       0.00000000       0.00243233       0.00173516       0.01497402
Pt       1.40360636       4.05186439      24.58417387        2       0.00000000      -0.02077324       0.01335968       0.02698822
Pt       4.21082089       4.05186396      24.58417387        2       0.00000000      -0.01645759      -0.00984696      -0.02350299
Pt       7.01803504       4.05186408      24.58417404        2       0.00000000       0.01948906      -0.00145375       0.02429411
Pt       2.80721273       6.48298349      24.58417384        2       0.00000000       0.01280785       0.00273262       0.02458190
Pt       5.61442806       6.48298330      24.58417399        2       0.00000000       0.00166890      -0.00028998       0.04334237
Pt       8.42164222       6.48298344      24.58417375        2       0.00000000       0.00630670      -0.00897532       0.01970410
Pt      -0.00879271       0.00512682      26.92028572        1       0.00000000       0.04231100      -0.02305299      -0.00654812
Pt       2.83211439       0.04086069      26.90585283        1       0.00000000       0.00039055      -0.00212324      -0.00348780
Pt       5.62068200       0.00178403      26.91585560        1       0.00000000       0.01621712      -0.01503543       0.00459524
Pt       1.40089652       2.43773700      26.91584851        1       0.00000000      -0.01907900       0.00755904       0.00829419
Pt       4.21162167       2.43085472      26.91715414        1       0.00000000      -0.00098870       0.00099004       0.02319523
Pt       7.02003046       2.42387266      26.91485470        1       0.00000000       0.02126676      -0.00771900       0.00162718
Pt       2.80117412       4.86170460      26.91664863        1       0.00000000      -0.01689488       0.01417965       0.01072961
Pt       5.58989449       4.82092402      26.90616499        1       0.00000000      -0.00083158       0.00273149      -0.00102854
Pt       8.43034314       4.85681784      26.92069073        1       0.00000000      -0.04120043       0.02183007       0.00048225
O        6.31818511       6.07642217      29.43507464        0       0.50000000       0.02326314      -0.01666495       0.00947546
H        6.31324154       6.07968940      28.44130760        0       0.50000000      -0.03089865       0.02045156      -0.00152243
