38
Lattice="8.421641763931781 0.0 0.0 4.2108208819658905 7.293355709136913 0.0 0.0 0.0 46.87624170604845" Properties=species:S:1:pos:R:3:tags:I:1:initial_magmoms:R:1:forces:R:3 charge=0 spin=0 energy=-194.61144396359288 free_energy=-194.61144396359288 stress="0.009898066520690918 -0.00014535921218339354 6.631481028307462e-06 -0.00014535921218339354 0.009715431369841099 -2.423182877464569e-06 6.631481028307462e-06 -2.423182877464569e-06 -0.00012573294225148857" pbc="T T T"
Pt      -0.00000011      -0.00000005      19.95723442        4       0.00000000      -0.00174719       0.00053689       0.01233020
Pt       2.80721395      -0.00000019      19.95723450        4       0.00000000      -0.00055028       0.00296286       0.01179571
Pt       5.61442786      -0.00000007      19.95723452        4       0.00000000       0.00068105       0.00068063       0.01416699
Pt       1.40360721       2.43111839      19.95723434        4       0.00000000       0.00283622       0.00436384      -0.00284465
Pt       4.21082082       2.43111837      19.95723444        4       0.00000000      -0.00250343       0.00133027       0.00959840
Pt       7.01803481       2.43111844      19.95723433        4       0.00000000       0.00017360      -0.00119488       0.01301778
Pt       2.80721415       4.86223733      19.95723415        4       0.00000000      -0.00183304      -0.00495193      -0.00270913
Pt       5.61442796       4.86223739      19.95723433        4       0.00000000      -0.00192610      -0.00299637       0.01057084
Pt       8.42164143       4.86223725      19.95723439        4       0.00000000       0.00515782      -0.00125707       0.01147382
Pt       1.40360728       0.81037261      22.29206792        3       0.00000000      -0.00639383      -0.00453233      -0.04148991
Pt       4.21082128       0.81037249      22.29206789        3       0.00000000       0.00455039      -0.00703062      -0.04074885
Pt       7.01803472       0.81037258      22.29206780        3       0.00000000      -0.00269964      -0.00012010      -0.04189266
Pt       2.80721447       3.24149123      22.29206774        3       0.00000000       0.00124267      -0.00121904       0.02730461
Pt       5.61442762       3.24149120      22.29206786        3       0.00000000       0.01059071       0.00150051      -0.03965070
Pt       8.42164156       3.24149131      22.29206806        3       0.00000000      -0.00264153      -0.00429384      -0.02404037
Pt       4.21082090       5.67260998      22.29206740        3       0.00000000       0.00200094       0.00751284      -0.04185687
Pt       7.01803486       5.67261041      22.29206774        3       0.00000000      -0.00516138       0.00068746      -0.03437801
Pt       9.82524817       5.67261060      22.29206803        3       0.00000000       0.00469229       0.00386591      -0.02140419
Pt      -0.00000054       1.62074568      24.58417374        2       0.00000000       0.00313376      -0.01774075       0.02533713
Pt       2.80721436       1.62074546      24.58417392        2       0.00000000      -0.00863275       0.02148806      -0.02077455
Pt       5.61442782       1.62074536      24.58417379        2       0.00000000       0.00243292       0.00173509       0.01497326
Pt       1.40360636       4.05186439      24.58417387        2       0.00000000      -0.02077327       0.01335970       0.02698856
Pt       4.21082089       4.05186396      24.58417387        2       0.00000000      -0.01645774      -0.00984734      -0.02350318
Pt       7.01803504       4.05186408      24.58417404        2       0.00000000       0.01948909      -0.00145391       0.02429415
Pt       2.80721273       6.48298349      24.58417384        2       0.00000000       0.01280769       0.00273294       0.02458254
Pt       5.61442806       6.48298330      24.58417399        2       0.00000000       0.00166889      -0.00028971       0.04334173
Pt       8.42164222       6.48298344      24.58417375        2       0.00000000       0.00630640      -0.00897562       0.01970367
Pt      -0.00879257       0.00512682      26.92028565        1       0.00000000       0.04231023      -0.02305344      -0.00654773
Pt       2.83211423       0.04086068      26.90585278        1       0.00000000       0.00039027      -0.00212327      -0.00348803
Pt       5.62068197       0.00178399      26.91585571        1       0.00000000       0.01621958      -0.01503609       0.00459577
Pt       1.40089658       2.43773696      26.91584833        1       0.00000000      -0.01908144       0.00756198       0.00829548
Pt       4.21162172       2.43085466      26.91715416        1       0.00000000      -0.00098858       0.00099279       0.02319584
Pt       7.02003057       2.42387262      26.91485475        1       0.00000000       0.02126738      -0.00771930       0.00162786
Pt       2.80117414       4.86170462      26.91664862        1       0.00000000      -0.01689824       0.01417981       0.01073042
Pt       5.58989449       4.82092410      26.90616505        1       0.00000000      -0.00083206       0.00272893      -0.00102790
Pt       8.43034298       4.85681792      26.92069078        1       0.00000000      -0.04120009       0.02182968       0.00048246
O        6.31818509       6.07642219      29.43507462        0       0.50000000       0.02326576      -0.01666693       0.00947258
H        6.31324155       6.07968939      28.44130761        0       0.50000000      -0.03089715       0.02045215      -0.00152311
