38
Lattice="8.421641763931781 0.0 0.0 4.2108208819658905 7.293355709136913 0.0 0.0 0.0 46.87624170604845" Properties=species:S:1:pos:R:3:tags:I:1:initial_magmoms:R:1:forces:R:3 charge=0 spin=0 energy=-196.55129763180577 free_energy=-196.55129763180577 stress="0.009092213585972786 -0.0003975873696617782 -0.00020740169566124678 -0.0003975873696617782 0.009427154436707497 -8.174211689038202e-05 -0.00020740169566124678 -8.174211689038202e-05 -0.0003272593894507736" pbc="T T T"
Pt      -0.00000011      -0.00000005      19.95723442        4       0.00000000      -0.00401986       0.01161382      -0.02203569
Pt       2.80721395      -0.00000019      19.95723450        4       0.00000000      -0.00951780      -0.01173584       0.01738979
Pt       5.61442786      -0.00000007      19.95723452        4       0.00000000       0.00049781      -0.00156304       0.01480713
Pt       1.40360721       2.43111839      19.95723434        4       0.00000000      -0.00937511      -0.00491728       0.01730697
Pt       4.21082082       2.43111837      19.95723444        4       0.00000000       0.00030584       0.00115217       0.01265707
Pt       7.01803481       2.43111844      19.95723433        4       0.00000000      -0.00286266      -0.00134654       0.00327571
Pt       2.80721415       4.86223733      19.95723415        4       0.00000000       0.01492951       0.00821228       0.03339026
Pt       5.61442796       4.86223739      19.95723433        4       0.00000000       0.00500808      -0.01257758      -0.02259163
Pt       8.42164143       4.86223725      19.95723439        4       0.00000000      -0.00572511      -0.00677223       0.01318614
Pt       1.40360728       0.81037261      22.29206792        3       0.00000000      -0.03122685      -0.02210335      -0.09517973
Pt       4.21082128       0.81037249      22.29206789        3       0.00000000      -0.02085560      -0.01344376      -0.03571505
Pt       7.01803472       0.81037258      22.29206780        3       0.00000000      -0.00206019      -0.01042864      -0.07329690
Pt       2.80721447       3.24149123      22.29206774        3       0.00000000      -0.01395167      -0.02718830      -0.04584381
Pt       5.61442762       3.24149120      22.29206786        3       0.00000000      -0.00959247       0.00352713      -0.07736500
Pt       8.42164156       3.24149131      22.29206806        3       0.00000000      -0.01491135      -0.01437257      -0.07415158
Pt       4.21082090       5.67260998      22.29206740        3       0.00000000       0.01613930       0.00716433       0.05358635
Pt       7.01803486       5.67261041      22.29206774        3       0.00000000      -0.03371200      -0.02504899      -0.09044063
Pt       9.82524817       5.67261060      22.29206803        3       0.00000000      -0.02738546      -0.01002481      -0.04871414
Pt      -0.00000054       1.62074568      24.58417374        2       0.00000000       0.09609026      -0.02351312      -0.12650327
Pt       2.80721436       1.62074546      24.58417392        2       0.00000000       0.08518065       0.13031341      -0.03840109
Pt       5.61442782       1.62074536      24.58417379        2       0.00000000       0.01672692       0.02635738      -0.02410213
Pt       1.40360636       4.05186439      24.58417387        2       0.00000000       0.00600395       0.01695067      -0.02849988
Pt       4.21082089       4.05186396      24.58417387        2       0.00000000       0.02084523      -0.28288922       0.50963521
Pt       7.01803504       4.05186408      24.58417404        2       0.00000000       0.00622110       0.13269846      -0.13997810
Pt       2.80721273       6.48298349      24.58417384        2       0.00000000      -0.22579798       0.18944290       0.49657691
Pt       5.61442806       6.48298330      24.58417399        2       0.00000000      -0.08670243      -0.04175473      -0.24791363
Pt       8.42164222       6.48298344      24.58417375        2       0.00000000       0.13420148       0.03920449      -0.03472861
Pt       0.06574539       0.05741889      26.93896299        1       0.00000000       0.01979862      -0.03474417       0.00271006
Pt       2.79036788       0.01233580      26.83974553        1       0.00000000      -0.00243776      -0.02614552       0.02838831
Pt       5.73942095       0.03762991      26.94793950        1       0.00000000       0.00041286      -0.01129419      -0.00520090
Pt       1.46000738       2.48331316      26.91273883        1       0.00000000       0.02421089       0.00369449       0.00831999
Pt       4.29413408       2.53824153      26.95069073        1       0.00000000      -0.00505948       0.01418169      -0.00509244
Pt       7.13734537       2.52103197      26.87941677        1       0.00000000       0.00975033      -0.01719914      -0.00666737
Pt       2.86302364       4.90684552      26.91070661        1       0.00000000       0.00615476       0.00656409      -0.00406884
Pt       5.67322721       4.92204521      26.93780100        1       0.00000000       0.00402024       0.01047502       0.00637992
Pt       8.47612500       4.92109756      26.91243181        1       0.00000000       0.02947395      -0.01860067       0.01308508
O        4.84041144       1.18781305      28.58135944        0       0.50000000       0.02222687       0.00557638       0.04107317
H        5.59430085       1.61405685      29.04755465        0       0.50000000      -0.01300506       0.01053512      -0.02527743
