38
Lattice="8.421641763931781 0.0 0.0 4.2108208819658905 7.293355709136913 0.0 0.0 0.0 46.87624170604845" Properties=species:S:1:pos:R:3:tags:I:1:initial_magmoms:R:1:forces:R:3 charge=0 spin=0 energy=-196.5510611205753 free_energy=-196.5510611205753 stress="0.009000339545309544 0.0003535725991241634 0.00018445444584358484 0.0003535725991241634 0.009518759325146675 -0.00013885219232179224 0.00018445444584358484 -0.00013885219232179224 -0.00032006771652959287" pbc="T T T"
Pt      -0.00000011      -0.00000005      19.95723442        4       0.00000000       0.00258604      -0.00183208       0.00329265
Pt       2.80721395      -0.00000019      19.95723450        4       0.00000000       0.00100650       0.00128761       0.01495556
Pt       5.61442786      -0.00000007      19.95723452        4       0.00000000       0.00876645      -0.00146805       0.01327700
Pt       1.40360721       2.43111839      19.95723434        4       0.00000000      -0.00780927      -0.00907659      -0.02182895
Pt       4.21082082       2.43111837      19.95723444        4       0.00000000      -0.01445611       0.00878818       0.03332338
Pt       7.01803481       2.43111844      19.95723433        4       0.00000000       0.00885646      -0.00562654       0.01719533
Pt       2.80721415       4.86223733      19.95723415        4       0.00000000       0.00838849       0.01064399      -0.02267375
Pt       5.61442796       4.86223739      19.95723433        4       0.00000000      -0.00119079      -0.00014417       0.01249494
Pt       8.42164143       4.86223725      19.95723439        4       0.00000000       0.01500392      -0.00238745       0.01733473
Pt       1.40360728       0.81037261      22.29206792        3       0.00000000       0.00984667       0.00350162      -0.07243514
Pt       4.21082128       0.81037249      22.29206789        3       0.00000000       0.02249942      -0.01865879      -0.04824503
Pt       7.01803472       0.81037258      22.29206780        3       0.00000000       0.01986945      -0.00562280      -0.07400588
Pt       2.80721447       3.24149123      22.29206774        3       0.00000000      -0.01361368       0.01104215       0.05454571
Pt       5.61442762       3.24149120      22.29206786        3       0.00000000       0.03093350       0.00164339      -0.04587004
Pt       8.42164156       3.24149131      22.29206806        3       0.00000000       0.03470042      -0.01565447      -0.09476491
Pt       4.21082090       5.67260998      22.29206740        3       0.00000000       0.00177026      -0.00988492      -0.07730553
Pt       7.01803486       5.67261041      22.29206774        3       0.00000000       0.02199386      -0.01119237      -0.03579838
Pt       9.82524817       5.67261060      22.29206803        3       0.00000000       0.03859539      -0.01654212      -0.09048995
Pt      -0.00000054       1.62074568      24.58417374        2       0.00000000      -0.02673914       0.09455813      -0.13098051
Pt       2.80721436       1.62074546      24.58417392        2       0.00000000      -0.05023353      -0.29098299       0.49949539
Pt       5.61442782       1.62074536      24.58417379        2       0.00000000      -0.01830700      -0.00337641      -0.02509982
Pt       1.40360636       4.05186439      24.58417387        2       0.00000000       0.07968284      -0.05512723      -0.24798006
Pt       4.21082089       4.05186396      24.58417387        2       0.00000000       0.23184904       0.15655233       0.50657654
Pt       7.01803504       4.05186408      24.58417404        2       0.00000000      -0.15761633       0.00697168      -0.04495697
Pt       2.80721273       6.48298349      24.58417384        2       0.00000000      -0.11759681      -0.06222982      -0.14346537
Pt       5.61442806       6.48298330      24.58417399        2       0.00000000      -0.02986436       0.00240738      -0.02221671
Pt       8.42164222       6.48298344      24.58417375        2       0.00000000      -0.10253252       0.09937876      -0.03732138
Pt      -0.13792372       0.05844370      26.87897752        1       0.00000000       0.01753702       0.00995259      -0.00230490
Pt       2.71258961       0.08939427      26.94889684        1       0.00000000       0.00409229      -0.00152301       0.00148545
Pt       5.53708143       0.01524660      26.91191580        1       0.00000000      -0.00385450       0.04659332       0.01491368
Pt       1.32075299       2.45850189      26.93872787        1       0.00000000       0.02461949       0.03892099       0.00356808
Pt       4.14454299       2.45707038      26.91156584        1       0.00000000      -0.00790115      -0.00187108      -0.00823632
Pt       6.94705140       2.45328575      26.91228131        1       0.00000000      -0.02990058       0.02020908       0.00997306
Pt       2.72566669       4.88299303      26.93759352        1       0.00000000      -0.00942929      -0.00495085       0.00692952
Pt       5.48001641       4.87975788      26.94922013        1       0.00000000       0.00199810       0.00066270       0.01232361
Pt       8.41726324       4.84194698      26.83847738        1       0.00000000       0.03209777       0.00780595       0.03661880
O        6.37823885       6.03176009      28.58573480        0       0.50000000       0.00575639      -0.01510054      -0.01009681
H        5.62840112       6.46606389      29.04874620        0       0.50000000      -0.03140466       0.01233228      -0.00222714
