38
Lattice="8.421641763931781 0.0 0.0 4.2108208819658905 7.293355709136913 0.0 0.0 0.0 46.87624170604845" Properties=species:S:1:pos:R:3:tags:I:1:initial_magmoms:R:1:forces:R:3 charge=0 spin=0 energy=-196.55126711422764 free_energy=-196.55126711422764 stress="0.009091276675462723 -0.00039771563024260104 -0.00020751664123963565 -0.00039771563024260104 0.009426801465451717 -8.19284759927541e-05 -0.00020751664123963565 -8.19284759927541e-05 -0.0003280189703218639" pbc="T T T"
Pt      -0.00000011      -0.00000005      19.95723442        4       0.00000000      -0.00401459       0.01159272      -0.02202829
Pt       2.80721395      -0.00000019      19.95723450        4       0.00000000      -0.00952009      -0.01174405       0.01738812
Pt       5.61442786      -0.00000007      19.95723452        4       0.00000000       0.00051442      -0.00155629       0.01480732
Pt       1.40360721       2.43111839      19.95723434        4       0.00000000      -0.00936577      -0.00490615       0.01730971
Pt       4.21082082       2.43111837      19.95723444        4       0.00000000       0.00032332       0.00115047       0.01265117
Pt       7.01803481       2.43111844      19.95723433        4       0.00000000      -0.00286183      -0.00134385       0.00326924
Pt       2.80721415       4.86223733      19.95723415        4       0.00000000       0.01492476       0.00820790       0.03338473
Pt       5.61442796       4.86223739      19.95723433        4       0.00000000       0.00501820      -0.01258256      -0.02260185
Pt       8.42164143       4.86223725      19.95723439        4       0.00000000      -0.00570978      -0.00678023       0.01318255
Pt       1.40360728       0.81037261      22.29206792        3       0.00000000      -0.03119107      -0.02212309      -0.09519832
Pt       4.21082128       0.81037249      22.29206789        3       0.00000000      -0.02083117      -0.01345338      -0.03574485
Pt       7.01803472       0.81037258      22.29206780        3       0.00000000      -0.00204701      -0.01041959      -0.07325458
Pt       2.80721447       3.24149123      22.29206774        3       0.00000000      -0.01393114      -0.02722289      -0.04579519
Pt       5.61442762       3.24149120      22.29206786        3       0.00000000      -0.00955380       0.00351631      -0.07736403
Pt       8.42164156       3.24149131      22.29206806        3       0.00000000      -0.01489513      -0.01437428      -0.07414330
Pt       4.21082090       5.67260998      22.29206740        3       0.00000000       0.01619237       0.00710307       0.05364336
Pt       7.01803486       5.67261041      22.29206774        3       0.00000000      -0.03369477      -0.02506928      -0.09048572
Pt       9.82524817       5.67261060      22.29206803        3       0.00000000      -0.02738608      -0.01003207      -0.04865468
Pt      -0.00000054       1.62074568      24.58417374        2       0.00000000       0.09594488      -0.02357848      -0.12680547
Pt       2.80721436       1.62074546      24.58417392        2       0.00000000       0.08509577       0.13067648      -0.03908446
Pt       5.61442782       1.62074536      24.58417379        2       0.00000000       0.01677042       0.02620582      -0.02404975
Pt       1.40360636       4.05186439      24.58417387        2       0.00000000       0.00601118       0.01703877      -0.02849701
Pt       4.21082089       4.05186396      24.58417387        2       0.00000000       0.02070515      -0.28259343       0.50919056
Pt       7.01803504       4.05186408      24.58417404        2       0.00000000       0.00607894       0.13274285      -0.14031036
Pt       2.80721273       6.48298349      24.58417384        2       0.00000000      -0.22593568       0.18942961       0.49678972
Pt       5.61442806       6.48298330      24.58417399        2       0.00000000      -0.08695281      -0.04181939      -0.24768946
Pt       8.42164222       6.48298344      24.58417375        2       0.00000000       0.13453466       0.03923127      -0.03516502
Pt       0.06552136       0.05750314      26.93897331        1       0.00000000       0.02110417      -0.03538159       0.00258939
Pt       2.79049341       0.01250193      26.83952741        1       0.00000000      -0.00385173      -0.02707560       0.02938011
Pt       5.73941706       0.03761778      26.94804453        1       0.00000000      -0.00001435      -0.01104615      -0.00525586
Pt       1.45978000       2.48324311      26.91267727        1       0.00000000       0.02501850       0.00413304       0.00853791
Pt       4.29405368       2.53833221      26.95054737        1       0.00000000      -0.00505233       0.01287106      -0.00400699
Pt       7.13733150       2.52110246      26.87941452        1       0.00000000       0.00910945      -0.01751567      -0.00641787
Pt       2.86295673       4.90678567      26.91073405        1       0.00000000       0.00586181       0.00699831      -0.00417751
Pt       5.67308143       4.92193639      26.93779697        1       0.00000000       0.00441459       0.01181239       0.00630456
Pt       8.47590742       4.92116249      26.91233336        1       0.00000000       0.03013332      -0.01862866       0.01346665
O        4.84048373       1.18764114      28.58145324        0       0.50000000       0.02049055       0.00584976       0.03950371
H        5.59411067       1.61421925      29.04768406        0       0.50000000      -0.01143705       0.01068691      -0.02466825
