38
Lattice="8.421641763931781 0.0 0.0 4.2108208819658905 7.293355709136913 0.0 0.0 0.0 46.87624170604845" Properties=species:S:1:pos:R:3:tags:I:1:initial_magmoms:R:1:forces:R:3 charge=0 spin=0 energy=-196.55134722287022 free_energy=-196.55134722287022 stress="0.009093071334064007 -0.0003975204308517277 -0.00020699933520518243 -0.0003975204308517277 0.009427148848772049 -8.136827091220766e-05 -0.00020699933520518243 -8.136827091220766e-05 -0.00032625405583530664" pbc="T T T"
Pt      -0.00000011      -0.00000005      19.95723442        4       0.00000000      -0.00402658       0.01164032      -0.02204824
Pt       2.80721395      -0.00000019      19.95723450        4       0.00000000      -0.00952147      -0.01172707       0.01738844
Pt       5.61442786      -0.00000007      19.95723452        4       0.00000000       0.00047455      -0.00157032       0.01481071
Pt       1.40360721       2.43111839      19.95723434        4       0.00000000      -0.00939721      -0.00494050       0.01729788
Pt       4.21082082       2.43111837      19.95723444        4       0.00000000       0.00028170       0.00115521       0.01266672
Pt       7.01803481       2.43111844      19.95723433        4       0.00000000      -0.00286227      -0.00134775       0.00328464
Pt       2.80721415       4.86223733      19.95723415        4       0.00000000       0.01494281       0.00822299       0.03340088
Pt       5.61442796       4.86223739      19.95723433        4       0.00000000       0.00498964      -0.01256678      -0.02257600
Pt       8.42164143       4.86223725      19.95723439        4       0.00000000      -0.00575231      -0.00676261       0.01318889
Pt       1.40360728       0.81037261      22.29206792        3       0.00000000      -0.03129090      -0.02206839      -0.09512338
Pt       4.21082128       0.81037249      22.29206789        3       0.00000000      -0.02089625      -0.01342235      -0.03568202
Pt       7.01803472       0.81037258      22.29206780        3       0.00000000      -0.00209765      -0.01043910      -0.07335348
Pt       2.80721447       3.24149123      22.29206774        3       0.00000000      -0.01399363      -0.02714201      -0.04597011
Pt       5.61442762       3.24149120      22.29206786        3       0.00000000      -0.00965823       0.00353618      -0.07736889
Pt       8.42164156       3.24149131      22.29206806        3       0.00000000      -0.01493513      -0.01436593      -0.07415446
Pt       4.21082090       5.67260998      22.29206740        3       0.00000000       0.01605556       0.00723821       0.05357863
Pt       7.01803486       5.67261041      22.29206774        3       0.00000000      -0.03373268      -0.02501976      -0.09035069
Pt       9.82524817       5.67261060      22.29206803        3       0.00000000      -0.02738993      -0.01001333      -0.04883514
Pt      -0.00000054       1.62074568      24.58417374        2       0.00000000       0.09633203      -0.02347601      -0.12639390
Pt       2.80721436       1.62074546      24.58417392        2       0.00000000       0.08540160       0.12976025      -0.03745222
Pt       5.61442782       1.62074536      24.58417379        2       0.00000000       0.01666995       0.02653782      -0.02411764
Pt       1.40360636       4.05186439      24.58417387        2       0.00000000       0.00602003       0.01683021      -0.02837485
Pt       4.21082089       4.05186396      24.58417387        2       0.00000000       0.02105895      -0.28314656       0.51026773
Pt       7.01803504       4.05186408      24.58417404        2       0.00000000       0.00640404       0.13263629      -0.13974813
Pt       2.80721273       6.48298349      24.58417384        2       0.00000000      -0.22552200       0.18939152       0.49625549
Pt       5.61442806       6.48298330      24.58417399        2       0.00000000      -0.08640863      -0.04167672      -0.24874756
Pt       8.42164222       6.48298344      24.58417375        2       0.00000000       0.13374630       0.03918225      -0.03404330
Pt       0.06620396       0.05731833      26.93893177        1       0.00000000       0.01678931      -0.03398259       0.00311980
Pt       2.79010514       0.01204951      26.84006731        1       0.00000000       0.00083454      -0.02414339       0.02719309
Pt       5.73945098       0.03757240      26.94775035        1       0.00000000       0.00102187      -0.01089604      -0.00471837
Pt       1.46034134       2.48332702      26.91281335        1       0.00000000       0.02346686       0.00366637       0.00809578
Pt       4.29429339       2.53824592      26.95082509        1       0.00000000      -0.00472223       0.01539804      -0.00612719
Pt       7.13746354       2.52092797      26.87938145        1       0.00000000       0.01000523      -0.01695760      -0.00677969
Pt       2.86312632       4.90694996      26.91070377        1       0.00000000       0.00660304       0.00585640      -0.00413748
Pt       5.67358931       4.92234931      26.93779172        1       0.00000000       0.00260272       0.00745012       0.00672761
Pt       8.47636144       4.92095387      26.91258637        1       0.00000000       0.02929411      -0.01826167       0.01253296
O        4.84041582       1.18810612      28.58122739        0       0.50000000       0.02477684       0.00546102       0.04291091
H        5.59463824       1.61392148      29.04741761        0       0.50000000      -0.01556456       0.00996311      -0.02661755
