38
Lattice="8.421641763931781 0.0 0.0 4.2108208819658905 7.293355709136913 0.0 0.0 0.0 46.87624170604845" Properties=species:S:1:pos:R:3:tags:I:1:initial_magmoms:R:1:forces:R:3 charge=0 spin=0 energy=-194.61144396359288 free_energy=-194.61144396359288 stress="0.009898058138787746 -0.0001453558070352301 6.633278189838165e-06 -0.0001453558070352301 0.00971542950719595 -2.425023922114633e-06 6.633278189838165e-06 -2.425023922114633e-06 -0.00012573703133966774" pbc="T T T"
Pt      -0.00000011      -0.00000005      19.95723442        4       0.00000000      -0.00174711       0.00053690       0.01233018
Pt       2.80721395      -0.00000019      19.95723450        4       0.00000000      -0.00055028       0.00296303       0.01179566
Pt       5.61442786      -0.00000007      19.95723452        4       0.00000000       0.00068119       0.00068049       0.01416699
Pt       1.40360721       2.43111839      19.95723434        4       0.00000000       0.00283620       0.00436374      -0.00284471
Pt       4.21082082       2.43111837      19.95723444        4       0.00000000      -0.00250356       0.00133047       0.00959836
Pt       7.01803481       2.43111844      19.95723433        4       0.00000000       0.00017367      -0.00119484       0.01301773
Pt       2.80721415       4.86223733      19.95723415        4       0.00000000      -0.00183301      -0.00495184      -0.00270917
Pt       5.61442796       4.86223739      19.95723433        4       0.00000000      -0.00192598      -0.00299651       0.01057088
Pt       8.42164143       4.86223725      19.95723439        4       0.00000000       0.00515764      -0.00125704       0.01147391
Pt       1.40360728       0.81037261      22.29206792        3       0.00000000      -0.00639373      -0.00453228      -0.04148990
Pt       4.21082128       0.81037249      22.29206789        3       0.00000000       0.00455023      -0.00703054      -0.04074869
Pt       7.01803472       0.81037258      22.29206780        3       0.00000000      -0.00269961      -0.00012009      -0.04189266
Pt       2.80721447       3.24149123      22.29206774        3       0.00000000       0.00124249      -0.00121902       0.02730459
Pt       5.61442762       3.24149120      22.29206786        3       0.00000000       0.01059085       0.00150038      -0.03965072
Pt       8.42164156       3.24149131      22.29206806        3       0.00000000      -0.00264151      -0.00429373      -0.02404040
Pt       4.21082090       5.67260998      22.29206740        3       0.00000000       0.00200094       0.00751283      -0.04185688
Pt       7.01803486       5.67261041      22.29206774        3       0.00000000      -0.00516129       0.00068749      -0.03437794
Pt       9.82524817       5.67261060      22.29206803        3       0.00000000       0.00469240       0.00386577      -0.02140413
Pt      -0.00000054       1.62074568      24.58417374        2       0.00000000       0.00313372      -0.01774078       0.02533678
Pt       2.80721436       1.62074546      24.58417392        2       0.00000000      -0.00863279       0.02148803      -0.02077440
Pt       5.61442782       1.62074536      24.58417379        2       0.00000000       0.00243286       0.00173501       0.01497335
Pt       1.40360636       4.05186439      24.58417387        2       0.00000000      -0.02077316       0.01335984       0.02698834
Pt       4.21082089       4.05186396      24.58417387        2       0.00000000      -0.01645758      -0.00984710      -0.02350241
Pt       7.01803504       4.05186408      24.58417404        2       0.00000000       0.01948897      -0.00145373       0.02429401
Pt       2.80721273       6.48298349      24.58417384        2       0.00000000       0.01280758       0.00273282       0.02458254
Pt       5.61442806       6.48298330      24.58417399        2       0.00000000       0.00166903      -0.00029002       0.04334229
Pt       8.42164222       6.48298344      24.58417375        2       0.00000000       0.00630650      -0.00897557       0.01970351
Pt      -0.00879252       0.00512682      26.92028573        1       0.00000000       0.04231010      -0.02305323      -0.00654826
Pt       2.83211428       0.04086076      26.90585276        1       0.00000000       0.00039010      -0.00212351      -0.00348752
Pt       5.62068196       0.00178398      26.91585568        1       0.00000000       0.01621976      -0.01503630       0.00459530
Pt       1.40089656       2.43773701      26.91584834        1       0.00000000      -0.01907917       0.00755908       0.00829429
Pt       4.21162164       2.43085465      26.91715414        1       0.00000000      -0.00098915       0.00099184       0.02319574
Pt       7.02003056       2.42387260      26.91485472        1       0.00000000       0.02126667      -0.00771898       0.00162737
Pt       2.80117408       4.86170464      26.91664861        1       0.00000000      -0.01689476       0.01417941       0.01072927
Pt       5.58989444       4.82092403      26.90616501        1       0.00000000      -0.00083201       0.00273149      -0.00102856
Pt       8.43034310       4.85681789      26.92069073        1       0.00000000      -0.04120035       0.02182975       0.00048251
O        6.31818510       6.07642217      29.43507461        0       0.50000000       0.02326293      -0.01666500       0.00947546
H        6.31324154       6.07968939      28.44130763        0       0.50000000      -0.03089857       0.02045161      -0.00152256
