38
Lattice="8.421641763931781 0.0 0.0 4.2108208819658905 7.293355709136913 0.0 0.0 0.0 46.87624170604845" Properties=species:S:1:pos:R:3:tags:I:1:initial_magmoms:R:1:forces:R:3 charge=0 spin=0 energy=-194.61144396359288 free_energy=-194.61144396359288 stress="0.00988717656582594 0.00015180459013208747 -5.50906770513393e-06 0.00015180459013208747 0.009726316668093204 -4.5177766878623515e-06 -5.50906770513393e-06 -4.5177766878623515e-06 -0.00012573976709973067" pbc="T T T"
Pt      -0.00000011      -0.00000005      19.95723442        4       0.00000000       0.00233181      -0.00464581      -0.00284471
Pt       2.80721395      -0.00000019      19.95723450        4       0.00000000      -0.00365078      -0.00384905       0.01148720
Pt       5.61442786      -0.00000007      19.95723452        4       0.00000000       0.00283827      -0.00099771       0.01179051
Pt       1.40360721       2.43111839      19.95723434        4       0.00000000      -0.00114519       0.00044077       0.01304104
Pt       4.21082082       2.43111837      19.95723444        4       0.00000000      -0.00162418       0.00316855       0.01058479
Pt       7.01803481       2.43111844      19.95723433        4       0.00000000       0.00133849       0.00123439       0.01233815
Pt       2.80721415       4.86223733      19.95723415        4       0.00000000       0.00238488       0.00152686       0.00959457
Pt       5.61442796       4.86223739      19.95723433        4       0.00000000      -0.00334673       0.00405916      -0.00272711
Pt       8.42164143       4.86223725      19.95723439        4       0.00000000       0.00027486      -0.00092470       0.01413438
Pt       1.40360728       0.81037261      22.29206792        3       0.00000000      -0.00239087       0.00445844      -0.02404235
Pt       4.21082128       0.81037249      22.29206789        3       0.00000000       0.00317260       0.00414199      -0.03433881
Pt       7.01803472       0.81037258      22.29206780        3       0.00000000      -0.00077346       0.00780566      -0.04154257
Pt       2.80721447       3.24149123      22.29206774        3       0.00000000      -0.00397869      -0.00988805      -0.03961650
Pt       5.61442762       3.24149120      22.29206786        3       0.00000000       0.00547590      -0.00547884      -0.04187869
Pt       8.42164156       3.24149131      22.29206806        3       0.00000000       0.00124958       0.00239004      -0.04192186
Pt       4.21082090       5.67260998      22.29206740        3       0.00000000      -0.00168159      -0.00048068       0.02730860
Pt       7.01803486       5.67261041      22.29206774        3       0.00000000       0.00102594      -0.00602651      -0.02138070
Pt       9.82524817       5.67261060      22.29206803        3       0.00000000      -0.00833201      -0.00045986      -0.04074438
Pt      -0.00000054       1.62074568      24.58417374        2       0.00000000      -0.01703312       0.00617177       0.02525034
Pt       2.80721436       1.62074546      24.58417392        2       0.00000000      -0.01102516      -0.01626208       0.02430065
Pt       5.61442782       1.62074536      24.58417379        2       0.00000000      -0.00107548      -0.00132422       0.04329478
Pt       1.40360636       4.05186439      24.58417387        2       0.00000000       0.00026442      -0.00282621       0.01506682
Pt       4.21082089       4.05186396      24.58417387        2       0.00000000      -0.00021712       0.01923945      -0.02340397
Pt       7.01803504       4.05186408      24.58417404        2       0.00000000      -0.00393464      -0.01237560       0.02463125
Pt       2.80721273       6.48298349      24.58417384        2       0.00000000       0.02286474      -0.00323397      -0.02083071
Pt       5.61442806       6.48298330      24.58417399        2       0.00000000       0.02196270       0.01117681       0.02695106
Pt       8.42164222       6.48298344      24.58417375        2       0.00000000      -0.01091212      -0.00105951       0.01967656
Pt       0.00707485      -0.00094709      26.91578324        1       0.00000000       0.01612256       0.01265362       0.00858475
Pt       2.79817916      -0.00484947      26.92069091        1       0.00000000       0.03948535       0.02482634       0.00048507
Pt       5.63734614      -0.04200167      26.90584556        1       0.00000000      -0.00199458       0.00071855      -0.00344327
Pt       1.39635483       2.43300414      26.91479676        1       0.00000000      -0.01740256      -0.01448331       0.00188594
Pt       4.18732647       2.47302839      26.90615975        1       0.00000000       0.00273407      -0.00065801      -0.00099792
Pt       7.02685787       2.43619802      26.92027534        1       0.00000000      -0.04107096      -0.02519859      -0.00648966
Pt       2.80658834       4.86167208      26.91716470        1       0.00000000       0.00131817       0.00039257       0.02314307
Pt       5.61698274       4.86774785      26.91671332        1       0.00000000       0.02074759       0.00749235       0.01043858
Pt       8.42005555       4.85591027      26.91592573        1       0.00000000      -0.02110437      -0.00644018       0.00426858
O        4.91045729       1.21455389      29.43507535        0       0.50000000      -0.02606658      -0.01181308       0.00946935
H        4.91575888       1.21720219      28.44130839        0       0.50000000       0.03316801       0.01652900      -0.00152277
