38
Lattice="8.421641763931781 0.0 0.0 4.2108208819658905 7.293355709136913 0.0 0.0 0.0 46.87624170604845" Properties=species:S:1:pos:R:3:tags:I:1:initial_magmoms:R:1:forces:R:3 charge=0 spin=0 energy=-196.55128046566807 free_energy=-196.55128046566807 stress="0.009091649204492569 -0.0003976553271058947 -0.00020746089285239577 -0.0003976553271058947 0.009426931850612164 -8.184595208149403e-05 -0.00020746089285239577 -8.184595208149403e-05 -0.000327729299897328" pbc="T T T"
Pt      -0.00000011      -0.00000005      19.95723442        4       0.00000000      -0.00401687       0.01160138      -0.02203166
Pt       2.80721395      -0.00000019      19.95723450        4       0.00000000      -0.00951902      -0.01174084       0.01738863
Pt       5.61442786      -0.00000007      19.95723452        4       0.00000000       0.00050781      -0.00155914       0.01480734
Pt       1.40360721       2.43111839      19.95723434        4       0.00000000      -0.00936944      -0.00491047       0.01730845
Pt       4.21082082       2.43111837      19.95723444        4       0.00000000       0.00031653       0.00115120       0.01265344
Pt       7.01803481       2.43111844      19.95723433        4       0.00000000      -0.00286242      -0.00134496       0.00327213
Pt       2.80721415       4.86223733      19.95723415        4       0.00000000       0.01492666       0.00820980       0.03338708
Pt       5.61442796       4.86223739      19.95723433        4       0.00000000       0.00501429      -0.01258049      -0.02259767
Pt       8.42164143       4.86223725      19.95723439        4       0.00000000      -0.00571570      -0.00677707       0.01318398
Pt       1.40360728       0.81037261      22.29206792        3       0.00000000      -0.03120517      -0.02211446      -0.09519202
Pt       4.21082128       0.81037249      22.29206789        3       0.00000000      -0.02084130      -0.01344981      -0.03573446
Pt       7.01803472       0.81037258      22.29206780        3       0.00000000      -0.00205200      -0.01042303      -0.07327098
Pt       2.80721447       3.24149123      22.29206774        3       0.00000000      -0.01393906      -0.02720860      -0.04581442
Pt       5.61442762       3.24149120      22.29206786        3       0.00000000      -0.00956942       0.00352063      -0.07736390
Pt       8.42164156       3.24149131      22.29206806        3       0.00000000      -0.01490132      -0.01437362      -0.07414673
Pt       4.21082090       5.67260998      22.29206740        3       0.00000000       0.01617135       0.00712753       0.05362027
Pt       7.01803486       5.67261041      22.29206774        3       0.00000000      -0.03370206      -0.02506140      -0.09046814
Pt       9.82524817       5.67261060      22.29206803        3       0.00000000      -0.02738549      -0.01002914      -0.04867817
Pt      -0.00000054       1.62074568      24.58417374        2       0.00000000       0.09600090      -0.02355430      -0.12668845
Pt       2.80721436       1.62074546      24.58417392        2       0.00000000       0.08512921       0.13052891      -0.03881333
Pt       5.61442782       1.62074536      24.58417379        2       0.00000000       0.01675528       0.02626571      -0.02407257
Pt       1.40360636       4.05186439      24.58417387        2       0.00000000       0.00600822       0.01700547      -0.02850031
Pt       4.21082089       4.05186396      24.58417387        2       0.00000000       0.02076131      -0.28271174       0.50936413
Pt       7.01803504       4.05186408      24.58417404        2       0.00000000       0.00613529       0.13272674      -0.14017959
Pt       2.80721273       6.48298349      24.58417384        2       0.00000000      -0.22588164       0.18943532       0.49670509
Pt       5.61442806       6.48298330      24.58417399        2       0.00000000      -0.08685230      -0.04179520      -0.24777722
Pt       8.42164222       6.48298344      24.58417375        2       0.00000000       0.13440092       0.03922014      -0.03498780
Pt       0.06561020       0.05746922      26.93896858        1       0.00000000       0.02058479      -0.03512935       0.00263742
Pt       2.79044253       0.01243501      26.83961411        1       0.00000000      -0.00328837      -0.02670879       0.02897962
Pt       5.73941889       0.03762357      26.94800251        1       0.00000000       0.00016124      -0.01115646      -0.00524085
Pt       1.45986882       2.48327093      26.91270109        1       0.00000000       0.02470699       0.00395527       0.00845680
Pt       4.29408537       2.53829550      26.95060311        1       0.00000000      -0.00505835       0.01340028      -0.00444346
Pt       7.13733851       2.52107541      26.87941504        1       0.00000000       0.00935460      -0.01739733      -0.00651522
Pt       2.86298419       4.90680864      26.91072193        1       0.00000000       0.00597305       0.00683035      -0.00413182
Pt       5.67313844       4.92197739      26.93779868        1       0.00000000       0.00426300       0.01129116       0.00633446
Pt       8.47599375       4.92113568      26.91237260        1       0.00000000       0.02986956      -0.01860759       0.01331260
O        4.84045263       1.18771041      28.58141114        0       0.50000000       0.02123932       0.00577229       0.04019270
H        5.59418225       1.61415570      29.04763447        0       0.50000000      -0.01212011       0.01059153      -0.02495538
