38
Lattice="8.421641763931781 0.0 0.0 4.2108208819658905 7.293355709136913 0.0 0.0 0.0 46.87624170604845" Properties=species:S:1:pos:R:3:tags:I:1:initial_magmoms:R:1:forces:R:3 charge=0 spin=0 energy=-196.54990145260655 free_energy=-196.54990145260655 stress="0.00912027433514595 -0.0004091330338269472 -0.00020417189807631075 -0.0004091330338269472 0.009479331783950329 -7.70245969761163e-05 -0.00020417189807631075 -7.70245969761163e-05 -0.0002866986906155944" pbc="T T T"
Pt      -0.00000011      -0.00000005      19.95723442        4       0.00000000      -0.00359820       0.01225047      -0.02198544
Pt       2.80721395      -0.00000019      19.95723450        4       0.00000000      -0.00848359      -0.01013971       0.01759862
Pt       5.61442786      -0.00000007      19.95723452        4       0.00000000       0.00095912      -0.00070652       0.01462511
Pt       1.40360721       2.43111839      19.95723434        4       0.00000000      -0.00811887      -0.00388099       0.01788697
Pt       4.21082082       2.43111837      19.95723444        4       0.00000000       0.00084244       0.00187296       0.01216065
Pt       7.01803481       2.43111844      19.95723433        4       0.00000000      -0.00177225      -0.00057529       0.00333426
Pt       2.80721415       4.86223733      19.95723415        4       0.00000000       0.01478802       0.00884609       0.03265542
Pt       5.61442796       4.86223739      19.95723433        4       0.00000000       0.00427831      -0.01102044      -0.02057480
Pt       8.42164143       4.86223725      19.95723439        4       0.00000000      -0.00445943      -0.00520815       0.01395073
Pt       1.40360728       0.81037261      22.29206792        3       0.00000000      -0.02852856      -0.01965749      -0.09228227
Pt       4.21082128       0.81037249      22.29206789        3       0.00000000      -0.01788232      -0.00931985      -0.03264607
Pt       7.01803472       0.81037258      22.29206780        3       0.00000000       0.00212203      -0.00634546      -0.07260624
Pt       2.80721447       3.24149123      22.29206774        3       0.00000000      -0.00966751      -0.02205110      -0.04743614
Pt       5.61442762       3.24149120      22.29206786        3       0.00000000      -0.00585994       0.00560230      -0.07790135
Pt       8.42164156       3.24149131      22.29206806        3       0.00000000      -0.01119832      -0.01025746      -0.07378125
Pt       4.21082090       5.67260998      22.29206740        3       0.00000000       0.01689975       0.01144689       0.05015087
Pt       7.01803486       5.67261041      22.29206774        3       0.00000000      -0.03132198      -0.02054545      -0.08721822
Pt       9.82524817       5.67261060      22.29206803        3       0.00000000      -0.02273761      -0.00563839      -0.04801708
Pt      -0.00000054       1.62074568      24.58417374        2       0.00000000       0.10127836      -0.03862575      -0.13323937
Pt       2.80721436       1.62074546      24.58417392        2       0.00000000       0.07455115       0.10258478      -0.00915813
Pt       5.61442782       1.62074536      24.58417379        2       0.00000000       0.00422276       0.01402803      -0.02644628
Pt       1.40360636       4.05186439      24.58417387        2       0.00000000      -0.00739856       0.00083538      -0.01897576
Pt       4.21082089       4.05186396      24.58417387        2       0.00000000       0.00097519      -0.28536087       0.50708044
Pt       7.01803504       4.05186408      24.58417404        2       0.00000000       0.00216654       0.12804185      -0.14077884
Pt       2.80721273       6.48298349      24.58417384        2       0.00000000      -0.23166281       0.16817424       0.47372803
Pt       5.61442806       6.48298330      24.58417399        2       0.00000000      -0.08490468      -0.04403483      -0.24119683
Pt       8.42164222       6.48298344      24.58417375        2       0.00000000       0.11744593       0.02985867      -0.01183934
Pt       0.04848755       0.03789340      26.93688527        1       0.00000000       0.02787924      -0.01097968       0.00380616
Pt       2.77811629      -0.00542981      26.84929561        1       0.00000000       0.00553777       0.00294012      -0.00362628
Pt       5.71494773       0.02407628      26.95018828        1       0.00000000       0.01638703       0.02071577       0.01180856
Pt       1.45093010       2.46425997      26.91417411        1       0.00000000      -0.00424013       0.01907549      -0.00311573
Pt       4.27581878       2.52336060      26.95135316        1       0.00000000       0.01412685       0.01854756      -0.00152126
Pt       7.12207284       2.50273542      26.87183091        1       0.00000000       0.03239701       0.00915522       0.00246040
Pt       2.84195158       4.89708123      26.90970013        1       0.00000000       0.03054305      -0.01170291      -0.00230519
Pt       5.66026769       4.90787146      26.93596851        1       0.00000000      -0.00501183       0.00417766       0.00552051
Pt       8.46249321       4.90735509      26.91533913        1       0.00000000       0.02184537      -0.03177544       0.00090761
O        4.84416209       1.20540793      28.59610041        0       0.50000000      -0.00008670      -0.02059782      -0.03583881
H        5.61924959       1.64503680      29.01165898        0       0.50000000      -0.00231250       0.01027030       0.03481640
