38
Lattice="8.421641763931781 0.0 0.0 4.2108208819658905 7.293355709136913 0.0 0.0 0.0 46.87624170604845" Properties=species:S:1:pos:R:3:tags:I:1:initial_magmoms:R:1:forces:R:3 charge=0 spin=0 energy=-196.55130144650303 free_energy=-196.55130144650303 stress="0.009092103689908981 -0.0003976057341787964 -0.00020736028091050684 -0.0003976057341787964 0.009426998905837536 -8.169485226972029e-05 -0.00020736028091050684 -8.169485226972029e-05 -0.00032734981505200267" pbc="T T T"
Pt      -0.00000011      -0.00000005      19.95723442        4       0.00000000      -0.00401937       0.01161502      -0.02203692
Pt       2.80721395      -0.00000019      19.95723450        4       0.00000000      -0.00951776      -0.01173576       0.01738939
Pt       5.61442786      -0.00000007      19.95723452        4       0.00000000       0.00049779      -0.00156289       0.01480770
Pt       1.40360721       2.43111839      19.95723434        4       0.00000000      -0.00937616      -0.00491847       0.01730578
Pt       4.21082082       2.43111837      19.95723444        4       0.00000000       0.00030595       0.00115255       0.01265698
Pt       7.01803481       2.43111844      19.95723433        4       0.00000000      -0.00286163      -0.00134631       0.00327580
Pt       2.80721415       4.86223733      19.95723415        4       0.00000000       0.01493203       0.00821343       0.03339089
Pt       5.61442796       4.86223739      19.95723433        4       0.00000000       0.00500735      -0.01257643      -0.02259080
Pt       8.42164143       4.86223725      19.95723439        4       0.00000000      -0.00572537      -0.00677230       0.01318618
Pt       1.40360728       0.81037261      22.29206792        3       0.00000000      -0.03122768      -0.02210148      -0.09517672
Pt       4.21082128       0.81037249      22.29206789        3       0.00000000      -0.02085545      -0.01344350      -0.03571421
Pt       7.01803472       0.81037258      22.29206780        3       0.00000000      -0.00206123      -0.01042894      -0.07329863
Pt       2.80721447       3.24149123      22.29206774        3       0.00000000      -0.01395096      -0.02718659      -0.04585470
Pt       5.61442762       3.24149120      22.29206786        3       0.00000000      -0.00959333       0.00352629      -0.07736634
Pt       8.42164156       3.24149131      22.29206806        3       0.00000000      -0.01490926      -0.01437259      -0.07414857
Pt       4.21082090       5.67260998      22.29206740        3       0.00000000       0.01613840       0.00716699       0.05359646
Pt       7.01803486       5.67261041      22.29206774        3       0.00000000      -0.03370984      -0.02504836      -0.09043539
Pt       9.82524817       5.67261060      22.29206803        3       0.00000000      -0.02738288      -0.01002487      -0.04872426
Pt      -0.00000054       1.62074568      24.58417374        2       0.00000000       0.09609216      -0.02351348      -0.12654528
Pt       2.80721436       1.62074546      24.58417392        2       0.00000000       0.08519270       0.13027841      -0.03837438
Pt       5.61442782       1.62074536      24.58417379        2       0.00000000       0.01672107       0.02636214      -0.02410430
Pt       1.40360636       4.05186439      24.58417387        2       0.00000000       0.00599398       0.01694863      -0.02850564
Pt       4.21082089       4.05186396      24.58417387        2       0.00000000       0.02084110      -0.28287879       0.50963330
Pt       7.01803504       4.05186408      24.58417404        2       0.00000000       0.00622188       0.13269946      -0.14001851
Pt       2.80721273       6.48298349      24.58417384        2       0.00000000      -0.22578326       0.18943454       0.49653885
Pt       5.61442806       6.48298330      24.58417399        2       0.00000000      -0.08670541      -0.04175134      -0.24799854
Pt       8.42164222       6.48298344      24.58417375        2       0.00000000       0.13416730       0.03921540      -0.03469123
Pt       0.06575904       0.05742230      26.93895721        1       0.00000000       0.01961193      -0.03475739       0.00276038
Pt       2.79033227       0.01231992      26.83976139        1       0.00000000      -0.00218401      -0.02601927       0.02834233
Pt       5.73941759       0.03761815      26.94792351        1       0.00000000       0.00041550      -0.01119739      -0.00514282
Pt       1.46000981       2.48330609      26.91273556        1       0.00000000       0.02422269       0.00374016       0.00834273
Pt       4.29413026       2.53825773      26.95068306        1       0.00000000      -0.00499646       0.01414630      -0.00507751
Pt       7.13735092       2.52103266      26.87941190        1       0.00000000       0.00968072      -0.01723817      -0.00664134
Pt       2.86301402       4.90684917      26.91070345        1       0.00000000       0.00618747       0.00654154      -0.00406708
Pt       5.67324277       4.92206274      26.93779454        1       0.00000000       0.00389185       0.01030907       0.00643747
Pt       8.47611373       4.92108886      26.91243609        1       0.00000000       0.02954351      -0.01854436       0.01307660
O        4.84040483       1.18783029      28.58133890        0       0.50000000       0.02238143       0.00561430       0.04119285
H        5.59429851       1.61405806      29.04755170        0       0.50000000      -0.01318667       0.01045445      -0.02542054
