38
Lattice="8.421641763931781 0.0 0.0 4.2108208819658905 7.293355709136913 0.0 0.0 0.0 46.87624170604845" Properties=species:S:1:pos:R:3:tags:I:1:initial_magmoms:R:1:forces:R:3 charge=0 spin=0 energy=-196.54990717465245 free_energy=-196.54990717465245 stress="0.009120365604758263 -0.00040912977419793606 -0.00020407226111274213 -0.00040912977419793606 0.009479223750531673 -7.699447451159358e-05 -0.00020407226111274213 -7.699447451159358e-05 -0.00028667435981333256" pbc="T T T"
Pt      -0.00000011      -0.00000005      19.95723442        4       0.00000000      -0.00359875       0.01224912      -0.02198609
Pt       2.80721395      -0.00000019      19.95723450        4       0.00000000      -0.00848421      -0.01013859       0.01759768
Pt       5.61442786      -0.00000007      19.95723452        4       0.00000000       0.00095625      -0.00070530       0.01462634
Pt       1.40360721       2.43111839      19.95723434        4       0.00000000      -0.00812265      -0.00388198       0.01788566
Pt       4.21082082       2.43111837      19.95723444        4       0.00000000       0.00084229       0.00187202       0.01216169
Pt       7.01803481       2.43111844      19.95723433        4       0.00000000      -0.00177208      -0.00057459       0.00333421
Pt       2.80721415       4.86223733      19.95723415        4       0.00000000       0.01478980       0.00884675       0.03265551
Pt       5.61442796       4.86223739      19.95723433        4       0.00000000       0.00427796      -0.01102078      -0.02057473
Pt       8.42164143       4.86223725      19.95723439        4       0.00000000      -0.00445952      -0.00520791       0.01395092
Pt       1.40360728       0.81037261      22.29206792        3       0.00000000      -0.02853533      -0.01965668      -0.09228548
Pt       4.21082128       0.81037249      22.29206789        3       0.00000000      -0.01788852      -0.00931383      -0.03263334
Pt       7.01803472       0.81037258      22.29206780        3       0.00000000       0.00211943      -0.00634762      -0.07260938
Pt       2.80721447       3.24149123      22.29206774        3       0.00000000      -0.00967308      -0.02204980      -0.04744944
Pt       5.61442762       3.24149120      22.29206786        3       0.00000000      -0.00586347       0.00560373      -0.07790501
Pt       8.42164156       3.24149131      22.29206806        3       0.00000000      -0.01120090      -0.01025780      -0.07377122
Pt       4.21082090       5.67260998      22.29206740        3       0.00000000       0.01690269       0.01144298       0.05014425
Pt       7.01803486       5.67261041      22.29206774        3       0.00000000      -0.03132588      -0.02054528      -0.08722010
Pt       9.82524817       5.67261060      22.29206803        3       0.00000000      -0.02273784      -0.00563646      -0.04801739
Pt      -0.00000054       1.62074568      24.58417374        2       0.00000000       0.10130776      -0.03861167      -0.13330787
Pt       2.80721436       1.62074546      24.58417392        2       0.00000000       0.07461626       0.10258072      -0.00914800
Pt       5.61442782       1.62074536      24.58417379        2       0.00000000       0.00419527       0.01400330      -0.02641831
Pt       1.40360636       4.05186439      24.58417387        2       0.00000000      -0.00740556       0.00081933      -0.01894965
Pt       4.21082089       4.05186396      24.58417387        2       0.00000000       0.00099606      -0.28536314       0.50714350
Pt       7.01803504       4.05186408      24.58417404        2       0.00000000       0.00219324       0.12802443      -0.14080937
Pt       2.80721273       6.48298349      24.58417384        2       0.00000000      -0.23170529       0.16819334       0.47376183
Pt       5.61442806       6.48298330      24.58417399        2       0.00000000      -0.08491291      -0.04402960      -0.24127062
Pt       8.42164222       6.48298344      24.58417375        2       0.00000000       0.11747572       0.02985829      -0.01178985
Pt       0.04848849       0.03790319      26.93686779        1       0.00000000       0.02785085      -0.01105581       0.00387440
Pt       2.77810831      -0.00543959      26.84929710        1       0.00000000       0.00569863       0.00302408      -0.00361107
Pt       5.71492993       0.02407909      26.95021843        1       0.00000000       0.01652396       0.02067142       0.01166479
Pt       1.45097873       2.46422840      26.91417380        1       0.00000000      -0.00434018       0.01922237      -0.00311528
Pt       4.27586809       2.52341975      26.95137664        1       0.00000000       0.01399979       0.01846655      -0.00163564
Pt       7.12208676       2.50271123      26.87181534        1       0.00000000       0.03240687       0.00923866       0.00253740
Pt       2.84194048       4.89708941      26.90969437        1       0.00000000       0.03061794      -0.01171866      -0.00231149
Pt       5.66032319       4.90789568      26.93596089        1       0.00000000      -0.00521831       0.00406721       0.00557096
Pt       8.46249024       4.90733648      26.91535054        1       0.00000000       0.02195780      -0.03173335       0.00086266
O        4.84417170       1.20540236      28.59608013        0       0.50000000       0.00007347      -0.02038646      -0.03543930
H        5.61920691       1.64503034      29.01175921        0       0.50000000      -0.00255743       0.01005096       0.03448684
