38
Lattice="8.421641763931781 0.0 0.0 4.2108208819658905 7.293355709136913 0.0 0.0 0.0 46.87624170604845" Properties=species:S:1:pos:R:3:tags:I:1:initial_magmoms:R:1:forces:R:3 charge=0 spin=0 energy=-194.6114458709415 free_energy=-194.6114458709415 stress="0.009887175634503365 0.0001518041972303763 -5.509572929440765e-06 0.0001518041972303763 0.009726319462060928 -4.516977696766844e-06 -5.509572929440765e-06 -4.516977696766844e-06 -0.00012573969434015453" pbc="T T T"
Pt      -0.00000011      -0.00000005      19.95723442        4       0.00000000       0.00233173      -0.00464573      -0.00284469
Pt       2.80721395      -0.00000019      19.95723450        4       0.00000000      -0.00365083      -0.00384910       0.01148720
Pt       5.61442786      -0.00000007      19.95723452        4       0.00000000       0.00283834      -0.00099767       0.01179051
Pt       1.40360721       2.43111839      19.95723434        4       0.00000000      -0.00114523       0.00044075       0.01304121
Pt       4.21082082       2.43111837      19.95723444        4       0.00000000      -0.00162414       0.00316845       0.01058468
Pt       7.01803481       2.43111844      19.95723433        4       0.00000000       0.00133847       0.00123436       0.01233807
Pt       2.80721415       4.86223733      19.95723415        4       0.00000000       0.00238485       0.00152687       0.00959461
Pt       5.61442796       4.86223739      19.95723433        4       0.00000000      -0.00334678       0.00405932      -0.00272711
Pt       8.42164143       4.86223725      19.95723439        4       0.00000000       0.00027500      -0.00092466       0.01413433
Pt       1.40360728       0.81037261      22.29206792        3       0.00000000      -0.00239092       0.00445841      -0.02404246
Pt       4.21082128       0.81037249      22.29206789        3       0.00000000       0.00317249       0.00414197      -0.03433882
Pt       7.01803472       0.81037258      22.29206780        3       0.00000000      -0.00077344       0.00780559      -0.04154259
Pt       2.80721447       3.24149123      22.29206774        3       0.00000000      -0.00397875      -0.00988806      -0.03961648
Pt       5.61442762       3.24149120      22.29206786        3       0.00000000       0.00547590      -0.00547874      -0.04187879
Pt       8.42164156       3.24149131      22.29206806        3       0.00000000       0.00124967       0.00238998      -0.04192175
Pt       4.21082090       5.67260998      22.29206740        3       0.00000000      -0.00168159      -0.00048061       0.02730853
Pt       7.01803486       5.67261041      22.29206774        3       0.00000000       0.00102592      -0.00602650      -0.02138069
Pt       9.82524817       5.67261060      22.29206803        3       0.00000000      -0.00833193      -0.00045987      -0.04074443
Pt      -0.00000054       1.62074568      24.58417374        2       0.00000000      -0.01703312       0.00617189       0.02525035
Pt       2.80721436       1.62074546      24.58417392        2       0.00000000      -0.01102515      -0.01626208       0.02430056
Pt       5.61442782       1.62074536      24.58417379        2       0.00000000      -0.00107551      -0.00132413       0.04329480
Pt       1.40360636       4.05186439      24.58417387        2       0.00000000       0.00026438      -0.00282631       0.01506690
Pt       4.21082089       4.05186396      24.58417387        2       0.00000000      -0.00021714       0.01923933      -0.02340390
Pt       7.01803504       4.05186408      24.58417404        2       0.00000000      -0.00393465      -0.01237564       0.02463109
Pt       2.80721273       6.48298349      24.58417384        2       0.00000000       0.02286475      -0.00323400      -0.02083058
Pt       5.61442806       6.48298330      24.58417399        2       0.00000000       0.02196267       0.01117675       0.02695107
Pt       8.42164222       6.48298344      24.58417375        2       0.00000000      -0.01091213      -0.00105961       0.01967666
Pt       0.00707474      -0.00094711      26.91578320        1       0.00000000       0.01612252       0.01265362       0.00858469
Pt       2.79817916      -0.00484947      26.92069091        1       0.00000000       0.03948591       0.02482620       0.00048456
Pt       5.63734616      -0.04200171      26.90584553        1       0.00000000      -0.00199437       0.00071866      -0.00344312
Pt       1.39635486       2.43300416      26.91479677        1       0.00000000      -0.01740275      -0.01448337       0.00188568
Pt       4.18732646       2.47302840      26.90615977        1       0.00000000       0.00273418      -0.00065794      -0.00099779
Pt       7.02685787       2.43619801      26.92027533        1       0.00000000      -0.04107156      -0.02519863      -0.00648896
Pt       2.80658834       4.86167209      26.91716470        1       0.00000000       0.00131830       0.00039242       0.02314315
Pt       5.61698274       4.86774783      26.91671330        1       0.00000000       0.02074766       0.00749242       0.01043856
Pt       8.42005557       4.85591030      26.91592574        1       0.00000000      -0.02110429      -0.00644001       0.00426865
O        4.91045735       1.21455389      29.43507539        0       0.50000000      -0.02606655      -0.01181282       0.00946902
H        4.91575888       1.21720221      28.44130839        0       0.50000000       0.03316788       0.01652874      -0.00152268
