38
Lattice="8.421641763931781 0.0 0.0 4.2108208819658905 7.293355709136913 0.0 0.0 0.0 46.87624170604845" Properties=species:S:1:pos:R:3:tags:I:1:initial_magmoms:R:1:forces:R:3 charge=0 spin=0 energy=-196.5499052673038 free_energy=-196.5499052673038 stress="0.009120333939790726 -0.00040912858094088733 -0.00020410776778589934 -0.00040912858094088733 0.009479264728724957 -7.69996113376692e-05 -0.00020410776778589934 -7.69996113376692e-05 -0.0002866833528969437" pbc="T T T"
Pt      -0.00000011      -0.00000005      19.95723442        4       0.00000000      -0.00359834       0.01224951      -0.02198609
Pt       2.80721395      -0.00000019      19.95723450        4       0.00000000      -0.00848374      -0.01013924       0.01759806
Pt       5.61442786      -0.00000007      19.95723452        4       0.00000000       0.00095734      -0.00070610       0.01462572
Pt       1.40360721       2.43111839      19.95723434        4       0.00000000      -0.00812100      -0.00388172       0.01788627
Pt       4.21082082       2.43111837      19.95723444        4       0.00000000       0.00084238       0.00187233       0.01216118
Pt       7.01803481       2.43111844      19.95723433        4       0.00000000      -0.00177212      -0.00057493       0.00333443
Pt       2.80721415       4.86223733      19.95723415        4       0.00000000       0.01478913       0.00884640       0.03265529
Pt       5.61442796       4.86223739      19.95723433        4       0.00000000       0.00427805      -0.01102076      -0.02057486
Pt       8.42164143       4.86223725      19.95723439        4       0.00000000      -0.00445936      -0.00520802       0.01395083
Pt       1.40360728       0.81037261      22.29206792        3       0.00000000      -0.02853205      -0.01965770      -0.09228421
Pt       4.21082128       0.81037249      22.29206789        3       0.00000000      -0.01788581      -0.00931710      -0.03263921
Pt       7.01803472       0.81037258      22.29206780        3       0.00000000       0.00212030      -0.00634771      -0.07260749
Pt       2.80721447       3.24149123      22.29206774        3       0.00000000      -0.00967018      -0.02205124      -0.04744455
Pt       5.61442762       3.24149120      22.29206786        3       0.00000000      -0.00586183       0.00560229      -0.07790306
Pt       8.42164156       3.24149131      22.29206806        3       0.00000000      -0.01119948      -0.01025866      -0.07377516
Pt       4.21082090       5.67260998      22.29206740        3       0.00000000       0.01690148       0.01144416       0.05014719
Pt       7.01803486       5.67261041      22.29206774        3       0.00000000      -0.03132371      -0.02054617      -0.08721914
Pt       9.82524817       5.67261060      22.29206803        3       0.00000000      -0.02273736      -0.00563820      -0.04801755
Pt      -0.00000054       1.62074568      24.58417374        2       0.00000000       0.10129187      -0.03861301      -0.13327810
Pt       2.80721436       1.62074546      24.58417392        2       0.00000000       0.07458743       0.10258350      -0.00915517
Pt       5.61442782       1.62074536      24.58417379        2       0.00000000       0.00420819       0.01401547      -0.02643081
Pt       1.40360636       4.05186439      24.58417387        2       0.00000000      -0.00740568       0.00083012      -0.01896002
Pt       4.21082089       4.05186396      24.58417387        2       0.00000000       0.00098768      -0.28535864       0.50711566
Pt       7.01803504       4.05186408      24.58417404        2       0.00000000       0.00218125       0.12803385      -0.14079575
Pt       2.80721273       6.48298349      24.58417384        2       0.00000000      -0.23168804       0.16818731       0.47374493
Pt       5.61442806       6.48298330      24.58417399        2       0.00000000      -0.08490993      -0.04403104      -0.24124292
Pt       8.42164222       6.48298344      24.58417375        2       0.00000000       0.11746134       0.02986081      -0.01180909
Pt       0.04848775       0.03790240      26.93687483        1       0.00000000       0.02785620      -0.01102750       0.00385141
Pt       2.77810951      -0.00543318      26.84929637        1       0.00000000       0.00564284       0.00299338      -0.00361674
Pt       5.71493743       0.02407970      26.95020406        1       0.00000000       0.01646316       0.02069373       0.01173146
Pt       1.45095709       2.46424453      26.91417388        1       0.00000000      -0.00429902       0.01916162      -0.00311182
Pt       4.27584572       2.52339496      26.95136513        1       0.00000000       0.01406364       0.01850300      -0.00157557
Pt       7.12207941       2.50272456      26.87182313        1       0.00000000       0.03240564       0.00920161       0.00250016
Pt       2.84194438       4.89708750      26.90969730        1       0.00000000       0.03058515      -0.01171011      -0.00230786
Pt       5.66029964       4.90788907      26.93596399        1       0.00000000      -0.00514012       0.00409995       0.00554854
Pt       8.46248953       4.90734816      26.91534561        1       0.00000000       0.02191702      -0.03175785       0.00087875
O        4.84416882       1.20540682      28.59609086        0       0.50000000       0.00004061      -0.02045615      -0.03559899
H        5.61922806       1.64503613      29.01171605        0       0.50000000      -0.00249302       0.01012286       0.03460444
