38
Lattice="8.421641763931781 0.0 0.0 4.2108208819658905 7.293355709136913 0.0 0.0 0.0 46.87624170604845" Properties=species:S:1:pos:R:3:tags:I:1:initial_magmoms:R:1:forces:R:3 charge=0 spin=0 energy=-196.55262896115147 free_energy=-196.55262896115147 stress="0.009078341536223888 -0.0003713860351126641 -0.0002104635932482779 -0.0003713860351126641 0.009469189681112766 -0.00011758861364796758 -0.0002104635932482779 -0.00011758861364796758 -0.0003057139983866364" pbc="T T T"
Pt      -0.00000011      -0.00000005      19.95723442        4       0.00000000      -0.01142460      -0.00425992       0.01707406
Pt       2.80721395      -0.00000019      19.95723450        4       0.00000000      -0.00187951       0.00170919       0.01242980
Pt       5.61442786      -0.00000007      19.95723452        4       0.00000000      -0.00461992      -0.00101642       0.00358780
Pt       1.40360721       2.43111839      19.95723434        4       0.00000000       0.01296669       0.00857523       0.03381318
Pt       4.21082082       2.43111837      19.95723444        4       0.00000000       0.00414346      -0.01219571      -0.02255471
Pt       7.01803481       2.43111844      19.95723433        4       0.00000000      -0.00795390      -0.00576013       0.01264053
Pt       2.80721415       4.86223733      19.95723415        4       0.00000000      -0.00527184       0.01208828      -0.02283859
Pt       5.61442796       4.86223739      19.95723433        4       0.00000000      -0.01153848      -0.01135503       0.01725118
Pt       8.42164143       4.86223725      19.95723439        4       0.00000000      -0.00144612      -0.00132067       0.01526995
Pt       1.40360728       0.81037261      22.29206792        3       0.00000000      -0.02168819      -0.02320882      -0.04688769
Pt       4.21082128       0.81037249      22.29206789        3       0.00000000      -0.01633595       0.00605774      -0.07814793
Pt       7.01803472       0.81037258      22.29206780        3       0.00000000      -0.02192131      -0.00985449      -0.07580211
Pt       2.80721447       3.24149123      22.29206774        3       0.00000000       0.00967864       0.00952537       0.05407111
Pt       5.61442762       3.24149120      22.29206786        3       0.00000000      -0.03947412      -0.02024628      -0.08841988
Pt       8.42164156       3.24149131      22.29206806        3       0.00000000      -0.03405637      -0.00570832      -0.04788581
Pt       4.21082090       5.67260998      22.29206740        3       0.00000000      -0.03800908      -0.01636293      -0.09391536
Pt       7.01803486       5.67261041      22.29206774        3       0.00000000      -0.02677341      -0.00876387      -0.03757218
Pt       9.82524817       5.67261060      22.29206803        3       0.00000000      -0.00728167      -0.00780302      -0.07302300
Pt      -0.00000054       1.62074568      24.58417374        2       0.00000000       0.02593373       0.00155230      -0.02271505
Pt       2.80721436       1.62074546      24.58417392        2       0.00000000       0.04602286      -0.28948265       0.49995741
Pt       5.61442782       1.62074536      24.58417379        2       0.00000000       0.02704121       0.11936069      -0.12034771
Pt       1.40360636       4.05186439      24.58417387        2       0.00000000      -0.21169418       0.18527371       0.49119797
Pt       4.21082089       4.05186396      24.58417387        2       0.00000000      -0.05775447      -0.05345367      -0.23508084
Pt       7.01803504       4.05186408      24.58417404        2       0.00000000       0.15319677       0.01604610      -0.03492242
Pt       2.80721273       6.48298349      24.58417384        2       0.00000000       0.12303046      -0.04189207      -0.12733540
Pt       5.61442806       6.48298330      24.58417399        2       0.00000000       0.09708792       0.10268096      -0.03541642
Pt       8.42164222       6.48298344      24.58417375        2       0.00000000       0.03529824       0.01374311      -0.03049164
Pt       0.08629926       0.03735159      26.91553044        1       0.00000000      -0.00422750       0.01477340      -0.00151410
Pt       2.91086465       0.10379068      26.94297958        1       0.00000000      -0.00858844      -0.00955400       0.02292852
Pt       5.76039472       0.07583120      26.87949185        1       0.00000000       0.00035085      -0.00354075      -0.00476301
Pt       1.48528192       2.47550184      26.91104855        1       0.00000000      -0.01366205      -0.02178795       0.00308831
Pt       4.29718742       2.47575941      26.94170895        1       0.00000000       0.01316957       0.03041084      -0.00213621
Pt       7.10522127       2.47124713      26.91642791        1       0.00000000      -0.00465501       0.01138776       0.00075106
Pt       2.90205038       4.89886936      26.93922434        1       0.00000000      -0.00735421       0.01677173       0.00331918
Pt       5.62514191       4.85753261      26.84407290        1       0.00000000      -0.01720031      -0.01329240       0.00653169
Pt       8.56738585       4.89392679      26.94740998        1       0.00000000      -0.00207850       0.00584713       0.01681136
O        7.65664296       6.05439685      28.58082403        0       0.50000000      -0.01001863      -0.01900721      -0.01126594
H        8.40455051       6.48625319      29.04857087        0       0.50000000       0.03898718       0.02406257       0.00231265
