38
Lattice="8.421641763931781 0.0 0.0 4.2108208819658905 7.293355709136913 0.0 0.0 0.0 46.87624170604845" Properties=species:S:1:pos:R:3:tags:I:1:initial_magmoms:R:1:forces:R:3 charge=0 spin=0 energy=-194.6114458709415 free_energy=-194.6114458709415 stress="0.009887178428471088 0.0001518046628916636 -5.509111815626966e-06 0.0001518046628916636 0.009726319462060928 -4.517647994362051e-06 -5.509111815626966e-06 -4.517647994362051e-06 -0.00012573771527968347" pbc="T T T"
Pt      -0.00000011      -0.00000005      19.95723442        4       0.00000000       0.00233170      -0.00464571      -0.00284465
Pt       2.80721395      -0.00000019      19.95723450        4       0.00000000      -0.00365092      -0.00384927       0.01148712
Pt       5.61442786      -0.00000007      19.95723452        4       0.00000000       0.00283837      -0.00099758       0.01179057
Pt       1.40360721       2.43111839      19.95723434        4       0.00000000      -0.00114521       0.00044079       0.01304121
Pt       4.21082082       2.43111837      19.95723444        4       0.00000000      -0.00162422       0.00316848       0.01058475
Pt       7.01803481       2.43111844      19.95723433        4       0.00000000       0.00133845       0.00123441       0.01233807
Pt       2.80721415       4.86223733      19.95723415        4       0.00000000       0.00238484       0.00152673       0.00959459
Pt       5.61442796       4.86223739      19.95723433        4       0.00000000      -0.00334677       0.00405924      -0.00272728
Pt       8.42164143       4.86223725      19.95723439        4       0.00000000       0.00027483      -0.00092477       0.01413435
Pt       1.40360728       0.81037261      22.29206792        3       0.00000000      -0.00239089       0.00445844      -0.02404246
Pt       4.21082128       0.81037249      22.29206789        3       0.00000000       0.00317262       0.00414193      -0.03433893
Pt       7.01803472       0.81037258      22.29206780        3       0.00000000      -0.00077328       0.00780551      -0.04154263
Pt       2.80721447       3.24149123      22.29206774        3       0.00000000      -0.00397877      -0.00988804      -0.03961638
Pt       5.61442762       3.24149120      22.29206786        3       0.00000000       0.00547596      -0.00547893      -0.04187877
Pt       8.42164156       3.24149131      22.29206806        3       0.00000000       0.00124967       0.00239000      -0.04192182
Pt       4.21082090       5.67260998      22.29206740        3       0.00000000      -0.00168162      -0.00048074       0.02730862
Pt       7.01803486       5.67261041      22.29206774        3       0.00000000       0.00102597      -0.00602650      -0.02138061
Pt       9.82524817       5.67261060      22.29206803        3       0.00000000      -0.00833170      -0.00045974      -0.04074421
Pt      -0.00000054       1.62074568      24.58417374        2       0.00000000      -0.01703332       0.00617174       0.02525033
Pt       2.80721436       1.62074546      24.58417392        2       0.00000000      -0.01102520      -0.01626203       0.02430059
Pt       5.61442782       1.62074536      24.58417379        2       0.00000000      -0.00107568      -0.00132410       0.04329537
Pt       1.40360636       4.05186439      24.58417387        2       0.00000000       0.00026431      -0.00282632       0.01506688
Pt       4.21082089       4.05186396      24.58417387        2       0.00000000      -0.00021717       0.01923974      -0.02340454
Pt       7.01803504       4.05186408      24.58417404        2       0.00000000      -0.00393481      -0.01237569       0.02463123
Pt       2.80721273       6.48298349      24.58417384        2       0.00000000       0.02286482      -0.00323361      -0.02083012
Pt       5.61442806       6.48298330      24.58417399        2       0.00000000       0.02196288       0.01117659       0.02695033
Pt       8.42164222       6.48298344      24.58417375        2       0.00000000      -0.01091211      -0.00105928       0.01967654
Pt       0.00707488      -0.00094709      26.91578321        1       0.00000000       0.01611833       0.01265343       0.00858431
Pt       2.79817914      -0.00484948      26.92069091        1       0.00000000       0.03948666       0.02482644       0.00048588
Pt       5.63734622      -0.04200189      26.90584546        1       0.00000000      -0.00199351       0.00072152      -0.00344354
Pt       1.39635481       2.43300414      26.91479675        1       0.00000000      -0.01740226      -0.01448298       0.00188594
Pt       4.18732638       2.47302862      26.90615953        1       0.00000000       0.00273516      -0.00066024      -0.00099737
Pt       7.02685790       2.43619806      26.92027533        1       0.00000000      -0.04107105      -0.02519883      -0.00649006
Pt       2.80658836       4.86167208      26.91716472        1       0.00000000       0.00131835       0.00039245       0.02314332
Pt       5.61698279       4.86774785      26.91671329        1       0.00000000       0.02074843       0.00749197       0.01043886
Pt       8.42005553       4.85591035      26.91592567        1       0.00000000      -0.02110446      -0.00644075       0.00426878
O        4.91045718       1.21455384      29.43507544        0       0.50000000      -0.02606691      -0.01181285       0.00946851
H        4.91575893       1.21720216      28.44130850        0       0.50000000       0.03316826       0.01652871      -0.00152285
