38
Lattice="8.421641763931781 0.0 0.0 4.2108208819658905 7.293355709136913 0.0 0.0 0.0 46.87624170604845" Properties=species:S:1:pos:R:3:tags:I:1:initial_magmoms:R:1:forces:R:3 charge=0 spin=0 energy=-196.54989954525792 free_energy=-196.54989954525792 stress="0.009120368398725986 -0.00040908061782829463 -0.00020414711616467685 -0.00040908061782829463 0.009479405358433723 -7.70052574807778e-05 -0.00020414711616467685 -7.70052574807778e-05 -0.0002866577124223113" pbc="T T T"
Pt      -0.00000011      -0.00000005      19.95723442        4       0.00000000      -0.00811835      -0.00387927       0.01787521
Pt       2.80721395      -0.00000019      19.95723450        4       0.00000000       0.00083899       0.00187444       0.01215942
Pt       5.61442786      -0.00000007      19.95723452        4       0.00000000      -0.00177138      -0.00057263       0.00332486
Pt       1.40360721       2.43111839      19.95723434        4       0.00000000       0.01478840       0.00885137       0.03265814
Pt       4.21082082       2.43111837      19.95723444        4       0.00000000       0.00428033      -0.01101444      -0.02058097
Pt       7.01803481       2.43111844      19.95723433        4       0.00000000      -0.00446277      -0.00520367       0.01396025
Pt       2.80721415       4.86223733      19.95723415        4       0.00000000      -0.00359923       0.01224150      -0.02197511
Pt       5.61442796       4.86223739      19.95723433        4       0.00000000      -0.00848215      -0.01014890       0.01760563
Pt       8.42164143       4.86223725      19.95723439        4       0.00000000       0.00096097      -0.00071533       0.01462468
Pt       1.40360728       0.81037261      22.29206792        3       0.00000000      -0.00966104      -0.02205143      -0.04743142
Pt       4.21082128       0.81037249      22.29206789        3       0.00000000      -0.00586505       0.00560436      -0.07789677
Pt       7.01803472       0.81037258      22.29206780        3       0.00000000      -0.01120159      -0.01025436      -0.07378016
Pt       2.80721447       3.24149123      22.29206774        3       0.00000000       0.01688971       0.01144850       0.05012936
Pt       5.61442762       3.24149120      22.29206786        3       0.00000000      -0.03131321      -0.02053994      -0.08722097
Pt       8.42164156       3.24149131      22.29206806        3       0.00000000      -0.02274300      -0.00563031      -0.04801992
Pt       4.21082090       5.67260998      22.29206740        3       0.00000000      -0.02852562      -0.01966178      -0.09226550
Pt       7.01803486       5.67261041      22.29206774        3       0.00000000      -0.01788621      -0.00933275      -0.03264562
Pt       9.82524817       5.67261060      22.29206803        3       0.00000000       0.00212908      -0.00635865      -0.07260545
Pt      -0.00000054       1.62074568      24.58417374        2       0.00000000      -0.00740025       0.00084261      -0.01897171
Pt       2.80721436       1.62074546      24.58417392        2       0.00000000       0.00097186      -0.28535870       0.50707662
Pt       5.61442782       1.62074536      24.58417379        2       0.00000000       0.00216362       0.12805824      -0.14077328
Pt       1.40360636       4.05186439      24.58417387        2       0.00000000      -0.23165992       0.16817917       0.47372448
Pt       4.21082089       4.05186396      24.58417387        2       0.00000000      -0.08488785      -0.04402102      -0.24116948
Pt       7.01803504       4.05186408      24.58417404        2       0.00000000       0.11744723       0.02987108      -0.01185685
Pt       2.80721273       6.48298349      24.58417384        2       0.00000000       0.10128889      -0.03863267      -0.13322937
Pt       5.61442806       6.48298330      24.58417399        2       0.00000000       0.07453582       0.10258070      -0.00916768
Pt       8.42164222       6.48298344      24.58417375        2       0.00000000       0.00422219       0.01402609      -0.02644681
Pt       0.04731968       0.03315067      26.91417604        1       0.00000000      -0.00423964       0.01905508      -0.00311833
Pt       2.87220247       0.09222922      26.95135049        1       0.00000000       0.01417188       0.01857057      -0.00149423
Pt       5.71846555       0.07162723      26.87183185        1       0.00000000       0.03240674       0.00913845       0.00245184
Pt       1.43835024       2.46596384      26.90970204        1       0.00000000       0.03053420      -0.01170034      -0.00230865
Pt       4.25665435       2.47675288      26.93597132        1       0.00000000      -0.00497818       0.00419071       0.00550168
Pt       7.05888916       2.47624940      26.91533738        1       0.00000000       0.02182723      -0.03181413       0.00091630
Pt       2.85570734       4.90013412      26.93688835        1       0.00000000       0.02788228      -0.01097054       0.00379437
Pt       5.58534034       4.85681576      26.84929680        1       0.00000000       0.00548845       0.00291555      -0.00363358
Pt       8.52216963       4.88631623      26.95018143        1       0.00000000       0.01635621       0.02073275       0.01184384
O        7.65139115       6.06764903      28.59611224        0       0.50000000       0.00014864      -0.02048131      -0.03581326
H        8.42650526       6.50728773      29.01162642        0       0.50000000      -0.00253708       0.01016057       0.03475839
