38
Lattice="8.421641763931781 0.0 0.0 4.2108208819658905 7.293355709136913 0.0 0.0 0.0 46.87624170604845" Properties=species:S:1:pos:R:3:tags:I:1:initial_magmoms:R:1:forces:R:3 charge=0 spin=0 energy=-196.55133196408116 free_energy=-196.55133196408116 stress="0.009092926047742367 -0.00039751100121065974 -0.00020718146697618067 -0.00039751100121065974 0.00942722987383604 -8.148940105456859e-05 -0.00020718146697618067 -8.148940105456859e-05 -0.0003265677660237998" pbc="T T T"
Pt      -0.00000011      -0.00000005      19.95723442        4       0.00000000      -0.00402430       0.01163437      -0.02204400
Pt       2.80721395      -0.00000019      19.95723450        4       0.00000000      -0.00951774      -0.01172863       0.01738975
Pt       5.61442786      -0.00000007      19.95723452        4       0.00000000       0.00048011      -0.00156943       0.01480829
Pt       1.40360721       2.43111839      19.95723434        4       0.00000000      -0.00938840      -0.00493199       0.01730190
Pt       4.21082082       2.43111837      19.95723444        4       0.00000000       0.00028795       0.00115382       0.01266341
Pt       7.01803481       2.43111844      19.95723433        4       0.00000000      -0.00286241      -0.00134841       0.00328207
Pt       2.80721415       4.86223733      19.95723415        4       0.00000000       0.01493801       0.00821867       0.03339711
Pt       5.61442796       4.86223739      19.95723433        4       0.00000000       0.00499589      -0.01257072      -0.02258051
Pt       8.42164143       4.86223725      19.95723439        4       0.00000000      -0.00574289      -0.00676493       0.01318873
Pt       1.40360728       0.81037261      22.29206792        3       0.00000000      -0.03126930      -0.02207987      -0.09514664
Pt       4.21082128       0.81037249      22.29206789        3       0.00000000      -0.02088310      -0.01343154      -0.03568413
Pt       7.01803472       0.81037258      22.29206780        3       0.00000000      -0.00208225      -0.01043828      -0.07334171
Pt       2.80721447       3.24149123      22.29206774        3       0.00000000      -0.01397743      -0.02715268      -0.04592111
Pt       5.61442762       3.24149120      22.29206786        3       0.00000000      -0.00963784       0.00353492      -0.07736894
Pt       8.42164156       3.24149131      22.29206806        3       0.00000000      -0.01492733      -0.01437010      -0.07415283
Pt       4.21082090       5.67260998      22.29206740        3       0.00000000       0.01608049       0.00722238       0.05356096
Pt       7.01803486       5.67261041      22.29206774        3       0.00000000      -0.03372728      -0.02502787      -0.09038177
Pt       9.82524817       5.67261060      22.29206803        3       0.00000000      -0.02738558      -0.01001773      -0.04879487
Pt      -0.00000054       1.62074568      24.58417374        2       0.00000000       0.09625816      -0.02345585      -0.12632762
Pt       2.80721436       1.62074546      24.58417392        2       0.00000000       0.08530913       0.12989576      -0.03769010
Pt       5.61442782       1.62074536      24.58417379        2       0.00000000       0.01668005       0.02650849      -0.02413624
Pt       1.40360636       4.05186439      24.58417387        2       0.00000000       0.00599355       0.01685628      -0.02846559
Pt       4.21082089       4.05186396      24.58417387        2       0.00000000       0.02099494      -0.28312582       0.51006889
Pt       7.01803504       4.05186408      24.58417404        2       0.00000000       0.00636840       0.13265412      -0.13974640
Pt       2.80721273       6.48298349      24.58417384        2       0.00000000      -0.22561543       0.18943012       0.49630287
Pt       5.61442806       6.48298330      24.58417399        2       0.00000000      -0.08645781      -0.04168221      -0.24836349
Pt       8.42164222       6.48298344      24.58417375        2       0.00000000       0.13383415       0.03919639      -0.03423859
Pt       0.06602975       0.05734428      26.93893921        1       0.00000000       0.01798734      -0.03414755       0.00295892
Pt       2.79018979       0.01213986      26.83999049        1       0.00000000      -0.00040384      -0.02487563       0.02738795
Pt       5.73943660       0.03760690      26.94780367        1       0.00000000       0.00081641      -0.01118089      -0.00492999
Pt       1.46025545       2.48335260      26.91279594        1       0.00000000       0.02348448       0.00347673       0.00813632
Pt       4.29422690       2.53820899      26.95080719        1       0.00000000      -0.00487041       0.01523609      -0.00598902
Pt       7.13739936       2.52096108      26.87940337        1       0.00000000       0.01015116      -0.01696206      -0.00683196
Pt       2.86309070       4.90691955      26.91068375        1       0.00000000       0.00649406       0.00606072      -0.00400949
Pt       5.67344273       4.92221906      26.93779207        1       0.00000000       0.00324381       0.00862175       0.00658620
Pt       8.47632067       4.92101549      26.91254131        1       0.00000000       0.02908318      -0.01847090       0.01268716
O        4.84037917       1.18801199      28.58125586        0       0.50000000       0.02411944       0.00542246       0.04255374
H        5.59453046       1.61392514      29.04742606        0       0.50000000      -0.01482729       0.01021003      -0.02612940
