38
Lattice="8.421641763931781 0.0 0.0 4.2108208819658905 7.293355709136913 0.0 0.0 0.0 46.87624170604845" Properties=species:S:1:pos:R:3:tags:I:1:initial_magmoms:R:1:forces:R:3 charge=0 spin=0 energy=-196.5524096160587 free_energy=-196.5524096160587 stress="0.009087505750358105 -0.0003670940059237182 -0.0002016131766140461 -0.0003670940059237182 0.009469347074627876 -0.00011670988897094503 -0.0002016131766140461 -0.00011670988897094503 -0.00029896930209361017" pbc="T T T"
Pt      -0.00000011      -0.00000005      19.95723442        4       0.00000000      -0.01128922      -0.00415251       0.01708753
Pt       2.80721395      -0.00000019      19.95723450        4       0.00000000      -0.00166924       0.00181445       0.01255274
Pt       5.61442786      -0.00000007      19.95723452        4       0.00000000      -0.00462936      -0.00102592       0.00354940
Pt       1.40360721       2.43111839      19.95723434        4       0.00000000       0.01320206       0.00859629       0.03375642
Pt       4.21082082       2.43111837      19.95723444        4       0.00000000       0.00431357      -0.01211502      -0.02246425
Pt       7.01803481       2.43111844      19.95723433        4       0.00000000      -0.00780013      -0.00555057       0.01269278
Pt       2.80721415       4.86223733      19.95723415        4       0.00000000      -0.00520175       0.01188135      -0.02257201
Pt       5.61442796       4.86223739      19.95723433        4       0.00000000      -0.01134365      -0.01121683       0.01731836
Pt       8.42164143       4.86223725      19.95723439        4       0.00000000      -0.00135422      -0.00107442       0.01536482
Pt       1.40360728       0.81037261      22.29206792        3       0.00000000      -0.02128107      -0.02282924      -0.04687252
Pt       4.21082128       0.81037249      22.29206789        3       0.00000000      -0.01567061       0.00626966      -0.07801350
Pt       7.01803472       0.81037258      22.29206780        3       0.00000000      -0.02150175      -0.00967105      -0.07585507
Pt       2.80721447       3.24149123      22.29206774        3       0.00000000       0.01096976       0.00941922       0.05257244
Pt       5.61442762       3.24149120      22.29206786        3       0.00000000      -0.03949232      -0.01981861      -0.08891701
Pt       8.42164156       3.24149131      22.29206806        3       0.00000000      -0.03335131      -0.00536996      -0.04774240
Pt       4.21082090       5.67260998      22.29206740        3       0.00000000      -0.03759736      -0.01649671      -0.09494635
Pt       7.01803486       5.67261041      22.29206774        3       0.00000000      -0.02642598      -0.00816944      -0.03634527
Pt       9.82524817       5.67261060      22.29206803        3       0.00000000      -0.00672445      -0.00765154      -0.07244056
Pt      -0.00000054       1.62074568      24.58417374        2       0.00000000       0.02559347       0.00031064      -0.02366574
Pt       2.80721436       1.62074546      24.58417392        2       0.00000000       0.04477365      -0.29274076       0.49896920
Pt       5.61442782       1.62074536      24.58417379        2       0.00000000       0.02668154       0.11428768      -0.11770716
Pt       1.40360636       4.05186439      24.58417387        2       0.00000000      -0.21900207       0.18760024       0.49161425
Pt       4.21082089       4.05186396      24.58417387        2       0.00000000      -0.05732166      -0.05461708      -0.24138661
Pt       7.01803504       4.05186408      24.58417404        2       0.00000000       0.15278928       0.01771285      -0.02992683
Pt       2.80721273       6.48298349      24.58417384        2       0.00000000       0.11752796      -0.03978404      -0.12594725
Pt       5.61442806       6.48298330      24.58417399        2       0.00000000       0.10089673       0.10210425      -0.03517841
Pt       8.42164222       6.48298344      24.58417375        2       0.00000000       0.03303174       0.01111250      -0.01852085
Pt       0.08545774       0.03477043      26.91419643        1       0.00000000      -0.00788772       0.02214603       0.00222256
Pt       2.90952979       0.10593154      26.94623733        1       0.00000000      -0.01210605      -0.02237334       0.00736930
Pt       5.75859247       0.07411690      26.88146819        1       0.00000000       0.00042303      -0.00310156      -0.01568731
Pt       1.48438816       2.47630340      26.90998362        1       0.00000000      -0.02082883      -0.03199174       0.00737487
Pt       4.29502208       2.47471714      26.94058680        1       0.00000000       0.02100803       0.03114519       0.00272733
Pt       7.10327254       2.46928423      26.91566803        1       0.00000000      -0.00552337       0.01233680       0.00187792
Pt       2.89985430       4.89666715      26.93724955        1       0.00000000      -0.01176741       0.02503511       0.01088023
Pt       5.62216560       4.85709630      26.84426986        1       0.00000000      -0.00773908      -0.01698028       0.00489456
Pt       8.56358978       4.89061071      26.95165907        1       0.00000000       0.01130190       0.01488093      -0.00461036
O        7.65576537       6.05016106      28.57974343        0       0.50000000       0.02573388       0.01871497       0.03117101
H        8.40224635       6.48574731      29.04916616        0       0.50000000      -0.00073802      -0.00863769      -0.02519630
