38
Lattice="8.421641763931781 0.0 0.0 4.2108208819658905 7.293355709136913 0.0 0.0 0.0 46.87624170604845" Properties=species:S:1:pos:R:3:tags:I:1:initial_magmoms:R:1:forces:R:3 charge=0 spin=0 energy=-196.5523161559757 free_energy=-196.5523161559757 stress="0.009069561026990414 -0.00037547634565271437 -0.00020643115567509085 -0.00037547634565271437 0.00945618562400341 -0.00011723799252649769 -0.00020643115567509085 -0.00011723799252649769 -0.00031464698258787394" pbc="T T T"
Pt      -0.00000011      -0.00000005      19.95723442        4       0.00000000      -0.01125680      -0.00413845       0.01710019
Pt       2.80721395      -0.00000019      19.95723450        4       0.00000000      -0.00174168       0.00198736       0.01235376
Pt       5.61442786      -0.00000007      19.95723452        4       0.00000000      -0.00444850      -0.00086540       0.00357533
Pt       1.40360721       2.43111839      19.95723434        4       0.00000000       0.01327438       0.00875231       0.03373595
Pt       4.21082082       2.43111837      19.95723444        4       0.00000000       0.00431486      -0.01216547      -0.02267388
Pt       7.01803481       2.43111844      19.95723433        4       0.00000000      -0.00769839      -0.00555822       0.01271708
Pt       2.80721415       4.86223733      19.95723415        4       0.00000000      -0.00511559       0.01216803      -0.02289635
Pt       5.61442796       4.86223739      19.95723433        4       0.00000000      -0.01136269      -0.01123907       0.01724932
Pt       8.42164143       4.86223725      19.95723439        4       0.00000000      -0.00124857      -0.00114553       0.01517665
Pt       1.40360728       0.81037261      22.29206792        3       0.00000000      -0.02121270      -0.02287419      -0.04718477
Pt       4.21082128       0.81037249      22.29206789        3       0.00000000      -0.01552069       0.00629672      -0.07824767
Pt       7.01803472       0.81037258      22.29206780        3       0.00000000      -0.02113152      -0.00935874      -0.07640412
Pt       2.80721447       3.24149123      22.29206774        3       0.00000000       0.01059667       0.00976967       0.05551063
Pt       5.61442762       3.24149120      22.29206786        3       0.00000000      -0.03859172      -0.01983457      -0.08823346
Pt       8.42164156       3.24149131      22.29206806        3       0.00000000      -0.03330931      -0.00522843      -0.04820727
Pt       4.21082090       5.67260998      22.29206740        3       0.00000000      -0.03752354      -0.01581332      -0.09387358
Pt       7.01803486       5.67261041      22.29206774        3       0.00000000      -0.02635563      -0.00823716      -0.03795579
Pt       9.82524817       5.67261060      22.29206803        3       0.00000000      -0.00669708      -0.00725203      -0.07318625
Pt      -0.00000054       1.62074568      24.58417374        2       0.00000000       0.02434615      -0.00015856      -0.01781023
Pt       2.80721436       1.62074546      24.58417392        2       0.00000000       0.04294771      -0.28665513       0.49781609
Pt       5.61442782       1.62074536      24.58417379        2       0.00000000       0.02530835       0.11920966      -0.11868260
Pt       1.40360636       4.05186439      24.58417387        2       0.00000000      -0.21276532       0.18104498       0.48899212
Pt       4.21082089       4.05186396      24.58417387        2       0.00000000      -0.06173776      -0.05571578      -0.23819122
Pt       7.01803504       4.05186408      24.58417404        2       0.00000000       0.15016380       0.01170958      -0.03377681
Pt       2.80721273       6.48298349      24.58417384        2       0.00000000       0.12271673      -0.04335275      -0.12505211
Pt       5.61442806       6.48298330      24.58417399        2       0.00000000       0.09471787       0.10212849      -0.03719756
Pt       8.42164222       6.48298344      24.58417375        2       0.00000000       0.03527305       0.01370748      -0.03801185
Pt       0.08484394       0.03426737      26.91611664        1       0.00000000      -0.01141691       0.02168219      -0.00542475
Pt       2.90947021       0.10305946      26.94063975        1       0.00000000      -0.01310968      -0.00940678       0.03004929
Pt       5.75700112       0.07332563      26.87883607        1       0.00000000       0.00831753      -0.00039956      -0.00461639
Pt       1.48286534       2.47438110      26.91180330        1       0.00000000      -0.01817493      -0.02550079      -0.00003168
Pt       4.29422546       2.47488611      26.94242061        1       0.00000000       0.01561684       0.02698897      -0.00357561
Pt       7.10181914       2.46782601      26.91719153        1       0.00000000      -0.00037095       0.01504300      -0.00474950
Pt       2.89822673       4.89598038      26.93980004        1       0.00000000      -0.00646644       0.02286843       0.00138053
Pt       5.62127468       4.85590384      26.84313602        1       0.00000000      -0.01229095      -0.01524359       0.01071137
Pt       8.56239914       4.89235764      26.94468850        1       0.00000000       0.00906017       0.00223220       0.02223868
O        7.65452881       6.05171663      28.57778488        0       0.50000000      -0.01403815      -0.01678546       0.00291295
H        8.40074246       6.48251916      29.04941534        0       0.50000000       0.03693153       0.02134006      -0.00553644
