38
Lattice="8.421641763931781 0.0 0.0 4.2108208819658905 7.293355709136913 0.0 0.0 0.0 46.87624170604845" Properties=species:S:1:pos:R:3:tags:I:1:initial_magmoms:R:1:forces:R:3 charge=0 spin=0 energy=-196.54989763790928 free_energy=-196.54989763790928 stress="0.009120151400566101 -0.0004091620212420821 -0.00020425330149009824 -0.0004091620212420821 0.00947936438024044 -7.705236203037202e-05 -0.00020425330149009824 -7.705236203037202e-05 -0.0002867518924176693" pbc="T T T"
Pt      -0.00000011      -0.00000005      19.95723442        4       0.00000000      -0.00359767       0.01225093      -0.02198527
Pt       2.80721395      -0.00000019      19.95723450        4       0.00000000      -0.00848295      -0.01014039       0.01759929
Pt       5.61442786      -0.00000007      19.95723452        4       0.00000000       0.00096120      -0.00070732       0.01462439
Pt       1.40360721       2.43111839      19.95723434        4       0.00000000      -0.00811654      -0.00388035       0.01788803
Pt       4.21082082       2.43111837      19.95723444        4       0.00000000       0.00084285       0.00187390       0.01216008
Pt       7.01803481       2.43111844      19.95723433        4       0.00000000      -0.00177234      -0.00057533       0.00333432
Pt       2.80721415       4.86223733      19.95723415        4       0.00000000       0.01478731       0.00884584       0.03265515
Pt       5.61442796       4.86223739      19.95723433        4       0.00000000       0.00427855      -0.01102027      -0.02057503
Pt       8.42164143       4.86223725      19.95723439        4       0.00000000      -0.00445945      -0.00520812       0.01395047
Pt       1.40360728       0.81037261      22.29206792        3       0.00000000      -0.02852369      -0.01965711      -0.09228175
Pt       4.21082128       0.81037249      22.29206789        3       0.00000000      -0.01787833      -0.00932313      -0.03265402
Pt       7.01803472       0.81037258      22.29206780        3       0.00000000       0.00212387      -0.00634314      -0.07260457
Pt       2.80721447       3.24149123      22.29206774        3       0.00000000      -0.00966369      -0.02205137      -0.04742851
Pt       5.61442762       3.24149120      22.29206786        3       0.00000000      -0.00585656       0.00560176      -0.07789885
Pt       8.42164156       3.24149131      22.29206806        3       0.00000000      -0.01119557      -0.01025694      -0.07378674
Pt       4.21082090       5.67260998      22.29206740        3       0.00000000       0.01689984       0.01144965       0.05015397
Pt       7.01803486       5.67261041      22.29206774        3       0.00000000      -0.03131915      -0.02054532      -0.08721686
Pt       9.82524817       5.67261060      22.29206803        3       0.00000000      -0.02273734      -0.00563929      -0.04801800
Pt      -0.00000054       1.62074568      24.58417374        2       0.00000000       0.10125585      -0.03863565      -0.13320036
Pt       2.80721436       1.62074546      24.58417392        2       0.00000000       0.07451068       0.10258526      -0.00916880
Pt       5.61442782       1.62074536      24.58417379        2       0.00000000       0.00423967       0.01404081      -0.02646247
Pt       1.40360636       4.05186439      24.58417387        2       0.00000000      -0.00739637       0.00084758      -0.01898921
Pt       4.21082089       4.05186396      24.58417387        2       0.00000000       0.00096073      -0.28535920       0.50703996
Pt       7.01803504       4.05186408      24.58417404        2       0.00000000       0.00214809       0.12805149      -0.14076476
Pt       2.80721273       6.48298349      24.58417384        2       0.00000000      -0.23164076       0.16816182       0.47371626
Pt       5.61442806       6.48298330      24.58417399        2       0.00000000      -0.08490429      -0.04404179      -0.24116853
Pt       8.42164222       6.48298344      24.58417375        2       0.00000000       0.11742964       0.02985737      -0.01186193
Pt       0.04848922       0.03788602      26.93689575        1       0.00000000       0.02786188      -0.01093458       0.00377024
Pt       2.77811624      -0.00542706      26.84929257        1       0.00000000       0.00546962       0.00289919      -0.00362815
Pt       5.71495632       0.02407535      26.95017126        1       0.00000000       0.01632059       0.02072358       0.01188012
Pt       1.45089743       2.46427654      26.91417510        1       0.00000000      -0.00417378       0.01899584      -0.00311074
Pt       4.27578542       2.52332201      26.95133761        1       0.00000000       0.01420947       0.01860816      -0.00145803
Pt       7.12206208       2.50275000      26.87183994        1       0.00000000       0.03238738       0.00909372       0.00241315
Pt       2.84195760       4.89707338      26.90970418        1       0.00000000       0.03048449      -0.01167845      -0.00230640
Pt       5.66023358       4.90785681      26.93597297        1       0.00000000      -0.00489959       0.00422457       0.00549752
Pt       8.46249045       4.90736409      26.91533215        1       0.00000000       0.02179859      -0.03178820       0.00092778
O        4.84415459       1.20540983      28.59610692        0       0.50000000      -0.00035089      -0.02081253      -0.03614076
H        5.61926572       1.64504078      29.01159872        0       0.50000000      -0.00200108       0.01048706       0.03509888
