38
Lattice="8.421641763931781 0.0 0.0 4.2108208819658905 7.293355709136913 0.0 0.0 0.0 46.87624170604845" Properties=species:S:1:pos:R:3:tags:I:1:initial_magmoms:R:1:forces:R:3 charge=0 spin=0 energy=-196.55273386532627 free_energy=-196.55273386532627 stress="0.009080753661692142 -0.00036877155071124434 -0.00020825672254431993 -0.00036877155071124434 0.009472004137933254 -0.0001165829598903656 -0.00020825672254431993 -0.0001165829598903656 -0.00030609307577833533" pbc="T T T"
Pt      -0.00000011      -0.00000005      19.95723442        4       0.00000000      -0.01146364      -0.00429431       0.01707542
Pt       2.80721395      -0.00000019      19.95723450        4       0.00000000      -0.00187182       0.00163344       0.01243881
Pt       5.61442786      -0.00000007      19.95723452        4       0.00000000      -0.00465226      -0.00102883       0.00357045
Pt       1.40360721       2.43111839      19.95723434        4       0.00000000       0.01295291       0.00857086       0.03386980
Pt       4.21082082       2.43111837      19.95723444        4       0.00000000       0.00420695      -0.01228864      -0.02262723
Pt       7.01803481       2.43111844      19.95723433        4       0.00000000      -0.00803973      -0.00582072       0.01260885
Pt       2.80721415       4.86223733      19.95723415        4       0.00000000      -0.00533010       0.01207689      -0.02280638
Pt       5.61442796       4.86223739      19.95723433        4       0.00000000      -0.01150629      -0.01137690       0.01725769
Pt       8.42164143       4.86223725      19.95723439        4       0.00000000      -0.00148297      -0.00135930       0.01528490
Pt       1.40360728       0.81037261      22.29206792        3       0.00000000      -0.02173091      -0.02325481      -0.04702200
Pt       4.21082128       0.81037249      22.29206789        3       0.00000000      -0.01651680       0.00606993      -0.07819592
Pt       7.01803472       0.81037258      22.29206780        3       0.00000000      -0.02207002      -0.00997145      -0.07559938
Pt       2.80721447       3.24149123      22.29206774        3       0.00000000       0.00975664       0.00930591       0.05348780
Pt       5.61442762       3.24149120      22.29206786        3       0.00000000      -0.03967208      -0.02035153      -0.08857711
Pt       8.42164156       3.24149131      22.29206806        3       0.00000000      -0.03412776      -0.00585269      -0.04787772
Pt       4.21082090       5.67260998      22.29206740        3       0.00000000      -0.03804876      -0.01650356      -0.09406627
Pt       7.01803486       5.67261041      22.29206774        3       0.00000000      -0.02686550      -0.00891410      -0.03748793
Pt       9.82524817       5.67261060      22.29206803        3       0.00000000      -0.00736517      -0.00802728      -0.07299242
Pt      -0.00000054       1.62074568      24.58417374        2       0.00000000       0.02608857       0.00204840      -0.02162246
Pt       2.80721436       1.62074546      24.58417392        2       0.00000000       0.04625483      -0.28960061       0.50050056
Pt       5.61442782       1.62074536      24.58417379        2       0.00000000       0.02803965       0.11933211      -0.12088975
Pt       1.40360636       4.05186439      24.58417387        2       0.00000000      -0.21229920       0.18626982       0.49433443
Pt       4.21082089       4.05186396      24.58417387        2       0.00000000      -0.05742098      -0.05315340      -0.23630990
Pt       7.01803504       4.05186408      24.58417404        2       0.00000000       0.15405147       0.01690495      -0.03394191
Pt       2.80721273       6.48298349      24.58417384        2       0.00000000       0.12301542      -0.04100616      -0.12732182
Pt       5.61442806       6.48298330      24.58417399        2       0.00000000       0.09706924       0.10291265      -0.03379570
Pt       8.42164222       6.48298344      24.58417375        2       0.00000000       0.03547472       0.01326175      -0.03077265
Pt       0.08625751       0.03812528      26.91578453        1       0.00000000      -0.00148378       0.01453594      -0.00270777
Pt       2.91179971       0.10392836      26.94325597        1       0.00000000      -0.01440313      -0.00694335       0.01913692
Pt       5.76030518       0.07611220      26.87963155        1       0.00000000       0.00438635      -0.00181816      -0.00542430
Pt       1.48599187       2.47566820      26.91119020        1       0.00000000      -0.01496191      -0.01987659       0.00173452
Pt       4.29801508       2.47604821      26.94140831        1       0.00000000       0.01066181       0.03035647      -0.00061431
Pt       7.10557377       2.47225392      26.91656840        1       0.00000000      -0.00301066       0.00877679       0.00033185
Pt       2.90332404       4.89980879      26.93905248        1       0.00000000      -0.01248740       0.01420201       0.00410735
Pt       5.62526817       4.85755627      26.84433788        1       0.00000000      -0.01394574      -0.00999467       0.00566243
Pt       8.56819104       4.89491869      26.94821904        1       0.00000000       0.00104093      -0.00059797       0.01105750
O        7.65817094       6.05426338      28.58042360        0       0.50000000      -0.00377056      -0.00996740      -0.00043609
H        8.40554793       6.48845244      29.04744588        0       0.50000000       0.03152764       0.01574457      -0.00137018
