38
Lattice="8.421641763931781 0.0 0.0 4.2108208819658905 7.293355709136913 0.0 0.0 0.0 46.87624170604845" Properties=species:S:1:pos:R:3:tags:I:1:initial_magmoms:R:1:forces:R:3 charge=0 spin=0 energy=-194.69031855160557 free_energy=-194.69031855160557 stress="0.009629443287849426 4.548876404442126e-07 1.4543611541739665e-06 4.548876404442126e-07 0.009630972519516945 -2.2291558252618415e-06 1.4543611541739665e-06 -2.2291558252618415e-06 -0.00010902744543273002" pbc="T T T"
Pt      -0.00000011      -0.00000005      19.95723442        4       0.00000000      -0.00253428       0.00057313       0.01309225
Pt       2.80721395      -0.00000019      19.95723450        4       0.00000000      -0.00176044       0.00558469       0.01198587
Pt       5.61442786      -0.00000007      19.95723452        4       0.00000000       0.00177622       0.00186040       0.01312223
Pt       1.40360721       2.43111839      19.95723434        4       0.00000000       0.00566415       0.00371382      -0.00130725
Pt       4.21082082       2.43111837      19.95723444        4       0.00000000      -0.00604679       0.00310124      -0.00122983
Pt       7.01803481       2.43111844      19.95723433        4       0.00000000       0.00075732      -0.00244111       0.01309121
Pt       2.80721415       4.86223733      19.95723415        4       0.00000000       0.00034961      -0.00677687      -0.00134310
Pt       5.61442796       4.86223739      19.95723433        4       0.00000000      -0.00395119      -0.00432032       0.01196120
Pt       8.42164143       4.86223725      19.95723439        4       0.00000000       0.00571691      -0.00127254       0.01195209
Pt       1.40360728       0.81037261      22.29206792        3       0.00000000      -0.00773929      -0.00565981      -0.04130899
Pt       4.21082128       0.81037249      22.29206789        3       0.00000000       0.00883404      -0.00582273      -0.04452472
Pt       7.01803472       0.81037258      22.29206780        3       0.00000000       0.00000608       0.00000522      -0.04481036
Pt       2.80721447       3.24149123      22.29206774        3       0.00000000      -0.00001778       0.00001331       0.07226154
Pt       5.61442762       3.24149120      22.29206786        3       0.00000000       0.00887096      -0.00384673      -0.04141388
Pt       8.42164156       3.24149131      22.29206806        3       0.00000000      -0.00945977      -0.00476066      -0.04466730
Pt       4.21082090       5.67260998      22.29206740        3       0.00000000       0.00058627       0.01056142      -0.04456230
Pt       7.01803486       5.67261041      22.29206774        3       0.00000000      -0.00000338      -0.00001151      -0.03029183
Pt       9.82524817       5.67261060      22.29206803        3       0.00000000      -0.00109362       0.00951226      -0.04145552
Pt      -0.00000054       1.62074568      24.58417374        2       0.00000000       0.00676863       0.00020743       0.00156643
Pt       2.80721436       1.62074546      24.58417392        2       0.00000000      -0.00612099      -0.00272610       0.03308200
Pt       5.61442782       1.62074536      24.58417379        2       0.00000000      -0.00345642       0.00580674       0.00145442
Pt       1.40360636       4.05186439      24.58417387        2       0.00000000       0.00175619       0.00618032       0.03131159
Pt       4.21082089       4.05186396      24.58417387        2       0.00000000       0.00501073      -0.00437398       0.03228122
Pt       7.01803504       4.05186408      24.58417404        2       0.00000000       0.00197418       0.00181347       0.02438426
Pt       2.80721273       6.48298349      24.58417384        2       0.00000000      -0.00329193      -0.00603390       0.00169825
Pt       5.61442806       6.48298330      24.58417399        2       0.00000000       0.00055787      -0.00274751       0.02477860
Pt       8.42164222       6.48298344      24.58417375        2       0.00000000      -0.00282203       0.00139060       0.02459991
Pt      -0.00963103       0.00459828      26.91406922        1       0.00000000       0.01463529      -0.00476295      -0.00629265
Pt       2.80628922       0.04877451      26.90982907        1       0.00000000       0.00132847       0.00256980       0.01323126
Pt       5.62321758       0.00603976      26.91406620        1       0.00000000      -0.01146692      -0.01029939      -0.00625333
Pt       1.39938989       2.43003620      26.92343250        1       0.00000000       0.01875106       0.00839994      -0.00086539
Pt       4.21386311       2.42799049      26.92342249        1       0.00000000      -0.01666116       0.01202840      -0.00089535
Pt       7.01886028       2.42049096      26.91405845        1       0.00000000      -0.00323655       0.01509424      -0.00633421
Pt       2.80840391       4.86642708      26.92344308        1       0.00000000      -0.00209401      -0.02048663      -0.00080528
Pt       5.57257816       4.83706214      26.90967296        1       0.00000000      -0.00318855      -0.00008059       0.01237217
Pt       8.46445903       4.83858652      26.90947579        1       0.00000000       0.00212848      -0.00275295       0.01128837
O        7.01752123       5.67336502      29.27452200        0       0.50000000      -0.00288367       0.00426294       0.01476247
H        7.01842848       5.67202569      28.28026850        0       0.50000000       0.00235649      -0.00350334      -0.01591616
