38
Lattice="8.421641763931781 0.0 0.0 4.2108208819658905 7.293355709136913 0.0 0.0 0.0 46.87624170604845" Properties=species:S:1:pos:R:3:tags:I:1:initial_magmoms:R:1:forces:R:3 charge=0 spin=0 energy=-194.69044634396397 free_energy=-194.69044634396397 stress="0.009615867398679256 -4.4392773901336113e-08 1.1773536812142993e-07 -4.4392773901336113e-08 0.009616567753255367 -9.9462761227187e-07 1.1773536812142993e-07 -9.9462761227187e-07 -0.0001316702109761536" pbc="T T T"
Pt      -0.00000011      -0.00000005      19.95723442        4       0.00000000      -0.00231614       0.00047226       0.01310637
Pt       2.80721395      -0.00000019      19.95723450        4       0.00000000      -0.00171490       0.00556754       0.01201812
Pt       5.61442786      -0.00000007      19.95723452        4       0.00000000       0.00157898       0.00173419       0.01312844
Pt       1.40360721       2.43111839      19.95723434        4       0.00000000       0.00569794       0.00374803      -0.00134881
Pt       4.21082082       2.43111837      19.95723444        4       0.00000000      -0.00606863       0.00309497      -0.00133439
Pt       7.01803481       2.43111844      19.95723433        4       0.00000000       0.00073358      -0.00220492       0.01309280
Pt       2.80721415       4.86223733      19.95723415        4       0.00000000       0.00036642      -0.00682536      -0.00136908
Pt       5.61442796       4.86223739      19.95723433        4       0.00000000      -0.00395950      -0.00427480       0.01199297
Pt       8.42164143       4.86223725      19.95723439        4       0.00000000       0.00567774      -0.00130004       0.01198676
Pt       1.40360728       0.81037261      22.29206792        3       0.00000000      -0.00809525      -0.00528699      -0.04116196
Pt       4.21082128       0.81037249      22.29206789        3       0.00000000       0.00907418      -0.00541081      -0.04422132
Pt       7.01803472       0.81037258      22.29206780        3       0.00000000       0.00000454       0.00000333      -0.04712185
Pt       2.80721447       3.24149123      22.29206774        3       0.00000000      -0.00001036       0.00001075       0.07145001
Pt       5.61442762       3.24149120      22.29206786        3       0.00000000       0.00871417      -0.00435641      -0.04127067
Pt       8.42164156       3.24149131      22.29206806        3       0.00000000      -0.00922640      -0.00515774      -0.04432734
Pt       4.21082090       5.67260998      22.29206740        3       0.00000000       0.00013567       0.01057418      -0.04425921
Pt       7.01803486       5.67261041      22.29206774        3       0.00000000      -0.00000833      -0.00001002      -0.02812907
Pt       9.82524817       5.67261060      22.29206803        3       0.00000000      -0.00059696       0.00963849      -0.04128077
Pt      -0.00000054       1.62074568      24.58417374        2       0.00000000       0.01096267       0.00300581      -0.00565233
Pt       2.80721436       1.62074546      24.58417392        2       0.00000000      -0.00583766      -0.00651666       0.03385008
Pt       5.61442782       1.62074536      24.58417379        2       0.00000000      -0.00802004       0.00800507      -0.00571049
Pt       1.40360636       4.05186439      24.58417387        2       0.00000000      -0.00234691       0.00820391       0.03318628
Pt       4.21082089       4.05186396      24.58417387        2       0.00000000       0.00825552      -0.00212373       0.03326256
Pt       7.01803504       4.05186408      24.58417404        2       0.00000000       0.00198110       0.00751959       0.02258233
Pt       2.80721273       6.48298349      24.58417384        2       0.00000000      -0.00295780      -0.01105381      -0.00550088
Pt       5.61442806       6.48298330      24.58417399        2       0.00000000       0.00552425      -0.00541770       0.02289108
Pt       8.42164222       6.48298344      24.58417375        2       0.00000000      -0.00751865      -0.00184925       0.02281999
Pt      -0.00890076       0.00442114      26.91072296        1       0.00000000       0.01047008      -0.00378423       0.00786590
Pt       2.80647313       0.04827758      26.91133672        1       0.00000000       0.00104976       0.00959672       0.00330086
Pt       5.62270843       0.00549734      26.91073145        1       0.00000000      -0.00853301      -0.00714325       0.00785280
Pt       1.40116130       2.43072827      26.92347867        1       0.00000000       0.00703175       0.00368467      -0.00026599
Pt       4.21236791       2.42919537      26.92348639        1       0.00000000      -0.00671980       0.00420613      -0.00028592
Pt       7.01863715       2.42120574      26.91070154        1       0.00000000      -0.00191144       0.01095272       0.00790250
Pt       2.80810503       4.86454309      26.92348914        1       0.00000000      -0.00031579      -0.00794659      -0.00023579
Pt       5.57295550       4.83743622      26.91121154        1       0.00000000      -0.00899254      -0.00388292       0.00280056
Pt       8.46388025       4.83873913      26.91119551        1       0.00000000       0.00793598      -0.00580328       0.00269791
O        7.01799491       5.67294218      29.27312238        0       0.50000000      -0.00025784       0.00186874       0.01768774
H        7.01806432       5.67234875      28.27873289        0       0.50000000       0.00021383      -0.00153882      -0.01199988
