38
Lattice="8.421641763931781 0.0 0.0 4.2108208819658905 7.293355709136913 0.0 0.0 0.0 46.87624170604845" Properties=species:S:1:pos:R:3:tags:I:1:initial_magmoms:R:1:forces:R:3 charge=0 spin=0 energy=-194.6903662353214 free_energy=-194.6903662353214 stress="0.009590895846486092 -5.221718168968437e-09 2.1834637209394714e-07 -5.221718168968437e-09 0.00959104672074318 -3.256755221059393e-08 2.1834637209394714e-07 -3.256755221059393e-08 -0.0001593368360772729" pbc="T T T"
Pt      -0.00000011      -0.00000005      19.95723442        4       0.00000000      -0.00230178       0.00038155       0.01309290
Pt       2.80721395      -0.00000019      19.95723450        4       0.00000000      -0.00160384       0.00558374       0.01202310
Pt       5.61442786      -0.00000007      19.95723452        4       0.00000000       0.00149129       0.00177488       0.01311695
Pt       1.40360721       2.43111839      19.95723434        4       0.00000000       0.00566348       0.00377281      -0.00138452
Pt       4.21082082       2.43111837      19.95723444        4       0.00000000      -0.00607528       0.00305052      -0.00136560
Pt       7.01803481       2.43111844      19.95723433        4       0.00000000       0.00081210      -0.00214909       0.01307397
Pt       2.80721415       4.86223733      19.95723415        4       0.00000000       0.00040567      -0.00682446      -0.00135880
Pt       5.61442796       4.86223739      19.95723433        4       0.00000000      -0.00403006      -0.00418600       0.01199988
Pt       8.42164143       4.86223725      19.95723439        4       0.00000000       0.00563605      -0.00140446       0.01199445
Pt       1.40360728       0.81037261      22.29206792        3       0.00000000      -0.00787839      -0.00533657      -0.04147735
Pt       4.21082128       0.81037249      22.29206789        3       0.00000000       0.00901779      -0.00540620      -0.04359467
Pt       7.01803472       0.81037258      22.29206780        3       0.00000000      -0.00000042       0.00001589      -0.04670037
Pt       2.80721447       3.24149123      22.29206774        3       0.00000000      -0.00000946       0.00000324       0.07111233
Pt       5.61442762       3.24149120      22.29206786        3       0.00000000       0.00865663      -0.00414356      -0.04159740
Pt       8.42164156       3.24149131      22.29206806        3       0.00000000      -0.00918898      -0.00511415      -0.04369510
Pt       4.21082090       5.67260998      22.29206740        3       0.00000000       0.00017470       0.01052331      -0.04358442
Pt       7.01803486       5.67261041      22.29206774        3       0.00000000      -0.00000388      -0.00001665      -0.02845169
Pt       9.82524817       5.67261060      22.29206803        3       0.00000000      -0.00076438       0.00948120      -0.04156367
Pt      -0.00000054       1.62074568      24.58417374        2       0.00000000       0.00791206       0.00295964      -0.00969392
Pt       2.80721436       1.62074546      24.58417392        2       0.00000000      -0.00518667      -0.00874278       0.02078596
Pt       5.61442782       1.62074536      24.58417379        2       0.00000000      -0.00643749       0.00533831      -0.00976455
Pt       1.40360636       4.05186439      24.58417387        2       0.00000000      -0.00489336       0.00900550       0.02097908
Pt       4.21082089       4.05186396      24.58417387        2       0.00000000       0.01015412      -0.00010458       0.02114642
Pt       7.01803504       4.05186408      24.58417404        2       0.00000000       0.00290067       0.00692332       0.02089429
Pt       2.80721273       6.48298349      24.58417384        2       0.00000000      -0.00143586      -0.00851062      -0.00936263
Pt       5.61442806       6.48298330      24.58417399        2       0.00000000       0.00432005      -0.00603538       0.02105001
Pt       8.42164222       6.48298344      24.58417375        2       0.00000000      -0.00729145      -0.00084046       0.02094004
Pt      -0.00851739       0.00579609      26.91069016        1       0.00000000       0.00860931      -0.01176286       0.00758024
Pt       2.80590101       0.04887958      26.91034784        1       0.00000000       0.00639677       0.00019225       0.00934567
Pt       5.62369966       0.00445252      26.91069277        1       0.00000000      -0.01435041      -0.00158537       0.00760223
Pt       1.40224244       2.43088489      26.92094610        1       0.00000000      -0.00471450       0.00296808       0.01372753
Pt       4.21168378       2.43000250      26.92093805        1       0.00000000      -0.00003015      -0.00512256       0.01375611
Pt       7.01725970       2.42088349      26.91063986        1       0.00000000       0.00578043       0.01322755       0.00772123
Pt       2.80771067       4.86350268      26.92105132        1       0.00000000       0.00481320       0.00271409       0.01320444
Pt       5.57273520       4.83667412      26.91039300        1       0.00000000      -0.00342500       0.00530413       0.00916304
Pt       8.46466727       4.83895901      26.91036687        1       0.00000000      -0.00303905      -0.00591906       0.00901598
O        7.01796050       5.67261756      29.27389212        0       0.50000000      -0.00042066      -0.00000964      -0.02022344
H        7.01809242       5.67261568      28.27858862        0       0.50000000       0.00033696      -0.00000568       0.02049201
