38
Lattice="8.421641763931781 0.0 0.0 4.2108208819658905 7.293355709136913 0.0 0.0 0.0 46.87624170604845" Properties=species:S:1:pos:R:3:tags:I:1:initial_magmoms:R:1:forces:R:3 charge=0 spin=0 energy=-194.69036242062413 free_energy=-194.69036242062413 stress="0.009590798988938332 -4.801476993776532e-09 2.087976156417426e-07 -4.801476993776532e-09 0.009590950794517994 -1.1386548592895451e-08 2.087976156417426e-07 -1.1386548592895451e-08 -0.00015933292161207646" pbc="T T T"
Pt      -0.00000011      -0.00000005      19.95723442        4       0.00000000      -0.00230176       0.00038153       0.01309269
Pt       2.80721395      -0.00000019      19.95723450        4       0.00000000      -0.00160380       0.00558449       0.01202327
Pt       5.61442786      -0.00000007      19.95723452        4       0.00000000       0.00149117       0.00177519       0.01311697
Pt       1.40360721       2.43111839      19.95723434        4       0.00000000       0.00566408       0.00377290      -0.00138496
Pt       4.21082082       2.43111837      19.95723444        4       0.00000000      -0.00607555       0.00305043      -0.00136630
Pt       7.01803481       2.43111844      19.95723433        4       0.00000000       0.00081204      -0.00214922       0.01307397
Pt       2.80721415       4.86223733      19.95723415        4       0.00000000       0.00040548      -0.00682506      -0.00135928
Pt       5.61442796       4.86223739      19.95723433        4       0.00000000      -0.00403047      -0.00418632       0.01200001
Pt       8.42164143       4.86223725      19.95723439        4       0.00000000       0.00563669      -0.00140469       0.01199479
Pt       1.40360728       0.81037261      22.29206792        3       0.00000000      -0.00787927      -0.00533562      -0.04147977
Pt       4.21082128       0.81037249      22.29206789        3       0.00000000       0.00901875      -0.00540500      -0.04359585
Pt       7.01803472       0.81037258      22.29206780        3       0.00000000      -0.00000094       0.00001596      -0.04670140
Pt       2.80721447       3.24149123      22.29206774        3       0.00000000      -0.00000921       0.00000334       0.07112285
Pt       5.61442762       3.24149120      22.29206786        3       0.00000000       0.00865650      -0.00414409      -0.04159977
Pt       8.42164156       3.24149131      22.29206806        3       0.00000000      -0.00918956      -0.00511485      -0.04369606
Pt       4.21082090       5.67260998      22.29206740        3       0.00000000       0.00017359       0.01052327      -0.04358726
Pt       7.01803486       5.67261041      22.29206774        3       0.00000000      -0.00000359      -0.00001710      -0.02844975
Pt       9.82524817       5.67261060      22.29206803        3       0.00000000      -0.00076479       0.00948124      -0.04156564
Pt      -0.00000054       1.62074568      24.58417374        2       0.00000000       0.00791268       0.00295856      -0.00970887
Pt       2.80721436       1.62074546      24.58417392        2       0.00000000      -0.00518845      -0.00876006       0.02080175
Pt       5.61442782       1.62074536      24.58417379        2       0.00000000      -0.00643774       0.00533456      -0.00977563
Pt       1.40360636       4.05186439      24.58417387        2       0.00000000      -0.00491023       0.00902054       0.02100106
Pt       4.21082089       4.05186396      24.58417387        2       0.00000000       0.01016783      -0.00009177       0.02116333
Pt       7.01803504       4.05186408      24.58417404        2       0.00000000       0.00290129       0.00692827       0.02090387
Pt       2.80721273       6.48298349      24.58417384        2       0.00000000      -0.00143696      -0.00851355      -0.00937443
Pt       5.61442806       6.48298330      24.58417399        2       0.00000000       0.00432497      -0.00603852       0.02105566
Pt       8.42164222       6.48298344      24.58417375        2       0.00000000      -0.00729279      -0.00084627       0.02094985
Pt      -0.00851922       0.00579739      26.91068921        1       0.00000000       0.00862348      -0.01176954       0.00758757
Pt       2.80590134       0.04888276      26.91035100        1       0.00000000       0.00639561       0.00026303       0.00927410
Pt       5.62370161       0.00445319      26.91069214        1       0.00000000      -0.01436544      -0.00158817       0.00759947
Pt       1.40224237       2.43088505      26.92094468        1       0.00000000      -0.00471052       0.00296558       0.01374019
Pt       4.21168396       2.43000213      26.92093648        1       0.00000000      -0.00003067      -0.00512247       0.01377000
Pt       7.01725965       2.42088104      26.91063907        1       0.00000000       0.00577883       0.01324415       0.00772695
Pt       2.80771053       4.86350302      26.92105016        1       0.00000000       0.00481411       0.00271154       0.01320732
Pt       5.57273245       4.83667288      26.91039708        1       0.00000000      -0.00346621       0.00526699       0.00910894
Pt       8.46467046       4.83895762      26.91037136        1       0.00000000      -0.00299548      -0.00595082       0.00895922
O        7.01796077       5.67261657      29.27382711        0       0.50000000      -0.00040547      -0.00006357      -0.02030274
H        7.01809186       5.67261664      28.27851952        0       0.50000000       0.00032189       0.00004469       0.02067412
