38
Lattice="8.421641763931781 0.0 0.0 4.2108208819658905 7.293355709136913 0.0 0.0 0.0 46.87624170604845" Properties=species:S:1:pos:R:3:tags:I:1:initial_magmoms:R:1:forces:R:3 charge=0 spin=0 energy=-194.6903204589542 free_energy=-194.6903204589542 stress="0.009629806503653526 4.5670159920518927e-07 1.4564270713890437e-06 4.5670159920518927e-07 0.009631340391933918 -2.241513584522181e-06 1.4564270713890437e-06 -2.241513584522181e-06 -0.00011012481991201639" pbc="T T T"
Pt      -0.00000011      -0.00000005      19.95723442        4       0.00000000      -0.00253433       0.00057388       0.01309199
Pt       2.80721395      -0.00000019      19.95723450        4       0.00000000      -0.00175983       0.00558194       0.01198701
Pt       5.61442786      -0.00000007      19.95723452        4       0.00000000       0.00177682       0.00185999       0.01312149
Pt       1.40360721       2.43111839      19.95723434        4       0.00000000       0.00566565       0.00371539      -0.00130337
Pt       4.21082082       2.43111837      19.95723444        4       0.00000000      -0.00604883       0.00310161      -0.00122652
Pt       7.01803481       2.43111844      19.95723433        4       0.00000000       0.00075655      -0.00244136       0.01309112
Pt       2.80721415       4.86223733      19.95723415        4       0.00000000       0.00035024      -0.00677825      -0.00134079
Pt       5.61442796       4.86223739      19.95723433        4       0.00000000      -0.00394919      -0.00431847       0.01196233
Pt       8.42164143       4.86223725      19.95723439        4       0.00000000       0.00571452      -0.00127166       0.01195374
Pt       1.40360728       0.81037261      22.29206792        3       0.00000000      -0.00773838      -0.00566235      -0.04130302
Pt       4.21082128       0.81037249      22.29206789        3       0.00000000       0.00882928      -0.00582768      -0.04451780
Pt       7.01803472       0.81037258      22.29206780        3       0.00000000       0.00000638       0.00000487      -0.04480378
Pt       2.80721447       3.24149123      22.29206774        3       0.00000000      -0.00001823       0.00001391       0.07222326
Pt       5.61442762       3.24149120      22.29206786        3       0.00000000       0.00887347      -0.00384325      -0.04140896
Pt       8.42164156       3.24149131      22.29206806        3       0.00000000      -0.00946176      -0.00475390      -0.04466044
Pt       4.21082090       5.67260998      22.29206740        3       0.00000000       0.00059159       0.01055982      -0.04455753
Pt       7.01803486       5.67261041      22.29206774        3       0.00000000      -0.00000376      -0.00001293      -0.03028290
Pt       9.82524817       5.67261060      22.29206803        3       0.00000000      -0.00109683       0.00951178      -0.04145227
Pt      -0.00000054       1.62074568      24.58417374        2       0.00000000       0.00676953       0.00020431       0.00151613
Pt       2.80721436       1.62074546      24.58417392        2       0.00000000      -0.00611549      -0.00266184       0.03293525
Pt       5.61442782       1.62074536      24.58417379        2       0.00000000      -0.00345624       0.00580519       0.00140918
Pt       1.40360636       4.05186439      24.58417387        2       0.00000000       0.00181943       0.00614695       0.03114902
Pt       4.21082089       4.05186396      24.58417387        2       0.00000000       0.00494099      -0.00440982       0.03211245
Pt       7.01803504       4.05186408      24.58417404        2       0.00000000       0.00197932       0.00187610       0.02448319
Pt       2.80721273       6.48298349      24.58417384        2       0.00000000      -0.00329333      -0.00603642       0.00164801
Pt       5.61442806       6.48298330      24.58417399        2       0.00000000       0.00061442      -0.00278121       0.02487856
Pt       8.42164222       6.48298344      24.58417375        2       0.00000000      -0.00288310       0.00136463       0.02470118
Pt      -0.00962778       0.00459828      26.91406073        1       0.00000000       0.01472335      -0.00481963      -0.00621606
Pt       2.80628972       0.04881086      26.90983452        1       0.00000000       0.00133764       0.00177012       0.01341538
Pt       5.62321622       0.00603762      26.91405770        1       0.00000000      -0.01155724      -0.01033656      -0.00616953
Pt       1.39938712       2.43003396      26.92342460        1       0.00000000       0.01875386       0.00840683      -0.00079213
Pt       4.21386604       2.42798856      26.92341426        1       0.00000000      -0.01666721       0.01202478      -0.00082625
Pt       7.01885857       2.42049323      26.91405006        1       0.00000000      -0.00323394       0.01519333      -0.00625293
Pt       2.80840390       4.86643042      26.92343528        1       0.00000000      -0.00209406      -0.02049040      -0.00074116
Pt       5.57254547       4.83704391      26.90967452        1       0.00000000      -0.00248068       0.00032706       0.01257431
Pt       8.46449133       4.83856799      26.90947686        1       0.00000000       0.00142587      -0.00236785       0.01146867
O        7.01751948       5.67337552      29.27487336        0       0.50000000      -0.00288504       0.00425823       0.01828833
H        7.01842954       5.67201749      28.28073732        0       0.50000000       0.00234867      -0.00348715      -0.02015499
