38
Lattice="8.421641763931781 0.0 0.0 4.2108208819658905 7.293355709136913 0.0 0.0 0.0 46.87624170604845" Properties=species:S:1:pos:R:3:tags:I:1:initial_magmoms:R:1:forces:R:3 charge=0 spin=0 energy=-194.69036242062413 free_energy=-194.69036242062413 stress="0.00959089770913124 -4.424732580332602e-09 2.045604503564391e-07 -4.424732580332602e-09 0.009591047652065754 -3.830586337016939e-08 2.045604503564391e-07 -3.830586337016939e-08 -0.00015930701920296997" pbc="T T T"
Pt      -0.00000011      -0.00000005      19.95723442        4       0.00000000      -0.00230151       0.00038156       0.01309290
Pt       2.80721395      -0.00000019      19.95723450        4       0.00000000      -0.00160386       0.00558401       0.01202325
Pt       5.61442786      -0.00000007      19.95723452        4       0.00000000       0.00149110       0.00177490       0.01311678
Pt       1.40360721       2.43111839      19.95723434        4       0.00000000       0.00566378       0.00377263      -0.00138428
Pt       4.21082082       2.43111837      19.95723444        4       0.00000000      -0.00607550       0.00305038      -0.00136556
Pt       7.01803481       2.43111844      19.95723433        4       0.00000000       0.00081190      -0.00214914       0.01307380
Pt       2.80721415       4.86223733      19.95723415        4       0.00000000       0.00040553      -0.00682461      -0.00135888
Pt       5.61442796       4.86223739      19.95723433        4       0.00000000      -0.00403017      -0.00418580       0.01199976
Pt       8.42164143       4.86223725      19.95723439        4       0.00000000       0.00563618      -0.00140457       0.01199441
Pt       1.40360728       0.81037261      22.29206792        3       0.00000000      -0.00787859      -0.00533603      -0.04147778
Pt       4.21082128       0.81037249      22.29206789        3       0.00000000       0.00901752      -0.00540643      -0.04359461
Pt       7.01803472       0.81037258      22.29206780        3       0.00000000      -0.00000044       0.00001575      -0.04670030
Pt       2.80721447       3.24149123      22.29206774        3       0.00000000      -0.00000931       0.00000304       0.07111425
Pt       5.61442762       3.24149120      22.29206786        3       0.00000000       0.00865638      -0.00414380      -0.04159779
Pt       8.42164156       3.24149131      22.29206806        3       0.00000000      -0.00918907      -0.00511422      -0.04369526
Pt       4.21082090       5.67260998      22.29206740        3       0.00000000       0.00017472       0.01052360      -0.04358467
Pt       7.01803486       5.67261041      22.29206774        3       0.00000000      -0.00000346      -0.00001628      -0.02845159
Pt       9.82524817       5.67261060      22.29206803        3       0.00000000      -0.00076511       0.00948151      -0.04156339
Pt      -0.00000054       1.62074568      24.58417374        2       0.00000000       0.00791312       0.00296110      -0.00969761
Pt       2.80721436       1.62074546      24.58417392        2       0.00000000      -0.00519037      -0.00874435       0.02078891
Pt       5.61442782       1.62074536      24.58417379        2       0.00000000      -0.00643679       0.00533844      -0.00976543
Pt       1.40360636       4.05186439      24.58417387        2       0.00000000      -0.00489663       0.00900694       0.02098348
Pt       4.21082089       4.05186396      24.58417387        2       0.00000000       0.01015349      -0.00010419       0.02114798
Pt       7.01803504       4.05186408      24.58417404        2       0.00000000       0.00290394       0.00692395       0.02089755
Pt       2.80721273       6.48298349      24.58417384        2       0.00000000      -0.00143354      -0.00850991      -0.00936175
Pt       5.61442806       6.48298330      24.58417399        2       0.00000000       0.00432116      -0.00603575       0.02104797
Pt       8.42164222       6.48298344      24.58417375        2       0.00000000      -0.00728917      -0.00084372       0.02094275
Pt      -0.00851812       0.00579662      26.91068988        1       0.00000000       0.00860468      -0.01176992       0.00758338
Pt       2.80590125       0.04888077      26.91034759        1       0.00000000       0.00640348       0.00018897       0.00934645
Pt       5.62370008       0.00445268      26.91069223        1       0.00000000      -0.01434963      -0.00158775       0.00760409
Pt       1.40224257       2.43088479      26.92094649        1       0.00000000      -0.00471218       0.00297045       0.01372672
Pt       4.21168400       2.43000256      26.92093850        1       0.00000000      -0.00003243      -0.00512145       0.01375628
Pt       7.01725952       2.42088274      26.91063983        1       0.00000000       0.00578171       0.01323348       0.00771991
Pt       2.80771075       4.86350261      26.92105182        1       0.00000000       0.00480941       0.00271540       0.01320864
Pt       5.57273424       4.83667355      26.91039239        1       0.00000000      -0.00342469       0.00529916       0.00915716
Pt       8.46466852       4.83895869      26.91036722        1       0.00000000      -0.00304147      -0.00590899       0.00901420
O        7.01795914       5.67261762      29.27388561        0       0.50000000      -0.00037836       0.00000500      -0.02029553
H        7.01809368       5.67261573      28.27858140        0       0.50000000       0.00029412      -0.00002354       0.02055444
