38
Lattice="8.421641763931781 0.0 0.0 4.2108208819658905 7.293355709136913 0.0 0.0 0.0 46.87624170604845" Properties=species:S:1:pos:R:3:tags:I:1:initial_magmoms:R:1:forces:R:3 charge=0 spin=0 energy=-194.6904482513126 free_energy=-194.6904482513126 stress="0.009615827351808548 -4.1657752802848336e-08 1.1531029997513542e-07 -4.1657752802848336e-08 0.009616523049771786 -9.918659316099365e-07 1.1531029997513542e-07 -9.918659316099365e-07 -0.00013171933824196458" pbc="T T T"
Pt      -0.00000011      -0.00000005      19.95723442        4       0.00000000      -0.00231620       0.00047241       0.01310645
Pt       2.80721395      -0.00000019      19.95723450        4       0.00000000      -0.00171524       0.00556779       0.01201814
Pt       5.61442786      -0.00000007      19.95723452        4       0.00000000       0.00157892       0.00173439       0.01312853
Pt       1.40360721       2.43111839      19.95723434        4       0.00000000       0.00569810       0.00374820      -0.00134930
Pt       4.21082082       2.43111837      19.95723444        4       0.00000000      -0.00606887       0.00309461      -0.00133473
Pt       7.01803481       2.43111844      19.95723433        4       0.00000000       0.00073348      -0.00220501       0.01309273
Pt       2.80721415       4.86223733      19.95723415        4       0.00000000       0.00036639      -0.00682572      -0.00136872
Pt       5.61442796       4.86223739      19.95723433        4       0.00000000      -0.00395946      -0.00427480       0.01199263
Pt       8.42164143       4.86223725      19.95723439        4       0.00000000       0.00567775      -0.00130010       0.01198697
Pt       1.40360728       0.81037261      22.29206792        3       0.00000000      -0.00809530      -0.00528697      -0.04116312
Pt       4.21082128       0.81037249      22.29206789        3       0.00000000       0.00907514      -0.00541105      -0.04422341
Pt       7.01803472       0.81037258      22.29206780        3       0.00000000       0.00000517       0.00000331      -0.04712164
Pt       2.80721447       3.24149123      22.29206774        3       0.00000000      -0.00001041       0.00001054       0.07145283
Pt       5.61442762       3.24149120      22.29206786        3       0.00000000       0.00871448      -0.00435699      -0.04127136
Pt       8.42164156       3.24149131      22.29206806        3       0.00000000      -0.00922559      -0.00515843      -0.04432748
Pt       4.21082090       5.67260998      22.29206740        3       0.00000000       0.00013540       0.01057469      -0.04425962
Pt       7.01803486       5.67261041      22.29206774        3       0.00000000      -0.00000797      -0.00000970      -0.02812898
Pt       9.82524817       5.67261060      22.29206803        3       0.00000000      -0.00059731       0.00963899      -0.04128080
Pt      -0.00000054       1.62074568      24.58417374        2       0.00000000       0.01096369       0.00300644      -0.00565539
Pt       2.80721436       1.62074546      24.58417392        2       0.00000000      -0.00583829      -0.00651260       0.03383901
Pt       5.61442782       1.62074536      24.58417379        2       0.00000000      -0.00801905       0.00800632      -0.00571124
Pt       1.40360636       4.05186439      24.58417387        2       0.00000000      -0.00235084       0.00820357       0.03318431
Pt       4.21082089       4.05186396      24.58417387        2       0.00000000       0.00825614      -0.00212363       0.03326115
Pt       7.01803504       4.05186408      24.58417404        2       0.00000000       0.00198226       0.00752108       0.02258298
Pt       2.80721273       6.48298349      24.58417384        2       0.00000000      -0.00295780      -0.01105243      -0.00550150
Pt       5.61442806       6.48298330      24.58417399        2       0.00000000       0.00552358      -0.00541920       0.02289070
Pt       8.42164222       6.48298344      24.58417375        2       0.00000000      -0.00751767      -0.00185133       0.02282235
Pt      -0.00890101       0.00442146      26.91072263        1       0.00000000       0.01047399      -0.00379109       0.00786389
Pt       2.80647308       0.04828025      26.91133525        1       0.00000000       0.00105639       0.00959635       0.00328788
Pt       5.62270865       0.00549748      26.91073180        1       0.00000000      -0.00853739      -0.00714677       0.00785144
Pt       1.40116200       2.43072887      26.92347898        1       0.00000000       0.00702931       0.00368030      -0.00026346
Pt       4.21236702       2.42919591      26.92348711        1       0.00000000      -0.00671055       0.00420541      -0.00028348
Pt       7.01863740       2.42120553      26.91070093        1       0.00000000      -0.00191885       0.01095853       0.00789960
Pt       2.80810486       4.86454236      26.92348928        1       0.00000000      -0.00031450      -0.00793947      -0.00022998
Pt       5.57295469       4.83743526      26.91121171        1       0.00000000      -0.00900366      -0.00388610       0.00278981
Pt       8.46388140       4.83873811      26.91119542        1       0.00000000       0.00793988      -0.00579568       0.00268981
O        7.01799360       5.67293636      29.27311048        0       0.50000000      -0.00023880       0.00186509       0.01773320
H        7.01806511       5.67235377      28.27872129        0       0.50000000       0.00019364      -0.00154082      -0.01200039
