38
Lattice="8.421641763931781 0.0 0.0 4.2108208819658905 7.293355709136913 0.0 0.0 0.0 46.87624170604845" Properties=species:S:1:pos:R:3:tags:I:1:initial_magmoms:R:1:forces:R:3 charge=0 spin=0 energy=-194.69044634396397 free_energy=-194.69044634396397 stress="0.009615861810743809 -3.672693438261376e-08 1.3351491645607894e-07 -3.672693438261376e-08 0.00961656216531992 -9.994638503485476e-07 1.3351491645607894e-07 -9.994638503485476e-07 -0.00013172773469705135" pbc="T T T"
Pt      -0.00000011      -0.00000005      19.95723442        4       0.00000000      -0.00231619       0.00047239       0.01310643
Pt       2.80721395      -0.00000019      19.95723450        4       0.00000000      -0.00171501       0.00556757       0.01201788
Pt       5.61442786      -0.00000007      19.95723452        4       0.00000000       0.00157893       0.00173412       0.01312863
Pt       1.40360721       2.43111839      19.95723434        4       0.00000000       0.00569760       0.00374781      -0.00134940
Pt       4.21082082       2.43111837      19.95723444        4       0.00000000      -0.00606875       0.00309471      -0.00133411
Pt       7.01803481       2.43111844      19.95723433        4       0.00000000       0.00073346      -0.00220489       0.01309297
Pt       2.80721415       4.86223733      19.95723415        4       0.00000000       0.00036641      -0.00682550      -0.00136842
Pt       5.61442796       4.86223739      19.95723433        4       0.00000000      -0.00395937      -0.00427466       0.01199295
Pt       8.42164143       4.86223725      19.95723439        4       0.00000000       0.00567733      -0.00129991       0.01198674
Pt       1.40360728       0.81037261      22.29206792        3       0.00000000      -0.00809497      -0.00528685      -0.04116206
Pt       4.21082128       0.81037249      22.29206789        3       0.00000000       0.00907469      -0.00541115      -0.04422167
Pt       7.01803472       0.81037258      22.29206780        3       0.00000000       0.00000520       0.00000315      -0.04712195
Pt       2.80721447       3.24149123      22.29206774        3       0.00000000      -0.00001006       0.00001044       0.07144744
Pt       5.61442762       3.24149120      22.29206786        3       0.00000000       0.00871434      -0.00435649      -0.04127122
Pt       8.42164156       3.24149131      22.29206806        3       0.00000000      -0.00922555      -0.00515844      -0.04432826
Pt       4.21082090       5.67260998      22.29206740        3       0.00000000       0.00013563       0.01057394      -0.04425770
Pt       7.01803486       5.67261041      22.29206774        3       0.00000000      -0.00000816      -0.00000961      -0.02812843
Pt       9.82524817       5.67261060      22.29206803        3       0.00000000      -0.00059677       0.00963810      -0.04127962
Pt      -0.00000054       1.62074568      24.58417374        2       0.00000000       0.01096164       0.00300563      -0.00565645
Pt       2.80721436       1.62074546      24.58417392        2       0.00000000      -0.00583763      -0.00651559       0.03383430
Pt       5.61442782       1.62074536      24.58417379        2       0.00000000      -0.00801635       0.00800641      -0.00571342
Pt       1.40360636       4.05186439      24.58417387        2       0.00000000      -0.00234700       0.00820120       0.03317686
Pt       4.21082089       4.05186396      24.58417387        2       0.00000000       0.00825883      -0.00212071       0.03326592
Pt       7.01803504       4.05186408      24.58417404        2       0.00000000       0.00197968       0.00752227       0.02258623
Pt       2.80721273       6.48298349      24.58417384        2       0.00000000      -0.00295824      -0.01105240      -0.00550041
Pt       5.61442806       6.48298330      24.58417399        2       0.00000000       0.00552494      -0.00541942       0.02289571
Pt       8.42164222       6.48298344      24.58417375        2       0.00000000      -0.00751946      -0.00184899       0.02282465
Pt      -0.00890097       0.00442105      26.91072290        1       0.00000000       0.01047669      -0.00378894       0.00786419
Pt       2.80647267       0.04827764      26.91133637        1       0.00000000       0.00105292       0.00958808       0.00329609
Pt       5.62270824       0.00549684      26.91073170        1       0.00000000      -0.00853846      -0.00714830       0.00785212
Pt       1.40116142       2.43072845      26.92347723        1       0.00000000       0.00702837       0.00368557      -0.00025659
Pt       4.21236744       2.42919543      26.92348494        1       0.00000000      -0.00671294       0.00421231      -0.00027665
Pt       7.01863737       2.42120584      26.91070155        1       0.00000000      -0.00191702       0.01095845       0.00789985
Pt       2.80810515       4.86454309      26.92348768        1       0.00000000      -0.00031597      -0.00794420      -0.00023675
Pt       5.57295670       4.83743723      26.91121357        1       0.00000000      -0.00900308      -0.00388311       0.00279028
Pt       8.46387990       4.83873917      26.91119524        1       0.00000000       0.00794331      -0.00579996       0.00268044
O        7.01798846       5.67293755      29.27312835        0       0.50000000      -0.00027239       0.00189410       0.01778451
H        7.01806954       5.67235260      28.27874028        0       0.50000000       0.00022325      -0.00156732      -0.01206137
