38
Lattice="8.421641763931781 0.0 0.0 4.2108208819658905 7.293355709136913 0.0 0.0 0.0 46.87624170604845" Properties=species:S:1:pos:R:3:tags:I:1:initial_magmoms:R:1:forces:R:3 charge=0 spin=0 energy=-194.69038530880772 free_energy=-194.69038530880772 stress="0.009644756093621254 -1.1937895294522605e-07 -4.379849016800108e-08 -1.1937895294522605e-07 0.009645581245422363 -1.250784862349974e-06 -4.379849016800108e-08 -1.250784862349974e-06 -7.969836588017642e-05" pbc="T T T"
Pt      -0.00000011      -0.00000005      19.95723442        4       0.00000000      -0.00204759       0.00034314       0.01315255
Pt       2.80721395      -0.00000019      19.95723450        4       0.00000000      -0.00165235       0.00555892       0.01213319
Pt       5.61442786      -0.00000007      19.95723452        4       0.00000000       0.00132884       0.00156910       0.01317314
Pt       1.40360721       2.43111839      19.95723434        4       0.00000000       0.00570404       0.00377078      -0.00134137
Pt       4.21082082       2.43111837      19.95723444        4       0.00000000      -0.00608963       0.00308292      -0.00133558
Pt       7.01803481       2.43111844      19.95723433        4       0.00000000       0.00071185      -0.00190485       0.01314159
Pt       2.80721415       4.86223733      19.95723415        4       0.00000000       0.00038646      -0.00683974      -0.00137370
Pt       5.61442796       4.86223739      19.95723433        4       0.00000000      -0.00398279      -0.00421745       0.01210858
Pt       8.42164143       4.86223725      19.95723439        4       0.00000000       0.00563728      -0.00135336       0.01210260
Pt       1.40360728       0.81037261      22.29206792        3       0.00000000      -0.00829197      -0.00506126      -0.04097251
Pt       4.21082128       0.81037249      22.29206789        3       0.00000000       0.00922795      -0.00515214      -0.04371546
Pt       7.01803472       0.81037258      22.29206780        3       0.00000000       0.00000581      -0.00000501      -0.04967570
Pt       2.80721447       3.24149123      22.29206774        3       0.00000000      -0.00000816       0.00001064       0.06969476
Pt       5.61442762       3.24149120      22.29206786        3       0.00000000       0.00860485      -0.00464409      -0.04106774
Pt       8.42164156       3.24149131      22.29206806        3       0.00000000      -0.00907115      -0.00542376      -0.04380780
Pt       4.21082090       5.67260998      22.29206740        3       0.00000000      -0.00017602       0.01057754      -0.04379233
Pt       7.01803486       5.67261041      22.29206774        3       0.00000000      -0.00001072      -0.00001015      -0.02667739
Pt       9.82524817       5.67261060      22.29206803        3       0.00000000      -0.00029029       0.00969087      -0.04112113
Pt      -0.00000054       1.62074568      24.58417374        2       0.00000000       0.01345988       0.00522977      -0.00014572
Pt       2.80721436       1.62074546      24.58417392        2       0.00000000      -0.00561165      -0.01149679       0.03822775
Pt       5.61442782       1.62074536      24.58417379        2       0.00000000      -0.01113859       0.00913289      -0.00022086
Pt       1.40360636       4.05186439      24.58417387        2       0.00000000      -0.00682068       0.01044633       0.03760899
Pt       4.21082089       4.05186396      24.58417387        2       0.00000000       0.01241382       0.00048306       0.03754143
Pt       7.01803504       4.05186408      24.58417404        2       0.00000000       0.00203351       0.01167765       0.03176474
Pt       2.80721273       6.48298349      24.58417384        2       0.00000000      -0.00232749      -0.01428768       0.00007300
Pt       5.61442806       6.48298330      24.58417399        2       0.00000000       0.00917513      -0.00748664       0.03206556
Pt       8.42164222       6.48298344      24.58417375        2       0.00000000      -0.01116830      -0.00390366       0.03202026
Pt      -0.00822027       0.00470210      26.91019967        1       0.00000000       0.00670226      -0.00509172       0.00726949
Pt       2.80653269       0.04834074      26.91431810        1       0.00000000       0.00145980       0.00391106      -0.01033924
Pt       5.62259113       0.00483526      26.91021355        1       0.00000000      -0.00758725      -0.00369531       0.00724574
Pt       1.40395351       2.43218618      26.92458344        1       0.00000000      -0.01547891      -0.00759287      -0.00372054
Pt       4.20969483       2.43084355      26.92458729        1       0.00000000       0.01460364      -0.00903540      -0.00369127
Pt       7.01808736       2.42165231      26.91019689        1       0.00000000       0.00090197       0.00849482       0.00723774
Pt       2.80799113       4.86136624      26.92454839        1       0.00000000       0.00078477       0.01742456      -0.00356106
Pt       5.57291501       4.83749061      26.91413874        1       0.00000000      -0.00478678      -0.00101384      -0.01111305
Pt       8.46384429       4.83871874      26.91414887        1       0.00000000       0.00339046      -0.00367877      -0.01112715
O        7.01804252       5.67298008      29.27799028        0       0.50000000       0.00007723       0.00229518       0.00570253
H        7.01801227       5.67225884      28.28335150        0       0.50000000      -0.00006894      -0.00180495      -0.00346420
