38
Lattice="8.421641763931781 0.0 0.0 4.2108208819658905 7.293355709136913 0.0 0.0 0.0 46.87624170604845" Properties=species:S:1:pos:R:3:tags:I:1:initial_magmoms:R:1:forces:R:3 charge=0 spin=0 energy=-194.69031664425694 free_energy=-194.69031664425694 stress="0.009629862383008003 4.365369363767968e-07 1.4009974620421417e-06 4.365369363767968e-07 0.00963134877383709 -2.1912944703217363e-06 1.4009974620421417e-06 -2.1912944703217363e-06 -0.00011050663306377828" pbc="T T T"
Pt      -0.00000011      -0.00000005      19.95723442        4       0.00000000      -0.00253428       0.00057431       0.01309214
Pt       2.80721395      -0.00000019      19.95723450        4       0.00000000      -0.00175976       0.00558195       0.01198750
Pt       5.61442786      -0.00000007      19.95723452        4       0.00000000       0.00177717       0.00186034       0.01312151
Pt       1.40360721       2.43111839      19.95723434        4       0.00000000       0.00566700       0.00371609      -0.00130311
Pt       4.21082082       2.43111837      19.95723444        4       0.00000000      -0.00604919       0.00310157      -0.00122813
Pt       7.01803481       2.43111844      19.95723433        4       0.00000000       0.00075635      -0.00244182       0.01309044
Pt       2.80721415       4.86223733      19.95723415        4       0.00000000       0.00035051      -0.00678045      -0.00133869
Pt       5.61442796       4.86223739      19.95723433        4       0.00000000      -0.00394901      -0.00431848       0.01196248
Pt       8.42164143       4.86223725      19.95723439        4       0.00000000       0.00571396      -0.00127152       0.01195393
Pt       1.40360728       0.81037261      22.29206792        3       0.00000000      -0.00773826      -0.00566455      -0.04130574
Pt       4.21082128       0.81037249      22.29206789        3       0.00000000       0.00882938      -0.00582892      -0.04451915
Pt       7.01803472       0.81037258      22.29206780        3       0.00000000       0.00000629       0.00000486      -0.04480409
Pt       2.80721447       3.24149123      22.29206774        3       0.00000000      -0.00001798       0.00001328       0.07222565
Pt       5.61442762       3.24149120      22.29206786        3       0.00000000       0.00887402      -0.00384408      -0.04141083
Pt       8.42164156       3.24149131      22.29206806        3       0.00000000      -0.00946256      -0.00475318      -0.04466049
Pt       4.21082090       5.67260998      22.29206740        3       0.00000000       0.00059454       0.01056106      -0.04455838
Pt       7.01803486       5.67261041      22.29206774        3       0.00000000      -0.00000396      -0.00001170      -0.03027873
Pt       9.82524817       5.67261060      22.29206803        3       0.00000000      -0.00109828       0.00951382      -0.04145076
Pt      -0.00000054       1.62074568      24.58417374        2       0.00000000       0.00677044       0.00020621       0.00150225
Pt       2.80721436       1.62074546      24.58417392        2       0.00000000      -0.00611620      -0.00262578       0.03287303
Pt       5.61442782       1.62074536      24.58417379        2       0.00000000      -0.00345878       0.00581103       0.00139997
Pt       1.40360636       4.05186439      24.58417387        2       0.00000000       0.00181870       0.00614107       0.03113287
Pt       4.21082089       4.05186396      24.58417387        2       0.00000000       0.00492226      -0.00442189       0.03207576
Pt       7.01803504       4.05186408      24.58417404        2       0.00000000       0.00198910       0.00189682       0.02451234
Pt       2.80721273       6.48298349      24.58417384        2       0.00000000      -0.00329688      -0.00603608       0.00163666
Pt       5.61442806       6.48298330      24.58417399        2       0.00000000       0.00062852      -0.00279331       0.02490345
Pt       8.42164222       6.48298344      24.58417375        2       0.00000000      -0.00289371       0.00134762       0.02473236
Pt      -0.00962768       0.00459852      26.91405701        1       0.00000000       0.01474548      -0.00483332      -0.00618889
Pt       2.80629035       0.04883072      26.90982728        1       0.00000000       0.00134289       0.00154630       0.01343105
Pt       5.62321645       0.00603703      26.91405407        1       0.00000000      -0.01158330      -0.01035924      -0.00615872
Pt       1.39938620       2.43003482      26.92342457        1       0.00000000       0.01875163       0.00839476      -0.00077379
Pt       4.21386610       2.42798892      26.92341552        1       0.00000000      -0.01665988       0.01202567      -0.00081929
Pt       7.01885838       2.42049328      26.91404657        1       0.00000000      -0.00323279       0.01522249      -0.00623921
Pt       2.80840266       4.86643075      26.92343587        1       0.00000000      -0.00208648      -0.02048066      -0.00072489
Pt       5.57253036       4.83703415      26.90967228        1       0.00000000      -0.00230440       0.00043994       0.01259407
Pt       8.46450490       4.83855945      26.90948167        1       0.00000000       0.00121524      -0.00223595       0.01155149
O        7.01754002       5.67334977      29.27492250        0       0.50000000      -0.00277577       0.00419269       0.01946449
H        7.01841489       5.67203767      28.28082189        0       0.50000000       0.00226794      -0.00345107      -0.02148043
