38
Lattice="8.421641763931781 0.0 0.0 4.2108208819658905 7.293355709136913 0.0 0.0 0.0 46.87624170604845" Properties=species:S:1:pos:R:3:tags:I:1:initial_magmoms:R:1:forces:R:3 charge=0 spin=0 energy=-194.69031855160557 free_energy=-194.69031855160557 stress="0.009629699401557446 4.4672631815956265e-07 1.4457732504524756e-06 4.4672631815956265e-07 0.009631216526031494 -2.233377472293796e-06 1.4457732504524756e-06 -2.233377472293796e-06 -0.000109796405013185" pbc="T T T"
Pt      -0.00000011      -0.00000005      19.95723442        4       0.00000000      -0.00253433       0.00057386       0.01309218
Pt       2.80721395      -0.00000019      19.95723450        4       0.00000000      -0.00176011       0.00558278       0.01198659
Pt       5.61442786      -0.00000007      19.95723452        4       0.00000000       0.00177684       0.00186036       0.01312183
Pt       1.40360721       2.43111839      19.95723434        4       0.00000000       0.00566519       0.00371480      -0.00130470
Pt       4.21082082       2.43111837      19.95723444        4       0.00000000      -0.00604775       0.00310137      -0.00122788
Pt       7.01803481       2.43111844      19.95723433        4       0.00000000       0.00075661      -0.00244140       0.01309106
Pt       2.80721415       4.86223733      19.95723415        4       0.00000000       0.00034995      -0.00677783      -0.00134111
Pt       5.61442796       4.86223739      19.95723433        4       0.00000000      -0.00394971      -0.00431922       0.01196195
Pt       8.42164143       4.86223725      19.95723439        4       0.00000000       0.00571521      -0.00127193       0.01195311
Pt       1.40360728       0.81037261      22.29206792        3       0.00000000      -0.00773868      -0.00566200      -0.04130636
Pt       4.21082128       0.81037249      22.29206789        3       0.00000000       0.00883086      -0.00582570      -0.04452017
Pt       7.01803472       0.81037258      22.29206780        3       0.00000000       0.00000618       0.00000460      -0.04480579
Pt       2.80721447       3.24149123      22.29206774        3       0.00000000      -0.00001753       0.00001334       0.07223484
Pt       5.61442762       3.24149120      22.29206786        3       0.00000000       0.00887182      -0.00384462      -0.04141123
Pt       8.42164156       3.24149131      22.29206806        3       0.00000000      -0.00946064      -0.00475578      -0.04466326
Pt       4.21082090       5.67260998      22.29206740        3       0.00000000       0.00059033       0.01056043      -0.04455888
Pt       7.01803486       5.67261041      22.29206774        3       0.00000000      -0.00000393      -0.00001117      -0.03028552
Pt       9.82524817       5.67261060      22.29206803        3       0.00000000      -0.00109597       0.00951192      -0.04145145
Pt      -0.00000054       1.62074568      24.58417374        2       0.00000000       0.00676648       0.00020646       0.00152953
Pt       2.80721436       1.62074546      24.58417392        2       0.00000000      -0.00611502      -0.00267548       0.03297453
Pt       5.61442782       1.62074536      24.58417379        2       0.00000000      -0.00345629       0.00580845       0.00142543
Pt       1.40360636       4.05186439      24.58417387        2       0.00000000       0.00179227       0.00615739       0.03121003
Pt       4.21082089       4.05186396      24.58417387        2       0.00000000       0.00496523      -0.00440243       0.03217129
Pt       7.01803504       4.05186408      24.58417404        2       0.00000000       0.00198193       0.00185749       0.02445181
Pt       2.80721273       6.48298349      24.58417384        2       0.00000000      -0.00329637      -0.00603411       0.00166294
Pt       5.61442806       6.48298330      24.58417399        2       0.00000000       0.00059688      -0.00277088       0.02484391
Pt       8.42164222       6.48298344      24.58417375        2       0.00000000      -0.00286011       0.00136992       0.02467240
Pt      -0.00962901       0.00459811      26.91406330        1       0.00000000       0.01469488      -0.00479571      -0.00623266
Pt       2.80628995       0.04879952      26.90983038        1       0.00000000       0.00133667       0.00202274       0.01335825
Pt       5.62321644       0.00603834      26.91405982        1       0.00000000      -0.01153144      -0.01033400      -0.00620327
Pt       1.39938731       2.43003458      26.92342624        1       0.00000000       0.01875788       0.00840909      -0.00080967
Pt       4.21386581       2.42798867      26.92341710        1       0.00000000      -0.01666949       0.01203346      -0.00085708
Pt       7.01885892       2.42049274      26.91405277        1       0.00000000      -0.00323173       0.01515798      -0.00628052
Pt       2.80840410       4.86643008      26.92343749        1       0.00000000      -0.00210350      -0.02049722      -0.00076124
Pt       5.57255633       4.83704955      26.90967439        1       0.00000000      -0.00272173       0.00019686       0.01249893
Pt       8.46447989       4.83857438      26.90947836        1       0.00000000       0.00166257      -0.00248622       0.01140972
O        7.01752400       5.67336419      29.27476149        0       0.50000000      -0.00286321       0.00427176       0.01722726
H        7.01842603       5.67202639      28.28058878        0       0.50000000       0.00233964      -0.00350946      -0.01885699
