38
Lattice="8.421641763931781 0.0 0.0 4.2108208819658905 7.293355709136913 0.0 0.0 0.0 46.87624170604845" Properties=species:S:1:pos:R:3:tags:I:1:initial_magmoms:R:1:forces:R:3 charge=0 spin=0 energy=-194.69038912350499 free_energy=-194.69038912350499 stress="0.009644756093621254 -1.23421642683752e-07 -6.733235835554297e-08 -1.23421642683752e-07 0.009645587764680386 -1.2700772913376568e-06 -6.733235835554297e-08 -1.2700772913376568e-06 -7.968087447807193e-05" pbc="T T T"
Pt      -0.00000011      -0.00000005      19.95723442        4       0.00000000      -0.00204776       0.00034313       0.01315295
Pt       2.80721395      -0.00000019      19.95723450        4       0.00000000      -0.00165243       0.00555863       0.01213326
Pt       5.61442786      -0.00000007      19.95723452        4       0.00000000       0.00132900       0.00156931       0.01317318
Pt       1.40360721       2.43111839      19.95723434        4       0.00000000       0.00570437       0.00377100      -0.00134090
Pt       4.21082082       2.43111837      19.95723444        4       0.00000000      -0.00608954       0.00308310      -0.00133564
Pt       7.01803481       2.43111844      19.95723433        4       0.00000000       0.00071157      -0.00190478       0.01314165
Pt       2.80721415       4.86223733      19.95723415        4       0.00000000       0.00038643      -0.00683976      -0.00137370
Pt       5.61442796       4.86223739      19.95723433        4       0.00000000      -0.00398279      -0.00421742       0.01210875
Pt       8.42164143       4.86223725      19.95723439        4       0.00000000       0.00563716      -0.00135355       0.01210279
Pt       1.40360728       0.81037261      22.29206792        3       0.00000000      -0.00829202      -0.00506105      -0.04097297
Pt       4.21082128       0.81037249      22.29206789        3       0.00000000       0.00922798      -0.00515198      -0.04371526
Pt       7.01803472       0.81037258      22.29206780        3       0.00000000       0.00000583      -0.00000555      -0.04967537
Pt       2.80721447       3.24149123      22.29206774        3       0.00000000      -0.00000815       0.00001065       0.06969348
Pt       5.61442762       3.24149120      22.29206786        3       0.00000000       0.00860456      -0.00464489      -0.04106805
Pt       8.42164156       3.24149131      22.29206806        3       0.00000000      -0.00907111      -0.00542389      -0.04380805
Pt       4.21082090       5.67260998      22.29206740        3       0.00000000      -0.00017616       0.01057789      -0.04379196
Pt       7.01803486       5.67261041      22.29206774        3       0.00000000      -0.00001034      -0.00000981      -0.02667755
Pt       9.82524817       5.67261060      22.29206803        3       0.00000000      -0.00029016       0.00969136      -0.04112077
Pt      -0.00000054       1.62074568      24.58417374        2       0.00000000       0.01346060       0.00523077      -0.00014716
Pt       2.80721436       1.62074546      24.58417392        2       0.00000000      -0.00561415      -0.01150028       0.03823075
Pt       5.61442782       1.62074536      24.58417379        2       0.00000000      -0.01113760       0.00913405      -0.00021931
Pt       1.40360636       4.05186439      24.58417387        2       0.00000000      -0.00682498       0.01044497       0.03761032
Pt       4.21082089       4.05186396      24.58417387        2       0.00000000       0.01241079       0.00048032       0.03753519
Pt       7.01803504       4.05186408      24.58417404        2       0.00000000       0.00203716       0.01168026       0.03176947
Pt       2.80721273       6.48298349      24.58417384        2       0.00000000      -0.00232608      -0.01428701       0.00007458
Pt       5.61442806       6.48298330      24.58417399        2       0.00000000       0.00917825      -0.00748458       0.03206939
Pt       8.42164222       6.48298344      24.58417375        2       0.00000000      -0.01116859      -0.00390452       0.03202765
Pt      -0.00821988       0.00470196      26.91019929        1       0.00000000       0.00670445      -0.00509578       0.00726834
Pt       2.80653256       0.04833990      26.91431926        1       0.00000000       0.00146839       0.00391026      -0.01034314
Pt       5.62259135       0.00483505      26.91021304        1       0.00000000      -0.00759516      -0.00369912       0.00724182
Pt       1.40395337       2.43218628      26.92458300        1       0.00000000      -0.01547981      -0.00759496      -0.00372102
Pt       4.20969480       2.43084375      26.92458760        1       0.00000000       0.01460294      -0.00903767      -0.00369047
Pt       7.01808744       2.42165273      26.91019671        1       0.00000000       0.00090226       0.00849712       0.00723533
Pt       2.80799106       4.86136601      26.92454816        1       0.00000000       0.00078669       0.01742890      -0.00355896
Pt       5.57291452       4.83749065      26.91413824        1       0.00000000      -0.00479739      -0.00101807      -0.01114115
Pt       8.46384387       4.83871931      26.91414973        1       0.00000000       0.00339058      -0.00366881      -0.01113400
O        7.01804687       5.67298287      29.27799495        0       0.50000000       0.00013454       0.00234184       0.00565452
H        7.01800899       5.67225646      28.28335355        0       0.50000000      -0.00011905      -0.00184993      -0.00338816
