38
Lattice="8.421641763931781 0.0 0.0 4.2108208819658905 7.293355709136913 0.0 0.0 0.0 46.87624170604845" Properties=species:S:1:pos:R:3:tags:I:1:initial_magmoms:R:1:forces:R:3 charge=0 spin=0 energy=-194.6904482513126 free_energy=-194.6904482513126 stress="0.009615831077098846 -3.5247346374944755e-08 1.3568102019689832e-07 -3.5247346374944755e-08 0.009616530500352383 -1.0002785302276607e-06 1.3568102019689832e-07 -1.0002785302276607e-06 -0.00013176293577998877" pbc="T T T"
Pt      -0.00000011      -0.00000005      19.95723442        4       0.00000000      -0.00231622       0.00047246       0.01310639
Pt       2.80721395      -0.00000019      19.95723450        4       0.00000000      -0.00171515       0.00556787       0.01201795
Pt       5.61442786      -0.00000007      19.95723452        4       0.00000000       0.00157892       0.00173420       0.01312884
Pt       1.40360721       2.43111839      19.95723434        4       0.00000000       0.00569771       0.00374795      -0.00134978
Pt       4.21082082       2.43111837      19.95723444        4       0.00000000      -0.00606893       0.00309474      -0.00133405
Pt       7.01803481       2.43111844      19.95723433        4       0.00000000       0.00073365      -0.00220502       0.01309295
Pt       2.80721415       4.86223733      19.95723415        4       0.00000000       0.00036645      -0.00682572      -0.00136872
Pt       5.61442796       4.86223739      19.95723433        4       0.00000000      -0.00395957      -0.00427483       0.01199282
Pt       8.42164143       4.86223725      19.95723439        4       0.00000000       0.00567763      -0.00130015       0.01198684
Pt       1.40360728       0.81037261      22.29206792        3       0.00000000      -0.00809554      -0.00528699      -0.04116355
Pt       4.21082128       0.81037249      22.29206789        3       0.00000000       0.00907490      -0.00541108      -0.04422170
Pt       7.01803472       0.81037258      22.29206780        3       0.00000000       0.00000495       0.00000298      -0.04712163
Pt       2.80721447       3.24149123      22.29206774        3       0.00000000      -0.00001058       0.00001024       0.07145100
Pt       5.61442762       3.24149120      22.29206786        3       0.00000000       0.00871446      -0.00435705      -0.04127193
Pt       8.42164156       3.24149131      22.29206806        3       0.00000000      -0.00922555      -0.00515842      -0.04432840
Pt       4.21082090       5.67260998      22.29206740        3       0.00000000       0.00013522       0.01057486      -0.04425925
Pt       7.01803486       5.67261041      22.29206774        3       0.00000000      -0.00000804      -0.00000928      -0.02812869
Pt       9.82524817       5.67261060      22.29206803        3       0.00000000      -0.00059694       0.00963925      -0.04128049
Pt      -0.00000054       1.62074568      24.58417374        2       0.00000000       0.01096289       0.00300614      -0.00565399
Pt       2.80721436       1.62074546      24.58417392        2       0.00000000      -0.00583760      -0.00651149       0.03383343
Pt       5.61442782       1.62074536      24.58417379        2       0.00000000      -0.00801818       0.00800820      -0.00571078
Pt       1.40360636       4.05186439      24.58417387        2       0.00000000      -0.00234505       0.00819683       0.03317223
Pt       4.21082089       4.05186396      24.58417387        2       0.00000000       0.00826187      -0.00212137       0.03326954
Pt       7.01803504       4.05186408      24.58417404        2       0.00000000       0.00197855       0.00752223       0.02258514
Pt       2.80721273       6.48298349      24.58417384        2       0.00000000      -0.00295843      -0.01105205      -0.00550066
Pt       5.61442806       6.48298330      24.58417399        2       0.00000000       0.00552407      -0.00542063       0.02289491
Pt       8.42164222       6.48298344      24.58417375        2       0.00000000      -0.00751808      -0.00184879       0.02282214
Pt      -0.00890106       0.00442130      26.91072256        1       0.00000000       0.01047622      -0.00378709       0.00786355
Pt       2.80647270       0.04827992      26.91133497        1       0.00000000       0.00105265       0.00959103       0.00329024
Pt       5.62270830       0.00549724      26.91073148        1       0.00000000      -0.00854109      -0.00715339       0.00784629
Pt       1.40116231       2.43072889      26.92347854        1       0.00000000       0.00702209       0.00368283      -0.00026105
Pt       4.21236682       2.42919580      26.92348620        1       0.00000000      -0.00670693       0.00420978      -0.00028369
Pt       7.01863755       2.42120551      26.91070153        1       0.00000000      -0.00191644       0.01096016       0.00789805
Pt       2.80810505       4.86454232      26.92348902        1       0.00000000      -0.00031343      -0.00793952      -0.00023022
Pt       5.57295542       4.83743603      26.91121302        1       0.00000000      -0.00900984      -0.00388557       0.00278294
Pt       8.46388118       4.83873820      26.91119431        1       0.00000000       0.00794580      -0.00579926       0.00267783
O        7.01798653       5.67293705      29.27311506        0       0.50000000      -0.00028496       0.00189043       0.01782014
H        7.01807071       5.67235294      28.27872612        0       0.50000000       0.00023861      -0.00156434      -0.01206460
