38
Lattice="8.421641763931781 0.0 0.0 4.2108208819658905 7.293355709136913 0.0 0.0 0.0 46.87624170604845" Properties=species:S:1:pos:R:3:tags:I:1:initial_magmoms:R:1:forces:R:3 charge=0 spin=0 energy=-194.69038912350499 free_energy=-194.69038912350499 stress="0.009644654579460621 -1.1888297990481078e-07 -4.5960970140868085e-08 -1.1888297990481078e-07 0.009645484387874603 -1.2614477782335598e-06 -4.5960970140868085e-08 -1.2614477782335598e-06 -7.972949970280752e-05" pbc="T T T"
Pt      -0.00000011      -0.00000005      19.95723442        4       0.00000000      -0.00204793       0.00034313       0.01315259
Pt       2.80721395      -0.00000019      19.95723450        4       0.00000000      -0.00165260       0.00555929       0.01213311
Pt       5.61442786      -0.00000007      19.95723452        4       0.00000000       0.00132889       0.00156956       0.01317289
Pt       1.40360721       2.43111839      19.95723434        4       0.00000000       0.00570468       0.00377129      -0.00134175
Pt       4.21082082       2.43111837      19.95723444        4       0.00000000      -0.00609026       0.00308329      -0.00133609
Pt       7.01803481       2.43111844      19.95723433        4       0.00000000       0.00071199      -0.00190501       0.01314131
Pt       2.80721415       4.86223733      19.95723415        4       0.00000000       0.00038656      -0.00684030      -0.00137442
Pt       5.61442796       4.86223739      19.95723433        4       0.00000000      -0.00398324      -0.00421778       0.01210849
Pt       8.42164143       4.86223725      19.95723439        4       0.00000000       0.00563776      -0.00135370       0.01210283
Pt       1.40360728       0.81037261      22.29206792        3       0.00000000      -0.00829276      -0.00506193      -0.04097389
Pt       4.21082128       0.81037249      22.29206789        3       0.00000000       0.00922860      -0.00515243      -0.04371735
Pt       7.01803472       0.81037258      22.29206780        3       0.00000000       0.00000578      -0.00000572      -0.04967826
Pt       2.80721447       3.24149123      22.29206774        3       0.00000000      -0.00000827       0.00001070       0.06970745
Pt       5.61442762       3.24149120      22.29206786        3       0.00000000       0.00860601      -0.00464480      -0.04107016
Pt       8.42164156       3.24149131      22.29206806        3       0.00000000      -0.00907206      -0.00542437      -0.04381016
Pt       4.21082090       5.67260998      22.29206740        3       0.00000000      -0.00017649       0.01057917      -0.04379519
Pt       7.01803486       5.67261041      22.29206774        3       0.00000000      -0.00001014      -0.00001003      -0.02667648
Pt       9.82524817       5.67261060      22.29206803        3       0.00000000      -0.00029063       0.00969183      -0.04112284
Pt      -0.00000054       1.62074568      24.58417374        2       0.00000000       0.01346413       0.00523489      -0.00015227
Pt       2.80721436       1.62074546      24.58417392        2       0.00000000      -0.00561420      -0.01150036       0.03823037
Pt       5.61442782       1.62074536      24.58417379        2       0.00000000      -0.01114307       0.00913468      -0.00022615
Pt       1.40360636       4.05186439      24.58417387        2       0.00000000      -0.00682178       0.01044834       0.03761156
Pt       4.21082089       4.05186396      24.58417387        2       0.00000000       0.01241425       0.00048037       0.03754057
Pt       7.01803504       4.05186408      24.58417404        2       0.00000000       0.00203527       0.01167753       0.03175828
Pt       2.80721273       6.48298349      24.58417384        2       0.00000000      -0.00232578      -0.01429322       0.00006721
Pt       5.61442806       6.48298330      24.58417399        2       0.00000000       0.00917705      -0.00748470       0.03205601
Pt       8.42164222       6.48298344      24.58417375        2       0.00000000      -0.01116875      -0.00390449       0.03201535
Pt      -0.00822143       0.00470255      26.91019796        1       0.00000000       0.00670292      -0.00509798       0.00727615
Pt       2.80653181       0.04834693      26.91431586        1       0.00000000       0.00146585       0.00391451      -0.01034302
Pt       5.62259204       0.00483605      26.91021174        1       0.00000000      -0.00759309      -0.00369704       0.00725161
Pt       1.40395493       2.43218669      26.92458567        1       0.00000000      -0.01549558      -0.00759345      -0.00372232
Pt       4.20969361       2.43084407      26.92458926        1       0.00000000       0.01461584      -0.00904009      -0.00369074
Pt       7.01808758       2.42165092      26.91019521        1       0.00000000       0.00090492       0.00850168       0.00724230
Pt       2.80799121       4.86136485      26.92455073        1       0.00000000       0.00078554       0.01743794      -0.00356165
Pt       5.57290981       4.83748760      26.91413570        1       0.00000000      -0.00479541      -0.00102389      -0.01112141
Pt       8.46384994       4.83871618      26.91414594        1       0.00000000       0.00339959      -0.00368118      -0.01114312
O        7.01804160       5.67298291      29.27794515        0       0.50000000       0.00009118       0.00231481       0.00562916
H        7.01801323       5.67225614      28.28330264        0       0.50000000      -0.00008477      -0.00182063      -0.00334041
