38
Lattice="8.421641763931781 0.0 0.0 4.2108208819658905 7.293355709136913 0.0 0.0 0.0 46.87624170604845" Properties=species:S:1:pos:R:3:tags:I:1:initial_magmoms:R:1:forces:R:3 charge=0 spin=0 energy=-194.69045015866124 free_energy=-194.69045015866124 stress="0.009615876711905003 -4.49124399892753e-08 1.0834731511977225e-07 -4.49124399892753e-08 0.009616581723093987 -1.0019264209404355e-06 1.0834731511977225e-07 -1.0019264209404355e-06 -0.00013169656449463218" pbc="T T T"
Pt      -0.00000011      -0.00000005      19.95723442        4       0.00000000      -0.00231594       0.00047241       0.01310671
Pt       2.80721395      -0.00000019      19.95723450        4       0.00000000      -0.00171513       0.00556722       0.01201810
Pt       5.61442786      -0.00000007      19.95723452        4       0.00000000       0.00157887       0.00173398       0.01312870
Pt       1.40360721       2.43111839      19.95723434        4       0.00000000       0.00569770       0.00374782      -0.00134881
Pt       4.21082082       2.43111837      19.95723444        4       0.00000000      -0.00606844       0.00309462      -0.00133439
Pt       7.01803481       2.43111844      19.95723433        4       0.00000000       0.00073350      -0.00220499       0.01309286
Pt       2.80721415       4.86223733      19.95723415        4       0.00000000       0.00036626      -0.00682517      -0.00136836
Pt       5.61442796       4.86223739      19.95723433        4       0.00000000      -0.00395930      -0.00427443       0.01199291
Pt       8.42164143       4.86223725      19.95723439        4       0.00000000       0.00567749      -0.00129993       0.01198712
Pt       1.40360728       0.81037261      22.29206792        3       0.00000000      -0.00809507      -0.00528661      -0.04116206
Pt       4.21082128       0.81037249      22.29206789        3       0.00000000       0.00907409      -0.00541102      -0.04422086
Pt       7.01803472       0.81037258      22.29206780        3       0.00000000       0.00000520       0.00000322      -0.04712158
Pt       2.80721447       3.24149123      22.29206774        3       0.00000000      -0.00001045       0.00001090       0.07144439
Pt       5.61442762       3.24149120      22.29206786        3       0.00000000       0.00871381      -0.00435674      -0.04127076
Pt       8.42164156       3.24149131      22.29206806        3       0.00000000      -0.00922570      -0.00515815      -0.04432785
Pt       4.21082090       5.67260998      22.29206740        3       0.00000000       0.00013516       0.01057403      -0.04425763
Pt       7.01803486       5.67261041      22.29206774        3       0.00000000      -0.00000819      -0.00000961      -0.02812915
Pt       9.82524817       5.67261060      22.29206803        3       0.00000000      -0.00059683       0.00963809      -0.04127851
Pt      -0.00000054       1.62074568      24.58417374        2       0.00000000       0.01096373       0.00300566      -0.00566070
Pt       2.80721436       1.62074546      24.58417392        2       0.00000000      -0.00583728      -0.00651207       0.03383945
Pt       5.61442782       1.62074536      24.58417379        2       0.00000000      -0.00802106       0.00800579      -0.00571062
Pt       1.40360636       4.05186439      24.58417387        2       0.00000000      -0.00234929       0.00820402       0.03318466
Pt       4.21082089       4.05186396      24.58417387        2       0.00000000       0.00825616      -0.00212696       0.03326692
Pt       7.01803504       4.05186408      24.58417404        2       0.00000000       0.00198153       0.00752469       0.02258405
Pt       2.80721273       6.48298349      24.58417384        2       0.00000000      -0.00295610      -0.01105383      -0.00550089
Pt       5.61442806       6.48298330      24.58417399        2       0.00000000       0.00552405      -0.00541851       0.02289385
Pt       8.42164222       6.48298344      24.58417375        2       0.00000000      -0.00751796      -0.00185074       0.02282458
Pt      -0.00890063       0.00442111      26.91072302        1       0.00000000       0.01047835      -0.00379431       0.00786329
Pt       2.80647299       0.04827514      26.91133736        1       0.00000000       0.00105758       0.00959726       0.00329728
Pt       5.62270812       0.00549692      26.91073174        1       0.00000000      -0.00854387      -0.00714233       0.00785284
Pt       1.40116117       2.43072845      26.92347725        1       0.00000000       0.00703912       0.00368782      -0.00025944
Pt       4.21236781       2.42919514      26.92348577        1       0.00000000      -0.00671908       0.00421348      -0.00028908
Pt       7.01863762       2.42120627      26.91070063        1       0.00000000      -0.00192075       0.01095416       0.00791279
Pt       2.80810492       4.86454342      26.92348802        1       0.00000000      -0.00031125      -0.00795025      -0.00023494
Pt       5.57295837       4.83743811      26.91121294        1       0.00000000      -0.00901297      -0.00389342       0.00277824
Pt       8.46387743       4.83874022      26.91119689        1       0.00000000       0.00794355      -0.00579505       0.00268931
O        7.01799417       5.67293830      29.27314073        0       0.50000000      -0.00022551       0.00188982       0.01770538
H        7.01806486       5.67235228      28.27875039        0       0.50000000       0.00018389      -0.00156098      -0.01198737
