38
Lattice="8.421641763931781 0.0 0.0 4.2108208819658905 7.293355709136913 0.0 0.0 0.0 46.87624170604845" Properties=species:S:1:pos:R:3:tags:I:1:initial_magmoms:R:1:forces:R:3 charge=0 spin=0 energy=-194.69036432797276 free_energy=-194.69036432797276 stress="0.009590836241841316 -3.9004666163577895e-09 2.2266500820933288e-07 -3.9004666163577895e-09 0.009590992704033852 -3.461648745428647e-08 2.2266500820933288e-07 -3.461648745428647e-08 -0.00015934040129650384" pbc="T T T"
Pt      -0.00000011      -0.00000005      19.95723442        4       0.00000000      -0.00230175       0.00038143       0.01309278
Pt       2.80721395      -0.00000019      19.95723450        4       0.00000000      -0.00160405       0.00558411       0.01202331
Pt       5.61442786      -0.00000007      19.95723452        4       0.00000000       0.00149136       0.00177502       0.01311680
Pt       1.40360721       2.43111839      19.95723434        4       0.00000000       0.00566414       0.00377291      -0.00138456
Pt       4.21082082       2.43111837      19.95723444        4       0.00000000      -0.00607541       0.00305064      -0.00136594
Pt       7.01803481       2.43111844      19.95723433        4       0.00000000       0.00081201      -0.00214938       0.01307380
Pt       2.80721415       4.86223733      19.95723415        4       0.00000000       0.00040548      -0.00682498      -0.00135956
Pt       5.61442796       4.86223739      19.95723433        4       0.00000000      -0.00403035      -0.00418594       0.01199965
Pt       8.42164143       4.86223725      19.95723439        4       0.00000000       0.00563658      -0.00140468       0.01199454
Pt       1.40360728       0.81037261      22.29206792        3       0.00000000      -0.00787907      -0.00533605      -0.04147796
Pt       4.21082128       0.81037249      22.29206789        3       0.00000000       0.00901828      -0.00540535      -0.04359512
Pt       7.01803472       0.81037258      22.29206780        3       0.00000000      -0.00000051       0.00001591      -0.04670117
Pt       2.80721447       3.24149123      22.29206774        3       0.00000000      -0.00000933       0.00000355       0.07111929
Pt       5.61442762       3.24149120      22.29206786        3       0.00000000       0.00865606      -0.00414368      -0.04159980
Pt       8.42164156       3.24149131      22.29206806        3       0.00000000      -0.00918958      -0.00511431      -0.04369575
Pt       4.21082090       5.67260998      22.29206740        3       0.00000000       0.00017439       0.01052332      -0.04358604
Pt       7.01803486       5.67261041      22.29206774        3       0.00000000      -0.00000423      -0.00001649      -0.02844946
Pt       9.82524817       5.67261060      22.29206803        3       0.00000000      -0.00076482       0.00948141      -0.04156458
Pt      -0.00000054       1.62074568      24.58417374        2       0.00000000       0.00791099       0.00295663      -0.00970258
Pt       2.80721436       1.62074546      24.58417392        2       0.00000000      -0.00518629      -0.00875937       0.02080101
Pt       5.61442782       1.62074536      24.58417379        2       0.00000000      -0.00643798       0.00533443      -0.00977458
Pt       1.40360636       4.05186439      24.58417387        2       0.00000000      -0.00490224       0.00901540       0.02099143
Pt       4.21082089       4.05186396      24.58417387        2       0.00000000       0.01016302      -0.00009653       0.02115572
Pt       7.01803504       4.05186408      24.58417404        2       0.00000000       0.00290143       0.00692852       0.02089692
Pt       2.80721273       6.48298349      24.58417384        2       0.00000000      -0.00143641      -0.00851073      -0.00936709
Pt       5.61442806       6.48298330      24.58417399        2       0.00000000       0.00432384      -0.00603505       0.02105659
Pt       8.42164222       6.48298344      24.58417375        2       0.00000000      -0.00729419      -0.00084324       0.02094832
Pt      -0.00851822       0.00579713      26.91069028        1       0.00000000       0.00861313      -0.01176509       0.00757996
Pt       2.80590142       0.04888232      26.91035114        1       0.00000000       0.00638970       0.00022672       0.00930205
Pt       5.62370041       0.00445267      26.91069272        1       0.00000000      -0.01435307      -0.00158721       0.00760017
Pt       1.40224241       2.43088497      26.92094491        1       0.00000000      -0.00471180       0.00296453       0.01373989
Pt       4.21168416       2.43000242      26.92093684        1       0.00000000      -0.00003398      -0.00512440       0.01376716
Pt       7.01725947       2.42088272      26.91063958        1       0.00000000       0.00578497       0.01323030       0.00772880
Pt       2.80771021       4.86350285      26.92105124        1       0.00000000       0.00481232       0.00271359       0.01321027
Pt       5.57273286       4.83667286      26.91039559        1       0.00000000      -0.00344820       0.00529379       0.00913736
Pt       8.46466989       4.83895736      26.91036964        1       0.00000000      -0.00300934      -0.00593545       0.00897190
O        7.01795937       5.67261921      29.27384771        0       0.50000000      -0.00044152      -0.00001384      -0.02022446
H        7.01809360       5.67261428      28.27854332        0       0.50000000       0.00035658      -0.00000057       0.02054117
