38
Lattice="8.421641763931781 0.0 0.0 4.2108208819658905 7.293355709136913 0.0 0.0 0.0 46.87624170604845" Properties=species:S:1:pos:R:3:tags:I:1:initial_magmoms:R:1:forces:R:3 charge=0 spin=0 energy=-194.69037005001866 free_energy=-194.69037005001866 stress="0.009590868838131428 -1.115043612998079e-09 2.2549518519099365e-07 -1.115043612998079e-09 0.00959101878106594 -2.981438740334852e-08 2.2549518519099365e-07 -2.981438740334852e-08 -0.00015931818052195013" pbc="T T T"
Pt      -0.00000011      -0.00000005      19.95723442        4       0.00000000      -0.00230160       0.00038163       0.01309295
Pt       2.80721395      -0.00000019      19.95723450        4       0.00000000      -0.00160365       0.00558388       0.01202342
Pt       5.61442786      -0.00000007      19.95723452        4       0.00000000       0.00149124       0.00177487       0.01311684
Pt       1.40360721       2.43111839      19.95723434        4       0.00000000       0.00566364       0.00377278      -0.00138445
Pt       4.21082082       2.43111837      19.95723444        4       0.00000000      -0.00607551       0.00305043      -0.00136545
Pt       7.01803481       2.43111844      19.95723433        4       0.00000000       0.00081210      -0.00214930       0.01307392
Pt       2.80721415       4.86223733      19.95723415        4       0.00000000       0.00040546      -0.00682449      -0.00135899
Pt       5.61442796       4.86223739      19.95723433        4       0.00000000      -0.00403026      -0.00418591       0.01199988
Pt       8.42164143       4.86223725      19.95723439        4       0.00000000       0.00563630      -0.00140453       0.01199454
Pt       1.40360728       0.81037261      22.29206792        3       0.00000000      -0.00787938      -0.00533587      -0.04147764
Pt       4.21082128       0.81037249      22.29206789        3       0.00000000       0.00901768      -0.00540554      -0.04359482
Pt       7.01803472       0.81037258      22.29206780        3       0.00000000      -0.00000084       0.00001613      -0.04670049
Pt       2.80721447       3.24149123      22.29206774        3       0.00000000      -0.00000939       0.00000330       0.07111435
Pt       5.61442762       3.24149120      22.29206786        3       0.00000000       0.00865617      -0.00414387      -0.04159877
Pt       8.42164156       3.24149131      22.29206806        3       0.00000000      -0.00918926      -0.00511451      -0.04369496
Pt       4.21082090       5.67260998      22.29206740        3       0.00000000       0.00017431       0.01052341      -0.04358472
Pt       7.01803486       5.67261041      22.29206774        3       0.00000000      -0.00000389      -0.00001656      -0.02845123
Pt       9.82524817       5.67261060      22.29206803        3       0.00000000      -0.00076418       0.00948143      -0.04156511
Pt      -0.00000054       1.62074568      24.58417374        2       0.00000000       0.00791290       0.00295876      -0.00969615
Pt       2.80721436       1.62074546      24.58417392        2       0.00000000      -0.00518737      -0.00874936       0.02078810
Pt       5.61442782       1.62074536      24.58417379        2       0.00000000      -0.00643506       0.00533636      -0.00976954
Pt       1.40360636       4.05186439      24.58417387        2       0.00000000      -0.00489571       0.00900892       0.02098064
Pt       4.21082089       4.05186396      24.58417387        2       0.00000000       0.01015739      -0.00009845       0.02114689
Pt       7.01803504       4.05186408      24.58417404        2       0.00000000       0.00289988       0.00692553       0.02090291
Pt       2.80721273       6.48298349      24.58417384        2       0.00000000      -0.00143644      -0.00851127      -0.00936595
Pt       5.61442806       6.48298330      24.58417399        2       0.00000000       0.00432179      -0.00603740       0.02105694
Pt       8.42164222       6.48298344      24.58417375        2       0.00000000      -0.00729410      -0.00084281       0.02094747
Pt      -0.00851845       0.00579708      26.91069087        1       0.00000000       0.00862172      -0.01177093       0.00757718
Pt       2.80590111       0.04888093      26.91034880        1       0.00000000       0.00639560       0.00020537       0.00931535
Pt       5.62370035       0.00445268      26.91069270        1       0.00000000      -0.01435621      -0.00158929       0.00760157
Pt       1.40224277       2.43088486      26.92094529        1       0.00000000      -0.00471784       0.00296576       0.01372973
Pt       4.21168389       2.43000255      26.92093696        1       0.00000000      -0.00002831      -0.00512441       0.01376854
Pt       7.01725975       2.42088279      26.91064007        1       0.00000000       0.00577975       0.01324022       0.00771764
Pt       2.80771011       4.86350249      26.92105124        1       0.00000000       0.00481394       0.00271601       0.01321018
Pt       5.57273439       4.83667373      26.91039392        1       0.00000000      -0.00342811       0.00530085       0.00914745
Pt       8.46466894       4.83895786      26.91036709        1       0.00000000      -0.00303373      -0.00592605       0.00898611
O        7.01795783       5.67261868      29.27387801        0       0.50000000      -0.00043876      -0.00002580      -0.02031029
H        7.01809493       5.67261478      28.27857237        0       0.50000000       0.00034968       0.00001058       0.02062581
