38
Lattice="8.421641763931781 0.0 0.0 4.2108208819658905 7.293355709136913 0.0 0.0 0.0 46.87624170604845" Properties=species:S:1:pos:R:3:tags:I:1:initial_magmoms:R:1:forces:R:3 charge=0 spin=0 energy=-194.6903834014591 free_energy=-194.6903834014591 stress="0.009644655510783195 -1.2706020413588703e-07 -6.824510023761832e-08 -1.2706020413588703e-07 0.009645498357713223 -1.2705089602604858e-06 -6.824510023761832e-08 -1.2705089602604858e-06 -7.9738674685359e-05" pbc="T T T"
Pt      -0.00000011      -0.00000005      19.95723442        4       0.00000000      -0.00204799       0.00034307       0.01315276
Pt       2.80721395      -0.00000019      19.95723450        4       0.00000000      -0.00165259       0.00555929       0.01213321
Pt       5.61442786      -0.00000007      19.95723452        4       0.00000000       0.00132901       0.00156981       0.01317291
Pt       1.40360721       2.43111839      19.95723434        4       0.00000000       0.00570474       0.00377137      -0.00134128
Pt       4.21082082       2.43111837      19.95723444        4       0.00000000      -0.00608985       0.00308311      -0.00133636
Pt       7.01803481       2.43111844      19.95723433        4       0.00000000       0.00071187      -0.00190498       0.01314129
Pt       2.80721415       4.86223733      19.95723415        4       0.00000000       0.00038657      -0.00684023      -0.00137449
Pt       5.61442796       4.86223739      19.95723433        4       0.00000000      -0.00398307      -0.00421785       0.01210862
Pt       8.42164143       4.86223725      19.95723439        4       0.00000000       0.00563783      -0.00135369       0.01210260
Pt       1.40360728       0.81037261      22.29206792        3       0.00000000      -0.00829257      -0.00506222      -0.04097441
Pt       4.21082128       0.81037249      22.29206789        3       0.00000000       0.00922827      -0.00515238      -0.04371668
Pt       7.01803472       0.81037258      22.29206780        3       0.00000000       0.00000574      -0.00000582      -0.04967722
Pt       2.80721447       3.24149123      22.29206774        3       0.00000000      -0.00000816       0.00001067       0.06970736
Pt       5.61442762       3.24149120      22.29206786        3       0.00000000       0.00860540      -0.00464444      -0.04106944
Pt       8.42164156       3.24149131      22.29206806        3       0.00000000      -0.00907152      -0.00542443      -0.04381007
Pt       4.21082090       5.67260998      22.29206740        3       0.00000000      -0.00017635       0.01057939      -0.04379526
Pt       7.01803486       5.67261041      22.29206774        3       0.00000000      -0.00001033      -0.00000987      -0.02667593
Pt       9.82524817       5.67261060      22.29206803        3       0.00000000      -0.00029094       0.00969197      -0.04112239
Pt      -0.00000054       1.62074568      24.58417374        2       0.00000000       0.01346157       0.00523505      -0.00014961
Pt       2.80721436       1.62074546      24.58417392        2       0.00000000      -0.00561384      -0.01150062       0.03823448
Pt       5.61442782       1.62074536      24.58417379        2       0.00000000      -0.01113976       0.00913623      -0.00022396
Pt       1.40360636       4.05186439      24.58417387        2       0.00000000      -0.00682695       0.01044649       0.03761371
Pt       4.21082089       4.05186396      24.58417387        2       0.00000000       0.01241304       0.00047723       0.03753346
Pt       7.01803504       4.05186408      24.58417404        2       0.00000000       0.00203621       0.01167599       0.03175841
Pt       2.80721273       6.48298349      24.58417384        2       0.00000000      -0.00232611      -0.01428980       0.00006403
Pt       5.61442806       6.48298330      24.58417399        2       0.00000000       0.00917762      -0.00748402       0.03205702
Pt       8.42164222       6.48298344      24.58417375        2       0.00000000      -0.01116795      -0.00390409       0.03201395
Pt      -0.00822103       0.00470243      26.91019802        1       0.00000000       0.00670414      -0.00509287       0.00727723
Pt       2.80653256       0.04834683      26.91431567        1       0.00000000       0.00146392       0.00391198      -0.01033422
Pt       5.62259242       0.00483594      26.91021190        1       0.00000000      -0.00759436      -0.00369562       0.00725106
Pt       1.40395426       2.43218668      26.92458520        1       0.00000000      -0.01548965      -0.00759588      -0.00372486
Pt       4.20969420       2.43084418      26.92458958        1       0.00000000       0.01460868      -0.00904114      -0.00369119
Pt       7.01808748       2.42165152      26.91019565        1       0.00000000       0.00090537       0.00849370       0.00723683
Pt       2.80799115       4.86136531      26.92455004        1       0.00000000       0.00078265       0.01743312      -0.00355432
Pt       5.57290881       4.83748658      26.91413451        1       0.00000000      -0.00479563      -0.00101954      -0.01113294
Pt       8.46384943       4.83871635      26.91414646        1       0.00000000       0.00339958      -0.00367542      -0.01112698
O        7.01804845       5.67298359      29.27794421        0       0.50000000       0.00013005       0.00233492       0.00568395
H        7.01800708       5.67225564      28.28330408        0       0.50000000      -0.00011423      -0.00183848      -0.00341131
