38
Lattice="8.421641763931781 0.0 0.0 4.2108208819658905 7.293355709136913 0.0 0.0 0.0 46.87624170604845" Properties=species:S:1:pos:R:3:tags:I:1:initial_magmoms:R:1:forces:R:3 charge=0 spin=0 energy=-194.69044634396397 free_energy=-194.69044634396397 stress="0.009615947492420673 -4.358082961175569e-08 1.1018001089269092e-07 -4.358082961175569e-08 0.009616648778319359 -1.0057177632916137e-06 1.1018001089269092e-07 -1.0057177632916137e-06 -0.00013165223936084658" pbc="T T T"
Pt      -0.00000011      -0.00000005      19.95723442        4       0.00000000      -0.00231587       0.00047240       0.01310681
Pt       2.80721395      -0.00000019      19.95723450        4       0.00000000      -0.00171494       0.00556714       0.01201799
Pt       5.61442786      -0.00000007      19.95723452        4       0.00000000       0.00157890       0.00173392       0.01312874
Pt       1.40360721       2.43111839      19.95723434        4       0.00000000       0.00569734       0.00374778      -0.00134838
Pt       4.21082082       2.43111837      19.95723444        4       0.00000000      -0.00606808       0.00309442      -0.00133414
Pt       7.01803481       2.43111844      19.95723433        4       0.00000000       0.00073328      -0.00220489       0.01309309
Pt       2.80721415       4.86223733      19.95723415        4       0.00000000       0.00036632      -0.00682471      -0.00136817
Pt       5.61442796       4.86223739      19.95723433        4       0.00000000      -0.00395907      -0.00427433       0.01199278
Pt       8.42164143       4.86223725      19.95723439        4       0.00000000       0.00567700      -0.00129987       0.01198693
Pt       1.40360728       0.81037261      22.29206792        3       0.00000000      -0.00809468      -0.00528631      -0.04116090
Pt       4.21082128       0.81037249      22.29206789        3       0.00000000       0.00907338      -0.00541075      -0.04422017
Pt       7.01803472       0.81037258      22.29206780        3       0.00000000       0.00000530       0.00000345      -0.04712017
Pt       2.80721447       3.24149123      22.29206774        3       0.00000000      -0.00001061       0.00001073       0.07143676
Pt       5.61442762       3.24149120      22.29206786        3       0.00000000       0.00871343      -0.00435625      -0.04126918
Pt       8.42164156       3.24149131      22.29206806        3       0.00000000      -0.00922526      -0.00515768      -0.04432632
Pt       4.21082090       5.67260998      22.29206740        3       0.00000000       0.00013573       0.01057352      -0.04425628
Pt       7.01803486       5.67261041      22.29206774        3       0.00000000      -0.00000785      -0.00000995      -0.02812888
Pt       9.82524817       5.67261060      22.29206803        3       0.00000000      -0.00059693       0.00963767      -0.04127749
Pt      -0.00000054       1.62074568      24.58417374        2       0.00000000       0.01096256       0.00300650      -0.00565511
Pt       2.80721436       1.62074546      24.58417392        2       0.00000000      -0.00583822      -0.00651385       0.03384275
Pt       5.61442782       1.62074536      24.58417379        2       0.00000000      -0.00801752       0.00800550      -0.00570877
Pt       1.40360636       4.05186439      24.58417387        2       0.00000000      -0.00234863       0.00820483       0.03318948
Pt       4.21082089       4.05186396      24.58417387        2       0.00000000       0.00825274      -0.00212405       0.03326380
Pt       7.01803504       4.05186408      24.58417404        2       0.00000000       0.00198211       0.00752261       0.02259082
Pt       2.80721273       6.48298349      24.58417384        2       0.00000000      -0.00295685      -0.01105390      -0.00549661
Pt       5.61442806       6.48298330      24.58417399        2       0.00000000       0.00552489      -0.00542038       0.02289638
Pt       8.42164222       6.48298344      24.58417375        2       0.00000000      -0.00751824      -0.00185221       0.02282780
Pt      -0.00890039       0.00442070      26.91072285        1       0.00000000       0.01047123      -0.00379342       0.00786734
Pt       2.80647289       0.04827115      26.91133895        1       0.00000000       0.00105793       0.00959353       0.00330217
Pt       5.62270779       0.00549715      26.91073144        1       0.00000000      -0.00853526      -0.00714560       0.00785621
Pt       1.40116071       2.43072827      26.92347624        1       0.00000000       0.00704115       0.00369075      -0.00026624
Pt       4.21236826       2.42919499      26.92348476        1       0.00000000      -0.00672513       0.00421357      -0.00028374
Pt       7.01863748       2.42120657      26.91070093        1       0.00000000      -0.00191969       0.01095568       0.00790390
Pt       2.80810552       4.86454366      26.92348776        1       0.00000000      -0.00031522      -0.00795204      -0.00023897
Pt       5.57296143       4.83743976      26.91121473        1       0.00000000      -0.00900507      -0.00388818       0.00278542
Pt       8.46387386       4.83874248      26.91119913        1       0.00000000       0.00794393      -0.00579547       0.00269143
O        7.01799516       5.67294039      29.27316684        0       0.50000000      -0.00022581       0.00188862       0.01772684
H        7.01806467       5.67234996      28.27877847        0       0.50000000       0.00018160      -0.00155852      -0.01204806
