38
Lattice="8.421641763931781 0.0 0.0 4.2108208819658905 7.293355709136913 0.0 0.0 0.0 46.87624170604845" Properties=species:S:1:pos:R:3:tags:I:1:initial_magmoms:R:1:forces:R:3 charge=0 spin=0 energy=-194.69044634396397 free_energy=-194.69044634396397 stress="0.009615934453904629 -3.4346566479825924e-08 1.2966334850261774e-07 -3.4346566479825924e-08 0.00961663294583559 -9.998518635256914e-07 1.2966334850261774e-07 -9.998518635256914e-07 -0.00013163016410544515" pbc="T T T"
Pt      -0.00000011      -0.00000005      19.95723442        4       0.00000000      -0.00231595       0.00047245       0.01310650
Pt       2.80721395      -0.00000019      19.95723450        4       0.00000000      -0.00171504       0.00556731       0.01201791
Pt       5.61442786      -0.00000007      19.95723452        4       0.00000000       0.00157896       0.00173394       0.01312874
Pt       1.40360721       2.43111839      19.95723434        4       0.00000000       0.00569709       0.00374753      -0.00134940
Pt       4.21082082       2.43111837      19.95723444        4       0.00000000      -0.00606825       0.00309468      -0.00133346
Pt       7.01803481       2.43111844      19.95723433        4       0.00000000       0.00073343      -0.00220476       0.01309288
Pt       2.80721415       4.86223733      19.95723415        4       0.00000000       0.00036614      -0.00682488      -0.00136808
Pt       5.61442796       4.86223739      19.95723433        4       0.00000000      -0.00395912      -0.00427429       0.01199293
Pt       8.42164143       4.86223725      19.95723439        4       0.00000000       0.00567723      -0.00129994       0.01198671
Pt       1.40360728       0.81037261      22.29206792        3       0.00000000      -0.00809444      -0.00528616      -0.04116165
Pt       4.21082128       0.81037249      22.29206789        3       0.00000000       0.00907331      -0.00541151      -0.04421945
Pt       7.01803472       0.81037258      22.29206780        3       0.00000000       0.00000513       0.00000242      -0.04711986
Pt       2.80721447       3.24149123      22.29206774        3       0.00000000      -0.00001082       0.00001038       0.07143883
Pt       5.61442762       3.24149120      22.29206786        3       0.00000000       0.00871356      -0.00435620      -0.04126871
Pt       8.42164156       3.24149131      22.29206806        3       0.00000000      -0.00922503      -0.00515790      -0.04432671
Pt       4.21082090       5.67260998      22.29206740        3       0.00000000       0.00013553       0.01057321      -0.04425605
Pt       7.01803486       5.67261041      22.29206774        3       0.00000000      -0.00000763      -0.00000976      -0.02812934
Pt       9.82524817       5.67261060      22.29206803        3       0.00000000      -0.00059713       0.00963749      -0.04127874
Pt      -0.00000054       1.62074568      24.58417374        2       0.00000000       0.01096331       0.00300620      -0.00565695
Pt       2.80721436       1.62074546      24.58417392        2       0.00000000      -0.00583957      -0.00651384       0.03384410
Pt       5.61442782       1.62074536      24.58417379        2       0.00000000      -0.00801595       0.00800616      -0.00570936
Pt       1.40360636       4.05186439      24.58417387        2       0.00000000      -0.00234507       0.00819879       0.03317422
Pt       4.21082089       4.05186396      24.58417387        2       0.00000000       0.00826207      -0.00211978       0.03327743
Pt       7.01803504       4.05186408      24.58417404        2       0.00000000       0.00197610       0.00752164       0.02258623
Pt       2.80721273       6.48298349      24.58417384        2       0.00000000      -0.00295593      -0.01105074      -0.00549962
Pt       5.61442806       6.48298330      24.58417399        2       0.00000000       0.00552456      -0.00542175       0.02289563
Pt       8.42164222       6.48298344      24.58417375        2       0.00000000      -0.00751816      -0.00184769       0.02282336
Pt      -0.00890026       0.00442105      26.91072312        1       0.00000000       0.01046858      -0.00379222       0.00786864
Pt       2.80647286       0.04827226      26.91133817        1       0.00000000       0.00105975       0.00959680       0.00330139
Pt       5.62270795       0.00549694      26.91073214        1       0.00000000      -0.00853354      -0.00714303       0.00785695
Pt       1.40116033       2.43072860      26.92347663        1       0.00000000       0.00704440       0.00368571      -0.00026508
Pt       4.21236878       2.42919520      26.92348502        1       0.00000000      -0.00672516       0.00421569      -0.00028482
Pt       7.01863755       2.42120623      26.91070149        1       0.00000000      -0.00192378       0.01095185       0.00790515
Pt       2.80810523       4.86454399      26.92348705        1       0.00000000      -0.00031048      -0.00795293      -0.00023204
Pt       5.57296141       4.83743981      26.91121622        1       0.00000000      -0.00900435      -0.00389105       0.00279641
Pt       8.46387498       4.83874143      26.91119615        1       0.00000000       0.00793876      -0.00578805       0.00270425
O        7.01798455       5.67293744      29.27316015        0       0.50000000      -0.00025394       0.00188239       0.01764499
H        7.01807239       5.67235260      28.27877119        0       0.50000000       0.00020126      -0.00155804      -0.01198394
