38
Lattice="8.421641763931781 0.0 0.0 4.2108208819658905 7.293355709136913 0.0 0.0 0.0 46.87624170604845" Properties=species:S:1:pos:R:3:tags:I:1:initial_magmoms:R:1:forces:R:3 charge=0 spin=0 energy=-194.69036242062413 free_energy=-194.69036242062413 stress="0.009590874426066875 -4.223357219501622e-09 2.0217592577864707e-07 -4.223357219501622e-09 0.009591015987098217 -3.036825191315984e-08 2.0217592577864707e-07 -3.036825191315984e-08 -0.00015927285130601376" pbc="T T T"
Pt      -0.00000011      -0.00000005      19.95723442        4       0.00000000      -0.00230172       0.00038150       0.01309275
Pt       2.80721395      -0.00000019      19.95723450        4       0.00000000      -0.00160382       0.00558414       0.01202342
Pt       5.61442786      -0.00000007      19.95723452        4       0.00000000       0.00149114       0.00177492       0.01311676
Pt       1.40360721       2.43111839      19.95723434        4       0.00000000       0.00566400       0.00377277      -0.00138443
Pt       4.21082082       2.43111837      19.95723444        4       0.00000000      -0.00607559       0.00305061      -0.00136573
Pt       7.01803481       2.43111844      19.95723433        4       0.00000000       0.00081205      -0.00214931       0.01307373
Pt       2.80721415       4.86223733      19.95723415        4       0.00000000       0.00040547      -0.00682473      -0.00135939
Pt       5.61442796       4.86223739      19.95723433        4       0.00000000      -0.00403031      -0.00418611       0.01199965
Pt       8.42164143       4.86223725      19.95723439        4       0.00000000       0.00563634      -0.00140453       0.01199435
Pt       1.40360728       0.81037261      22.29206792        3       0.00000000      -0.00787906      -0.00533608      -0.04147843
Pt       4.21082128       0.81037249      22.29206789        3       0.00000000       0.00901811      -0.00540599      -0.04359337
Pt       7.01803472       0.81037258      22.29206780        3       0.00000000      -0.00000082       0.00001641      -0.04670152
Pt       2.80721447       3.24149123      22.29206774        3       0.00000000      -0.00000962       0.00000366       0.07111745
Pt       5.61442762       3.24149120      22.29206786        3       0.00000000       0.00865650      -0.00414396      -0.04159873
Pt       8.42164156       3.24149131      22.29206806        3       0.00000000      -0.00918960      -0.00511432      -0.04369564
Pt       4.21082090       5.67260998      22.29206740        3       0.00000000       0.00017449       0.01052334      -0.04358614
Pt       7.01803486       5.67261041      22.29206774        3       0.00000000      -0.00000361      -0.00001666      -0.02845116
Pt       9.82524817       5.67261060      22.29206803        3       0.00000000      -0.00076499       0.00948147      -0.04156424
Pt      -0.00000054       1.62074568      24.58417374        2       0.00000000       0.00791589       0.00295771      -0.00970125
Pt       2.80721436       1.62074546      24.58417392        2       0.00000000      -0.00518903      -0.00875118       0.02079850
Pt       5.61442782       1.62074536      24.58417379        2       0.00000000      -0.00643836       0.00533400      -0.00976754
Pt       1.40360636       4.05186439      24.58417387        2       0.00000000      -0.00489884       0.00901120       0.02098853
Pt       4.21082089       4.05186396      24.58417387        2       0.00000000       0.01015381      -0.00009864       0.02115291
Pt       7.01803504       4.05186408      24.58417404        2       0.00000000       0.00290345       0.00692585       0.02089480
Pt       2.80721273       6.48298349      24.58417384        2       0.00000000      -0.00143710      -0.00851236      -0.00935937
Pt       5.61442806       6.48298330      24.58417399        2       0.00000000       0.00432227      -0.00603509       0.02105070
Pt       8.42164222       6.48298344      24.58417375        2       0.00000000      -0.00728883      -0.00084188       0.02094837
Pt      -0.00851881       0.00579714      26.91069054        1       0.00000000       0.00861275      -0.01176896       0.00758058
Pt       2.80590132       0.04888166      26.91034802        1       0.00000000       0.00640483       0.00021808       0.00931751
Pt       5.62370082       0.00445322      26.91069333        1       0.00000000      -0.01435369      -0.00159094       0.00759290
Pt       1.40224288       2.43088503      26.92094564        1       0.00000000      -0.00471452       0.00296513       0.01372840
Pt       4.21168403       2.43000270      26.92093785        1       0.00000000      -0.00003310      -0.00512400       0.01375921
Pt       7.01725977       2.42088224      26.91063962        1       0.00000000       0.00577865       0.01323521       0.00772867
Pt       2.80771022       4.86350247      26.92105205        1       0.00000000       0.00481450       0.00271711       0.01320100
Pt       5.57273347       4.83667304      26.91039243        1       0.00000000      -0.00343896       0.00528894       0.00914631
Pt       8.46466925       4.83895780      26.91036767        1       0.00000000      -0.00302847      -0.00591887       0.00900456
O        7.01795985       5.67261834      29.27386404        0       0.50000000      -0.00037723      -0.00002398      -0.02038985
H        7.01809305       5.67261496      28.27855769        0       0.50000000       0.00029290       0.00000554       0.02068582
