38
Lattice="8.421641763931781 0.0 0.0 4.2108208819658905 7.293355709136913 0.0 0.0 0.0 46.87624170604845" Properties=species:S:1:pos:R:3:tags:I:1:initial_magmoms:R:1:forces:R:3 charge=0 spin=0 energy=-194.69038530880772 free_energy=-194.69038530880772 stress="0.00964471697807312 -1.2953746875155048e-07 -6.782595107779343e-08 -1.2953746875155048e-07 0.009645539335906506 -1.2613299986696802e-06 -6.782595107779343e-08 -1.2613299986696802e-06 -7.970797014422715e-05" pbc="T T T"
Pt      -0.00000011      -0.00000005      19.95723442        4       0.00000000      -0.00204795       0.00034308       0.01315270
Pt       2.80721395      -0.00000019      19.95723450        4       0.00000000      -0.00165228       0.00555899       0.01213326
Pt       5.61442786      -0.00000007      19.95723452        4       0.00000000       0.00132903       0.00156942       0.01317305
Pt       1.40360721       2.43111839      19.95723434        4       0.00000000       0.00570433       0.00377138      -0.00134109
Pt       4.21082082       2.43111837      19.95723444        4       0.00000000      -0.00608959       0.00308307      -0.00133607
Pt       7.01803481       2.43111844      19.95723433        4       0.00000000       0.00071170      -0.00190495       0.01314157
Pt       2.80721415       4.86223733      19.95723415        4       0.00000000       0.00038654      -0.00683984      -0.00137413
Pt       5.61442796       4.86223739      19.95723433        4       0.00000000      -0.00398296      -0.00421759       0.01210877
Pt       8.42164143       4.86223725      19.95723439        4       0.00000000       0.00563761      -0.00135353       0.01210268
Pt       1.40360728       0.81037261      22.29206792        3       0.00000000      -0.00829226      -0.00506169      -0.04097383
Pt       4.21082128       0.81037249      22.29206789        3       0.00000000       0.00922781      -0.00515215      -0.04371512
Pt       7.01803472       0.81037258      22.29206780        3       0.00000000       0.00000598      -0.00000542      -0.04967626
Pt       2.80721447       3.24149123      22.29206774        3       0.00000000      -0.00000819       0.00001043       0.06969982
Pt       5.61442762       3.24149120      22.29206786        3       0.00000000       0.00860505      -0.00464440      -0.04106894
Pt       8.42164156       3.24149131      22.29206806        3       0.00000000      -0.00907138      -0.00542405      -0.04380870
Pt       4.21082090       5.67260998      22.29206740        3       0.00000000      -0.00017615       0.01057869      -0.04379409
Pt       7.01803486       5.67261041      22.29206774        3       0.00000000      -0.00001091      -0.00001027      -0.02667736
Pt       9.82524817       5.67261060      22.29206803        3       0.00000000      -0.00029052       0.00969166      -0.04112151
Pt      -0.00000054       1.62074568      24.58417374        2       0.00000000       0.01346015       0.00523270      -0.00014949
Pt       2.80721436       1.62074546      24.58417392        2       0.00000000      -0.00561060      -0.01149957       0.03823225
Pt       5.61442782       1.62074536      24.58417379        2       0.00000000      -0.01114041       0.00913432      -0.00021959
Pt       1.40360636       4.05186439      24.58417387        2       0.00000000      -0.00682658       0.01044818       0.03761245
Pt       4.21082089       4.05186396      24.58417387        2       0.00000000       0.01241247       0.00047902       0.03753518
Pt       7.01803504       4.05186408      24.58417404        2       0.00000000       0.00203641       0.01167728       0.03176473
Pt       2.80721273       6.48298349      24.58417384        2       0.00000000      -0.00232953      -0.01429003       0.00006743
Pt       5.61442806       6.48298330      24.58417399        2       0.00000000       0.00917848      -0.00748575       0.03206279
Pt       8.42164222       6.48298344      24.58417375        2       0.00000000      -0.01116755      -0.00390382       0.03202048
Pt      -0.00822099       0.00470213      26.91019838        1       0.00000000       0.00670923      -0.00509022       0.00727763
Pt       2.80653286       0.04834308      26.91431723        1       0.00000000       0.00146379       0.00391394      -0.01034230
Pt       5.62259210       0.00483580      26.91021294        1       0.00000000      -0.00759624      -0.00369794       0.00724351
Pt       1.40395455       2.43218658      26.92458360        1       0.00000000      -0.01548754      -0.00759667      -0.00371914
Pt       4.20969423       2.43084415      26.92458866        1       0.00000000       0.01460773      -0.00904080      -0.00369450
Pt       7.01808712       2.42165162      26.91019656        1       0.00000000       0.00090541       0.00849878       0.00723643
Pt       2.80799118       4.86136546      26.92454891        1       0.00000000       0.00078383       0.01743104      -0.00355709
Pt       5.57291214       4.83748868      26.91413674        1       0.00000000      -0.00479277      -0.00101856      -0.01113258
Pt       8.46384578       4.83871822      26.91414868        1       0.00000000       0.00339167      -0.00367869      -0.01112662
O        7.01804893       5.67298292      29.27797195        0       0.50000000       0.00012401       0.00231269       0.00566326
H        7.01800671       5.67225625      28.28333169        0       0.50000000      -0.00010744      -0.00181861      -0.00339952
