38
Lattice="8.421641763931781 0.0 0.0 4.2108208819658905 7.293355709136913 0.0 0.0 0.0 46.87624170604845" Properties=species:S:1:pos:R:3:tags:I:1:initial_magmoms:R:1:forces:R:3 charge=0 spin=0 energy=-194.69037958676182 free_energy=-194.69037958676182 stress="0.009644723497331142 -1.2970109253274131e-07 -7.578936589425211e-08 -1.2970109253274131e-07 0.009645548649132252 -1.2597539580383454e-06 -7.578936589425211e-08 -1.2597539580383454e-06 -7.965882105054334e-05" pbc="T T T"
Pt      -0.00000011      -0.00000005      19.95723442        4       0.00000000      -0.00204803       0.00034319       0.01315236
Pt       2.80721395      -0.00000019      19.95723450        4       0.00000000      -0.00165229       0.00555905       0.01213339
Pt       5.61442786      -0.00000007      19.95723452        4       0.00000000       0.00132901       0.00156948       0.01317276
Pt       1.40360721       2.43111839      19.95723434        4       0.00000000       0.00570433       0.00377138      -0.00134105
Pt       4.21082082       2.43111837      19.95723444        4       0.00000000      -0.00608957       0.00308298      -0.00133615
Pt       7.01803481       2.43111844      19.95723433        4       0.00000000       0.00071190      -0.00190493       0.01314135
Pt       2.80721415       4.86223733      19.95723415        4       0.00000000       0.00038639      -0.00683993      -0.00137413
Pt       5.61442796       4.86223739      19.95723433        4       0.00000000      -0.00398271      -0.00421761       0.01210858
Pt       8.42164143       4.86223725      19.95723439        4       0.00000000       0.00563766      -0.00135372       0.01210264
Pt       1.40360728       0.81037261      22.29206792        3       0.00000000      -0.00829213      -0.00506171      -0.04097407
Pt       4.21082128       0.81037249      22.29206789        3       0.00000000       0.00922751      -0.00515234      -0.04371501
Pt       7.01803472       0.81037258      22.29206780        3       0.00000000       0.00000558      -0.00000550      -0.04967676
Pt       2.80721447       3.24149123      22.29206774        3       0.00000000      -0.00000837       0.00001058       0.06969993
Pt       5.61442762       3.24149120      22.29206786        3       0.00000000       0.00860504      -0.00464446      -0.04106809
Pt       8.42164156       3.24149131      22.29206806        3       0.00000000      -0.00907149      -0.00542393      -0.04380851
Pt       4.21082090       5.67260998      22.29206740        3       0.00000000      -0.00017632       0.01057825      -0.04379363
Pt       7.01803486       5.67261041      22.29206774        3       0.00000000      -0.00001065      -0.00000973      -0.02667660
Pt       9.82524817       5.67261060      22.29206803        3       0.00000000      -0.00029137       0.00969143      -0.04112163
Pt      -0.00000054       1.62074568      24.58417374        2       0.00000000       0.01346286       0.00523345      -0.00014732
Pt       2.80721436       1.62074546      24.58417392        2       0.00000000      -0.00561381      -0.01149644       0.03823361
Pt       5.61442782       1.62074536      24.58417379        2       0.00000000      -0.01113843       0.00913391      -0.00021719
Pt       1.40360636       4.05186439      24.58417387        2       0.00000000      -0.00682684       0.01044616       0.03761641
Pt       4.21082089       4.05186396      24.58417387        2       0.00000000       0.01241035       0.00048059       0.03753781
Pt       7.01803504       4.05186408      24.58417404        2       0.00000000       0.00203652       0.01167675       0.03176299
Pt       2.80721273       6.48298349      24.58417384        2       0.00000000      -0.00232812      -0.01428850       0.00006869
Pt       5.61442806       6.48298330      24.58417399        2       0.00000000       0.00917682      -0.00748806       0.03205604
Pt       8.42164222       6.48298344      24.58417375        2       0.00000000      -0.01116486      -0.00390583       0.03201667
Pt      -0.00822054       0.00470193      26.91019865        1       0.00000000       0.00669754      -0.00508830       0.00727844
Pt       2.80653272       0.04834308      26.91431697        1       0.00000000       0.00147172       0.00391168      -0.01032504
Pt       5.62259146       0.00483546      26.91021273        1       0.00000000      -0.00758601      -0.00369223       0.00724466
Pt       1.40395388       2.43218635      26.92458440        1       0.00000000      -0.01548494      -0.00759486      -0.00373004
Pt       4.20969452       2.43084393      26.92458824        1       0.00000000       0.01460829      -0.00903756      -0.00369511
Pt       7.01808745       2.42165242      26.91019609        1       0.00000000       0.00089890       0.00849000       0.00723690
Pt       2.80799113       4.86136611      26.92454881        1       0.00000000       0.00078585       0.01742710      -0.00355739
Pt       5.57291203       4.83748872      26.91413651        1       0.00000000      -0.00479101      -0.00102226      -0.01112781
Pt       8.46384615       4.83871810      26.91414848        1       0.00000000       0.00338605      -0.00367168      -0.01111318
O        7.01804832       5.67298337      29.27797268        0       0.50000000       0.00015165       0.00230360       0.00556920
H        7.01800745       5.67225565      28.28333137        0       0.50000000      -0.00013679      -0.00180963      -0.00333383
