38
Lattice="8.421641763931781 0.0 0.0 4.2108208819658905 7.293355709136913 0.0 0.0 0.0 46.87624170604845" Properties=species:S:1:pos:R:3:tags:I:1:initial_magmoms:R:1:forces:R:3 charge=0 spin=0 energy=-194.69038912350499 free_energy=-194.69038912350499 stress="0.009644727222621441 -1.269918499247069e-07 -6.191633872276725e-08 -1.269918499247069e-07 0.009645557031035423 -1.2688934702964616e-06 -6.191633872276725e-08 -1.2688934702964616e-06 -7.970705337356776e-05" pbc="T T T"
Pt      -0.00000011      -0.00000005      19.95723442        4       0.00000000      -0.00204785       0.00034318       0.01315281
Pt       2.80721395      -0.00000019      19.95723450        4       0.00000000      -0.00165235       0.00555884       0.01213339
Pt       5.61442786      -0.00000007      19.95723452        4       0.00000000       0.00132894       0.00156938       0.01317297
Pt       1.40360721       2.43111839      19.95723434        4       0.00000000       0.00570432       0.00377102      -0.00134096
Pt       4.21082082       2.43111837      19.95723444        4       0.00000000      -0.00608947       0.00308295      -0.00133568
Pt       7.01803481       2.43111844      19.95723433        4       0.00000000       0.00071166      -0.00190493       0.01314169
Pt       2.80721415       4.86223733      19.95723415        4       0.00000000       0.00038650      -0.00683961      -0.00137398
Pt       5.61442796       4.86223739      19.95723433        4       0.00000000      -0.00398262      -0.00421751       0.01210868
Pt       8.42164143       4.86223725      19.95723439        4       0.00000000       0.00563744      -0.00135353       0.01210279
Pt       1.40360728       0.81037261      22.29206792        3       0.00000000      -0.00829226      -0.00506180      -0.04097318
Pt       4.21082128       0.81037249      22.29206789        3       0.00000000       0.00922787      -0.00515170      -0.04371501
Pt       7.01803472       0.81037258      22.29206780        3       0.00000000       0.00000588      -0.00000534      -0.04967545
Pt       2.80721447       3.24149123      22.29206774        3       0.00000000      -0.00000789       0.00001034       0.06969581
Pt       5.61442762       3.24149120      22.29206786        3       0.00000000       0.00860473      -0.00464477      -0.04106838
Pt       8.42164156       3.24149131      22.29206806        3       0.00000000      -0.00907124      -0.00542431      -0.04380806
Pt       4.21082090       5.67260998      22.29206740        3       0.00000000      -0.00017615       0.01057802      -0.04379317
Pt       7.01803486       5.67261041      22.29206774        3       0.00000000      -0.00001083      -0.00000975      -0.02667664
Pt       9.82524817       5.67261060      22.29206803        3       0.00000000      -0.00029059       0.00969145      -0.04112133
Pt      -0.00000054       1.62074568      24.58417374        2       0.00000000       0.01346049       0.00523312      -0.00014968
Pt       2.80721436       1.62074546      24.58417392        2       0.00000000      -0.00561213      -0.01149953       0.03822714
Pt       5.61442782       1.62074536      24.58417379        2       0.00000000      -0.01113802       0.00913382      -0.00022119
Pt       1.40360636       4.05186439      24.58417387        2       0.00000000      -0.00682616       0.01044735       0.03761285
Pt       4.21082089       4.05186396      24.58417387        2       0.00000000       0.01240971       0.00048009       0.03753053
Pt       7.01803504       4.05186408      24.58417404        2       0.00000000       0.00203860       0.01167842       0.03176644
Pt       2.80721273       6.48298349      24.58417384        2       0.00000000      -0.00232959      -0.01428810       0.00007031
Pt       5.61442806       6.48298330      24.58417399        2       0.00000000       0.00917860      -0.00748541       0.03205975
Pt       8.42164222       6.48298344      24.58417375        2       0.00000000      -0.01116692      -0.00390603       0.03202398
Pt      -0.00821987       0.00470199      26.91019832        1       0.00000000       0.00670136      -0.00509262       0.00727839
Pt       2.80653251       0.04834145      26.91431854        1       0.00000000       0.00146751       0.00390771      -0.01033447
Pt       5.62259134       0.00483538      26.91021352        1       0.00000000      -0.00759083      -0.00370033       0.00724328
Pt       1.40395408       2.43218642      26.92458379        1       0.00000000      -0.01548762      -0.00759104      -0.00372069
Pt       4.20969427       2.43084381      26.92458771        1       0.00000000       0.01460825      -0.00903726      -0.00368848
Pt       7.01808725       2.42165220      26.91019657        1       0.00000000       0.00090155       0.00849892       0.00723480
Pt       2.80799133       4.86136570      26.92454818        1       0.00000000       0.00078060       0.01743043      -0.00355745
Pt       5.57291365       4.83748998      26.91413773        1       0.00000000      -0.00479289      -0.00101931      -0.01112611
Pt       8.46384473       4.83871867      26.91414942        1       0.00000000       0.00340030      -0.00367591      -0.01113899
O        7.01804632       5.67298331      29.27798491        0       0.50000000       0.00012037       0.00233203       0.00565639
H        7.01800926       5.67225617      28.28334416        0       0.50000000      -0.00010892      -0.00183804      -0.00339304
