38
Lattice="8.421641763931781 0.0 0.0 4.2108208819658905 7.293355709136913 0.0 0.0 0.0 46.87624170604845" Properties=species:S:1:pos:R:3:tags:I:1:initial_magmoms:R:1:forces:R:3 charge=0 spin=0 energy=-194.69032427365147 free_energy=-194.69032427365147 stress="0.009629388339817524 3.9855825662016287e-07 1.3050442930762074e-06 3.9855825662016287e-07 0.009630851447582245 -2.153662990167504e-06 1.3050442930762074e-06 -2.153662990167504e-06 -0.000108846761577297" pbc="T T T"
Pt      -0.00000011      -0.00000005      19.95723442        4       0.00000000      -0.00253404       0.00057284       0.01309303
Pt       2.80721395      -0.00000019      19.95723450        4       0.00000000      -0.00176044       0.00558540       0.01198553
Pt       5.61442786      -0.00000007      19.95723452        4       0.00000000       0.00177599       0.00186116       0.01312174
Pt       1.40360721       2.43111839      19.95723434        4       0.00000000       0.00566517       0.00371430      -0.00130534
Pt       4.21082082       2.43111837      19.95723444        4       0.00000000      -0.00604469       0.00310026      -0.00123520
Pt       7.01803481       2.43111844      19.95723433        4       0.00000000       0.00075687      -0.00244089       0.01309055
Pt       2.80721415       4.86223733      19.95723415        4       0.00000000       0.00034971      -0.00677733      -0.00134183
Pt       5.61442796       4.86223739      19.95723433        4       0.00000000      -0.00395209      -0.00432137       0.01196084
Pt       8.42164143       4.86223725      19.95723439        4       0.00000000       0.00571752      -0.00127274       0.01195224
Pt       1.40360728       0.81037261      22.29206792        3       0.00000000      -0.00773967      -0.00565998      -0.04131085
Pt       4.21082128       0.81037249      22.29206789        3       0.00000000       0.00883536      -0.00582048      -0.04452775
Pt       7.01803472       0.81037258      22.29206780        3       0.00000000       0.00000632       0.00000497      -0.04481322
Pt       2.80721447       3.24149123      22.29206774        3       0.00000000      -0.00001705       0.00001297       0.07227343
Pt       5.61442762       3.24149120      22.29206786        3       0.00000000       0.00887041      -0.00384870      -0.04141675
Pt       8.42164156       3.24149131      22.29206806        3       0.00000000      -0.00945942      -0.00476133      -0.04466569
Pt       4.21082090       5.67260998      22.29206740        3       0.00000000       0.00058593       0.01056311      -0.04456655
Pt       7.01803486       5.67261041      22.29206774        3       0.00000000      -0.00000399      -0.00001147      -0.03029353
Pt       9.82524817       5.67261060      22.29206803        3       0.00000000      -0.00109380       0.00951302      -0.04145514
Pt      -0.00000054       1.62074568      24.58417374        2       0.00000000       0.00676957       0.00021036       0.00157326
Pt       2.80721436       1.62074546      24.58417392        2       0.00000000      -0.00612397      -0.00272023       0.03309512
Pt       5.61442782       1.62074536      24.58417379        2       0.00000000      -0.00346210       0.00580841       0.00147100
Pt       1.40360636       4.05186439      24.58417387        2       0.00000000       0.00170648       0.00621034       0.03141030
Pt       4.21082089       4.05186396      24.58417387        2       0.00000000       0.00499889      -0.00438085       0.03228691
Pt       7.01803504       4.05186408      24.58417404        2       0.00000000       0.00199768       0.00179992       0.02436220
Pt       2.80721273       6.48298349      24.58417384        2       0.00000000      -0.00329250      -0.00603805       0.00170774
Pt       5.61442806       6.48298330      24.58417399        2       0.00000000       0.00054733      -0.00273489       0.02474791
Pt       8.42164222       6.48298344      24.58417375        2       0.00000000      -0.00280123       0.00137700       0.02458399
Pt      -0.00963114       0.00459824      26.91407013        1       0.00000000       0.01462127      -0.00475113      -0.00630125
Pt       2.80629134       0.04877066      26.90982215        1       0.00000000       0.00133204       0.00275343       0.01315172
Pt       5.62321809       0.00604072      26.91406768        1       0.00000000      -0.01145012      -0.01029238      -0.00627178
Pt       1.39939018       2.43003805      26.92343492        1       0.00000000       0.01875036       0.00839286      -0.00088155
Pt       4.21386138       2.42799107      26.92342674        1       0.00000000      -0.01666173       0.01202967      -0.00092057
Pt       7.01886040       2.42049018      26.91405972        1       0.00000000      -0.00323416       0.01507214      -0.00634960
Pt       2.80840262       4.86642598      26.92344667        1       0.00000000      -0.00209161      -0.02048168      -0.00083157
Pt       5.57258188       4.83706214      26.90966456        1       0.00000000      -0.00334734      -0.00018111       0.01229545
Pt       8.46444992       4.83859226      26.90948680        1       0.00000000       0.00225645      -0.00281929       0.01131926
O        7.01757259       5.67333869      29.27443672        0       0.50000000      -0.00258314       0.00411913       0.01418096
H        7.01838868       5.67204557      28.28016120        0       0.50000000       0.00210958      -0.00338761      -0.01517532
