38
Lattice="8.421641763931781 0.0 0.0 4.2108208819658905 7.293355709136913 0.0 0.0 0.0 46.87624170604845" Properties=species:S:1:pos:R:3:tags:I:1:initial_magmoms:R:1:forces:R:3 charge=0 spin=0 energy=-194.69036432797276 free_energy=-194.69036432797276 stress="0.009590864181518555 -1.658641779478387e-09 2.2245005482091074e-07 -1.658641779478387e-09 0.009591027162969112 -3.333914833092422e-08 2.2245005482091074e-07 -3.333914833092422e-08 -0.00015929302026052028" pbc="T T T"
Pt      -0.00000011      -0.00000005      19.95723442        4       0.00000000      -0.00230169       0.00038150       0.01309299
Pt       2.80721395      -0.00000019      19.95723450        4       0.00000000      -0.00160387       0.00558395       0.01202323
Pt       5.61442786      -0.00000007      19.95723452        4       0.00000000       0.00149128       0.00177474       0.01311693
Pt       1.40360721       2.43111839      19.95723434        4       0.00000000       0.00566384       0.00377265      -0.00138456
Pt       4.21082082       2.43111837      19.95723444        4       0.00000000      -0.00607553       0.00305049      -0.00136543
Pt       7.01803481       2.43111844      19.95723433        4       0.00000000       0.00081206      -0.00214911       0.01307397
Pt       2.80721415       4.86223733      19.95723415        4       0.00000000       0.00040554      -0.00682446      -0.00135903
Pt       5.61442796       4.86223739      19.95723433        4       0.00000000      -0.00403012      -0.00418584       0.01200003
Pt       8.42164143       4.86223725      19.95723439        4       0.00000000       0.00563624      -0.00140455       0.01199460
Pt       1.40360728       0.81037261      22.29206792        3       0.00000000      -0.00787926      -0.00533547      -0.04147761
Pt       4.21082128       0.81037249      22.29206789        3       0.00000000       0.00901820      -0.00540497      -0.04359427
Pt       7.01803472       0.81037258      22.29206780        3       0.00000000      -0.00000096       0.00001610      -0.04670083
Pt       2.80721447       3.24149123      22.29206774        3       0.00000000      -0.00000936       0.00000336       0.07111357
Pt       5.61442762       3.24149120      22.29206786        3       0.00000000       0.00865590      -0.00414393      -0.04159898
Pt       8.42164156       3.24149131      22.29206806        3       0.00000000      -0.00918898      -0.00511431      -0.04369555
Pt       4.21082090       5.67260998      22.29206740        3       0.00000000       0.00017383       0.01052302      -0.04358502
Pt       7.01803486       5.67261041      22.29206774        3       0.00000000      -0.00000375      -0.00001664      -0.02845055
Pt       9.82524817       5.67261060      22.29206803        3       0.00000000      -0.00076432       0.00948129      -0.04156442
Pt      -0.00000054       1.62074568      24.58417374        2       0.00000000       0.00791418       0.00295757      -0.00969765
Pt       2.80721436       1.62074546      24.58417392        2       0.00000000      -0.00518764      -0.00875408       0.02079613
Pt       5.61442782       1.62074536      24.58417379        2       0.00000000      -0.00643728       0.00533614      -0.00977240
Pt       1.40360636       4.05186439      24.58417387        2       0.00000000      -0.00490009       0.00900977       0.02098824
Pt       4.21082089       4.05186396      24.58417387        2       0.00000000       0.01016199      -0.00009620       0.02115563
Pt       7.01803504       4.05186408      24.58417404        2       0.00000000       0.00289985       0.00692871       0.02090110
Pt       2.80721273       6.48298349      24.58417384        2       0.00000000      -0.00143600      -0.00851079      -0.00936361
Pt       5.61442806       6.48298330      24.58417399        2       0.00000000       0.00432300      -0.00603695       0.02105871
Pt       8.42164222       6.48298344      24.58417375        2       0.00000000      -0.00729431      -0.00084298       0.02094809
Pt      -0.00851758       0.00579670      26.91069005        1       0.00000000       0.00861379      -0.01176640       0.00757863
Pt       2.80590120       0.04887937      26.91035142        1       0.00000000       0.00639248       0.00022613       0.00930716
Pt       5.62369968       0.00445239      26.91069298        1       0.00000000      -0.01435131      -0.00158953       0.00759903
Pt       1.40224285       2.43088504      26.92094543        1       0.00000000      -0.00471807       0.00296548       0.01372846
Pt       4.21168385       2.43000241      26.92093737        1       0.00000000      -0.00003031      -0.00512218       0.01376550
Pt       7.01725963       2.42088313      26.91063930        1       0.00000000       0.00578249       0.01323296       0.00772653
Pt       2.80771046       4.86350255      26.92105098        1       0.00000000       0.00481389       0.00271564       0.01320768
Pt       5.57273525       4.83667448      26.91039653        1       0.00000000      -0.00345027       0.00528980       0.00912987
Pt       8.46466772       4.83895861      26.91037059        1       0.00000000      -0.00300968      -0.00593591       0.00897538
O        7.01795885       5.67261890      29.27387160        0       0.50000000      -0.00043598      -0.00001057      -0.02036390
H        7.01809389       5.67261464      28.27856467        0       0.50000000       0.00035025      -0.00000456       0.02069278
