38
Lattice="8.421641763931781 0.0 0.0 4.2108208819658905 7.293355709136913 0.0 0.0 0.0 46.87624170604845" Properties=species:S:1:pos:R:3:tags:I:1:initial_magmoms:R:1:forces:R:3 charge=0 spin=0 energy=-194.6904482513126 free_energy=-194.6904482513126 stress="0.009615844115614891 -2.952184452453821e-08 1.4709151230363204e-07 -2.952184452453821e-08 0.009616550989449024 -9.992332934416481e-07 1.4709151230363204e-07 -9.992332934416481e-07 -0.00013172917533665895" pbc="T T T"
Pt      -0.00000011      -0.00000005      19.95723442        4       0.00000000      -0.00231630       0.00047235       0.01310652
Pt       2.80721395      -0.00000019      19.95723450        4       0.00000000      -0.00171519       0.00556769       0.01201803
Pt       5.61442786      -0.00000007      19.95723452        4       0.00000000       0.00157916       0.00173405       0.01312855
Pt       1.40360721       2.43111839      19.95723434        4       0.00000000       0.00569759       0.00374797      -0.00134985
Pt       4.21082082       2.43111837      19.95723444        4       0.00000000      -0.00606932       0.00309510      -0.00133369
Pt       7.01803481       2.43111844      19.95723433        4       0.00000000       0.00073364      -0.00220513       0.01309295
Pt       2.80721415       4.86223733      19.95723415        4       0.00000000       0.00036632      -0.00682558      -0.00136883
Pt       5.61442796       4.86223739      19.95723433        4       0.00000000      -0.00395944      -0.00427475       0.01199293
Pt       8.42164143       4.86223725      19.95723439        4       0.00000000       0.00567760      -0.00130005       0.01198686
Pt       1.40360728       0.81037261      22.29206792        3       0.00000000      -0.00809530      -0.00528687      -0.04116266
Pt       4.21082128       0.81037249      22.29206789        3       0.00000000       0.00907494      -0.00541159      -0.04422237
Pt       7.01803472       0.81037258      22.29206780        3       0.00000000       0.00000504       0.00000320      -0.04712148
Pt       2.80721447       3.24149123      22.29206774        3       0.00000000      -0.00001043       0.00001068       0.07145163
Pt       5.61442762       3.24149120      22.29206786        3       0.00000000       0.00871456      -0.00435671      -0.04127020
Pt       8.42164156       3.24149131      22.29206806        3       0.00000000      -0.00922566      -0.00515844      -0.04432823
Pt       4.21082090       5.67260998      22.29206740        3       0.00000000       0.00013568       0.01057432      -0.04425897
Pt       7.01803486       5.67261041      22.29206774        3       0.00000000      -0.00000794      -0.00000986      -0.02812950
Pt       9.82524817       5.67261060      22.29206803        3       0.00000000      -0.00059721       0.00963890      -0.04128070
Pt      -0.00000054       1.62074568      24.58417374        2       0.00000000       0.01096377       0.00300693      -0.00565430
Pt       2.80721436       1.62074546      24.58417392        2       0.00000000      -0.00584037      -0.00651287       0.03384160
Pt       5.61442782       1.62074536      24.58417379        2       0.00000000      -0.00801922       0.00800656      -0.00570946
Pt       1.40360636       4.05186439      24.58417387        2       0.00000000      -0.00233928       0.00819712       0.03316623
Pt       4.21082089       4.05186396      24.58417387        2       0.00000000       0.00826228      -0.00212143       0.03327328
Pt       7.01803504       4.05186408      24.58417404        2       0.00000000       0.00197577       0.00752023       0.02258214
Pt       2.80721273       6.48298349      24.58417384        2       0.00000000      -0.00295624      -0.01105278      -0.00549981
Pt       5.61442806       6.48298330      24.58417399        2       0.00000000       0.00552280      -0.00542072       0.02289051
Pt       8.42164222       6.48298344      24.58417375        2       0.00000000      -0.00751730      -0.00184676       0.02281746
Pt      -0.00890062       0.00442111      26.91072274        1       0.00000000       0.01047017      -0.00378986       0.00786450
Pt       2.80647264       0.04827933      26.91133563        1       0.00000000       0.00105320       0.00958913       0.00330400
Pt       5.62270840       0.00549738      26.91073182        1       0.00000000      -0.00853592      -0.00714416       0.00785085
Pt       1.40116182       2.43072867      26.92347832        1       0.00000000       0.00703055       0.00368111      -0.00026342
Pt       4.21236712       2.42919547      26.92348642        1       0.00000000      -0.00670912       0.00421036      -0.00028588
Pt       7.01863765       2.42120562      26.91070096        1       0.00000000      -0.00191829       0.01095701       0.00789960
Pt       2.80810494       4.86454264      26.92348862        1       0.00000000      -0.00030862      -0.00794089      -0.00023325
Pt       5.57295590       4.83743671      26.91121360        1       0.00000000      -0.00899904      -0.00388656       0.00280302
Pt       8.46388197       4.83873804      26.91119247        1       0.00000000       0.00793103      -0.00579548       0.00269013
O        7.01798068       5.67293964      29.27311991        0       0.50000000      -0.00029791       0.00188311       0.01777849
H        7.01807460       5.67235058      28.27873106        0       0.50000000       0.00024379      -0.00155546      -0.01206642
