38
Lattice="8.421641763931781 0.0 0.0 4.2108208819658905 7.293355709136913 0.0 0.0 0.0 46.87624170604845" Properties=species:S:1:pos:R:3:tags:I:1:initial_magmoms:R:1:forces:R:3 charge=0 spin=0 energy=-194.69031855160557 free_energy=-194.69031855160557 stress="0.009629452601075172 3.9992210076889023e-07 1.3068910220681573e-06 3.9992210076889023e-07 0.009630924090743065 -2.1661812752427068e-06 1.3068910220681573e-06 -2.1661812752427068e-06 -0.00010924968955805525" pbc="T T T"
Pt      -0.00000011      -0.00000005      19.95723442        4       0.00000000      -0.00253426       0.00057308       0.01309301
Pt       2.80721395      -0.00000019      19.95723450        4       0.00000000      -0.00176013       0.00558473       0.01198597
Pt       5.61442786      -0.00000007      19.95723452        4       0.00000000       0.00177604       0.00186131       0.01312157
Pt       1.40360721       2.43111839      19.95723434        4       0.00000000       0.00566587       0.00371474      -0.00130449
Pt       4.21082082       2.43111837      19.95723444        4       0.00000000      -0.00604568       0.00310028      -0.00123420
Pt       7.01803481       2.43111844      19.95723433        4       0.00000000       0.00075686      -0.00244125       0.01309061
Pt       2.80721415       4.86223733      19.95723415        4       0.00000000       0.00034985      -0.00677797      -0.00134126
Pt       5.61442796       4.86223739      19.95723433        4       0.00000000      -0.00395130      -0.00432061       0.01196095
Pt       8.42164143       4.86223725      19.95723439        4       0.00000000       0.00571671      -0.00127251       0.01195258
Pt       1.40360728       0.81037261      22.29206792        3       0.00000000      -0.00773970      -0.00566086      -0.04131028
Pt       4.21082128       0.81037249      22.29206789        3       0.00000000       0.00883474      -0.00582225      -0.04452737
Pt       7.01803472       0.81037258      22.29206780        3       0.00000000       0.00000646       0.00000507      -0.04481030
Pt       2.80721447       3.24149123      22.29206774        3       0.00000000      -0.00001690       0.00001337       0.07226485
Pt       5.61442762       3.24149120      22.29206786        3       0.00000000       0.00887103      -0.00384782      -0.04141676
Pt       8.42164156       3.24149131      22.29206806        3       0.00000000      -0.00946014      -0.00475987      -0.04466574
Pt       4.21082090       5.67260998      22.29206740        3       0.00000000       0.00058746       0.01056341      -0.04456458
Pt       7.01803486       5.67261041      22.29206774        3       0.00000000      -0.00000381      -0.00001144      -0.03028945
Pt       9.82524817       5.67261060      22.29206803        3       0.00000000      -0.00109461       0.00951291      -0.04145470
Pt      -0.00000054       1.62074568      24.58417374        2       0.00000000       0.00676975       0.00020592       0.00155313
Pt       2.80721436       1.62074546      24.58417392        2       0.00000000      -0.00612104      -0.00270091       0.03303918
Pt       5.61442782       1.62074536      24.58417379        2       0.00000000      -0.00345918       0.00580912       0.00144900
Pt       1.40360636       4.05186439      24.58417387        2       0.00000000       0.00172506       0.00619811       0.03135056
Pt       4.21082089       4.05186396      24.58417387        2       0.00000000       0.00497735      -0.00439135       0.03222543
Pt       7.01803504       4.05186408      24.58417404        2       0.00000000       0.00199892       0.00182209       0.02439530
Pt       2.80721273       6.48298349      24.58417384        2       0.00000000      -0.00329235      -0.00603456       0.00168849
Pt       5.61442806       6.48298330      24.58417399        2       0.00000000       0.00056410      -0.00274727       0.02478096
Pt       8.42164222       6.48298344      24.58417375        2       0.00000000      -0.00282227       0.00136725       0.02461456
Pt      -0.00963030       0.00459827      26.91406747        1       0.00000000       0.01465310      -0.00477300      -0.00628302
Pt       2.80629145       0.04878462      26.90982335        1       0.00000000       0.00133658       0.00248950       0.01321303
Pt       5.62321765       0.00603972      26.91406423        1       0.00000000      -0.01147586      -0.01030676      -0.00624146
Pt       1.39938872       2.43003711      26.92343187        1       0.00000000       0.01875101       0.00839588      -0.00085165
Pt       4.21386301       2.42799026      26.92342408        1       0.00000000      -0.01666212       0.01203108      -0.00088971
Pt       7.01886023       2.42049089      26.91405709        1       0.00000000      -0.00324058       0.01510942      -0.00632363
Pt       2.80840262       4.86642755      26.92344344        1       0.00000000      -0.00209128      -0.02048301      -0.00079853
Pt       5.57256928       4.83705506      26.90966385        1       0.00000000      -0.00312460      -0.00004870       0.01234725
Pt       8.46446273       4.83858481      26.90948668        1       0.00000000       0.00203247      -0.00269410       0.01136473
O        7.01757175       5.67334257      29.27453545        0       0.50000000      -0.00258664       0.00413865       0.01529139
H        7.01838920       5.67204313      28.28029670        0       0.50000000       0.00210923      -0.00340186      -0.01647514
