38
Lattice="8.421641763931781 0.0 0.0 4.2108208819658905 7.293355709136913 0.0 0.0 0.0 46.87624170604845" Properties=species:S:1:pos:R:3:tags:I:1:initial_magmoms:R:1:forces:R:3 charge=0 spin=0 energy=-194.69036432797276 free_energy=-194.69036432797276 stress="0.009590857662260532 -8.76592309850821e-09 2.1121526572187577e-07 -8.76592309850821e-09 0.009591011330485344 -4.588967073004824e-08 2.1121526572187577e-07 -4.588967073004824e-08 -0.00015930690278764814" pbc="T T T"
Pt      -0.00000011      -0.00000005      19.95723442        4       0.00000000      -0.00230172       0.00038162       0.01309284
Pt       2.80721395      -0.00000019      19.95723450        4       0.00000000      -0.00160392       0.00558413       0.01202333
Pt       5.61442786      -0.00000007      19.95723452        4       0.00000000       0.00149131       0.00177486       0.01311663
Pt       1.40360721       2.43111839      19.95723434        4       0.00000000       0.00566392       0.00377273      -0.00138458
Pt       4.21082082       2.43111837      19.95723444        4       0.00000000      -0.00607541       0.00305054      -0.00136560
Pt       7.01803481       2.43111844      19.95723433        4       0.00000000       0.00081221      -0.00214931       0.01307369
Pt       2.80721415       4.86223733      19.95723415        4       0.00000000       0.00040553      -0.00682475      -0.00135935
Pt       5.61442796       4.86223739      19.95723433        4       0.00000000      -0.00403032      -0.00418600       0.01199986
Pt       8.42164143       4.86223725      19.95723439        4       0.00000000       0.00563645      -0.00140472       0.01199431
Pt       1.40360728       0.81037261      22.29206792        3       0.00000000      -0.00787872      -0.00533641      -0.04147780
Pt       4.21082128       0.81037249      22.29206789        3       0.00000000       0.00901783      -0.00540563      -0.04359353
Pt       7.01803472       0.81037258      22.29206780        3       0.00000000      -0.00000017       0.00001650      -0.04670142
Pt       2.80721447       3.24149123      22.29206774        3       0.00000000      -0.00000929       0.00000355       0.07111643
Pt       5.61442762       3.24149120      22.29206786        3       0.00000000       0.00865599      -0.00414382      -0.04159891
Pt       8.42164156       3.24149131      22.29206806        3       0.00000000      -0.00918939      -0.00511412      -0.04369581
Pt       4.21082090       5.67260998      22.29206740        3       0.00000000       0.00017441       0.01052360      -0.04358539
Pt       7.01803486       5.67261041      22.29206774        3       0.00000000      -0.00000430      -0.00001583      -0.02845149
Pt       9.82524817       5.67261060      22.29206803        3       0.00000000      -0.00076478       0.00948128      -0.04156370
Pt      -0.00000054       1.62074568      24.58417374        2       0.00000000       0.00791232       0.00295862      -0.00970284
Pt       2.80721436       1.62074546      24.58417392        2       0.00000000      -0.00518697      -0.00875269       0.02079173
Pt       5.61442782       1.62074536      24.58417379        2       0.00000000      -0.00644023       0.00533878      -0.00977403
Pt       1.40360636       4.05186439      24.58417387        2       0.00000000      -0.00490040       0.00900907       0.02098264
Pt       4.21082089       4.05186396      24.58417387        2       0.00000000       0.01015876      -0.00010343       0.02115259
Pt       7.01803504       4.05186408      24.58417404        2       0.00000000       0.00290371       0.00692647       0.02089375
Pt       2.80721273       6.48298349      24.58417384        2       0.00000000      -0.00143525      -0.00851210      -0.00936431
Pt       5.61442806       6.48298330      24.58417399        2       0.00000000       0.00432259      -0.00603254       0.02105320
Pt       8.42164222       6.48298344      24.58417375        2       0.00000000      -0.00729181      -0.00084168       0.02094556
Pt      -0.00851915       0.00579732      26.91069034        1       0.00000000       0.00861867      -0.01176946       0.00758183
Pt       2.80590155       0.04888177      26.91034907        1       0.00000000       0.00639382       0.00019613       0.00933384
Pt       5.62370079       0.00445351      26.91069278        1       0.00000000      -0.01435850      -0.00159953       0.00760174
Pt       1.40224341       2.43088521      26.92094487        1       0.00000000      -0.00472163       0.00296624       0.01373911
Pt       4.21168379       2.43000232      26.92093768        1       0.00000000      -0.00002997      -0.00511802       0.01375751
Pt       7.01725927       2.42088149      26.91063924        1       0.00000000       0.00578845       0.01323842       0.00773157
Pt       2.80771046       4.86350221      26.92105115        1       0.00000000       0.00481398       0.00271979       0.01320921
Pt       5.57273354       4.83667311      26.91039368        1       0.00000000      -0.00344131       0.00530063       0.00914658
Pt       8.46466954       4.83895813      26.91036740        1       0.00000000      -0.00302666      -0.00591775       0.00899781
O        7.01795942       5.67261869      29.27386768        0       0.50000000      -0.00040821       0.00002652      -0.02033336
H        7.01809309       5.67261482      28.27856192        0       0.50000000       0.00032896      -0.00004180       0.02061631
