38
Lattice="8.421641763931781 0.0 0.0 4.2108208819658905 7.293355709136913 0.0 0.0 0.0 46.87624170604845" Properties=species:S:1:pos:R:3:tags:I:1:initial_magmoms:R:1:forces:R:3 charge=0 spin=0 energy=-194.69036432797276 free_energy=-194.69036432797276 stress="0.009590881876647472 -4.5172501295098755e-09 2.1540250827456475e-07 -4.5172501295098755e-09 0.009591038338840008 -3.904741419091806e-08 2.1540250827456475e-07 -3.904741419091806e-08 -0.0001593259657965973" pbc="T T T"
Pt      -0.00000011      -0.00000005      19.95723442        4       0.00000000      -0.00230162       0.00038160       0.01309286
Pt       2.80721395      -0.00000019      19.95723450        4       0.00000000      -0.00160392       0.00558406       0.01202321
Pt       5.61442786      -0.00000007      19.95723452        4       0.00000000       0.00149137       0.00177491       0.01311686
Pt       1.40360721       2.43111839      19.95723434        4       0.00000000       0.00566377       0.00377278      -0.00138420
Pt       4.21082082       2.43111837      19.95723444        4       0.00000000      -0.00607541       0.00305062      -0.00136558
Pt       7.01803481       2.43111844      19.95723433        4       0.00000000       0.00081204      -0.00214935       0.01307386
Pt       2.80721415       4.86223733      19.95723415        4       0.00000000       0.00040561      -0.00682473      -0.00135888
Pt       5.61442796       4.86223739      19.95723433        4       0.00000000      -0.00403011      -0.00418586       0.01199978
Pt       8.42164143       4.86223725      19.95723439        4       0.00000000       0.00563613      -0.00140456       0.01199447
Pt       1.40360728       0.81037261      22.29206792        3       0.00000000      -0.00787895      -0.00533643      -0.04147725
Pt       4.21082128       0.81037249      22.29206789        3       0.00000000       0.00901736      -0.00540622      -0.04359382
Pt       7.01803472       0.81037258      22.29206780        3       0.00000000      -0.00000051       0.00001590      -0.04670060
Pt       2.80721447       3.24149123      22.29206774        3       0.00000000      -0.00000981       0.00000333       0.07111411
Pt       5.61442762       3.24149120      22.29206786        3       0.00000000       0.00865598      -0.00414375      -0.04159850
Pt       8.42164156       3.24149131      22.29206806        3       0.00000000      -0.00918901      -0.00511411      -0.04369512
Pt       4.21082090       5.67260998      22.29206740        3       0.00000000       0.00017453       0.01052367      -0.04358420
Pt       7.01803486       5.67261041      22.29206774        3       0.00000000      -0.00000416      -0.00001602      -0.02845200
Pt       9.82524817       5.67261060      22.29206803        3       0.00000000      -0.00076472       0.00948149      -0.04156348
Pt      -0.00000054       1.62074568      24.58417374        2       0.00000000       0.00791237       0.00296005      -0.00969597
Pt       2.80721436       1.62074546      24.58417392        2       0.00000000      -0.00518548      -0.00874392       0.02078374
Pt       5.61442782       1.62074536      24.58417379        2       0.00000000      -0.00643662       0.00533994      -0.00976722
Pt       1.40360636       4.05186439      24.58417387        2       0.00000000      -0.00489436       0.00900425       0.02097652
Pt       4.21082089       4.05186396      24.58417387        2       0.00000000       0.01015449      -0.00010568       0.02114525
Pt       7.01803504       4.05186408      24.58417404        2       0.00000000       0.00290129       0.00692391       0.02089702
Pt       2.80721273       6.48298349      24.58417384        2       0.00000000      -0.00143650      -0.00851072      -0.00936491
Pt       5.61442806       6.48298330      24.58417399        2       0.00000000       0.00432067      -0.00603521       0.02105363
Pt       8.42164222       6.48298344      24.58417375        2       0.00000000      -0.00729215      -0.00084060       0.02094109
Pt      -0.00851838       0.00579679      26.91069046        1       0.00000000       0.00862239      -0.01176768       0.00757907
Pt       2.80590155       0.04888113      26.91034706        1       0.00000000       0.00639348       0.00017965       0.00934963
Pt       5.62370030       0.00445292      26.91069304        1       0.00000000      -0.01435441      -0.00159100       0.00760324
Pt       1.40224286       2.43088508      26.92094639        1       0.00000000      -0.00472027       0.00296587       0.01372937
Pt       4.21168388       2.43000231      26.92093768        1       0.00000000      -0.00002802      -0.00511950       0.01375842
Pt       7.01725976       2.42088235      26.91064019        1       0.00000000       0.00578096       0.01323532       0.00772078
Pt       2.80770998       4.86350241      26.92105147        1       0.00000000       0.00481463       0.00271504       0.01320592
Pt       5.57273378       4.83667316      26.91039191        1       0.00000000      -0.00342222       0.00531156       0.00915744
Pt       8.46466950       4.83895840      26.91036541        1       0.00000000      -0.00304692      -0.00591476       0.00901253
O        7.01796030       5.67261814      29.27388834        0       0.50000000      -0.00042259       0.00001170      -0.02028451
H        7.01809230       5.67261532      28.27858353        0       0.50000000       0.00034074      -0.00002557       0.02055775
