38
Lattice="8.421641763931781 0.0 0.0 4.2108208819658905 7.293355709136913 0.0 0.0 0.0 46.87624170604845" Properties=species:S:1:pos:R:3:tags:I:1:initial_magmoms:R:1:forces:R:3 charge=0 spin=0 energy=-194.6903834014591 free_energy=-194.6903834014591 stress="0.00964473094791174 -1.2780355973518454e-07 -7.344316799162698e-08 -1.2780355973518454e-07 0.009645555168390274 -1.2676295000346727e-06 -7.344316799162698e-08 -1.2676295000346727e-06 -7.96791136963293e-05" pbc="T T T"
Pt      -0.00000011      -0.00000005      19.95723442        4       0.00000000      -0.00204792       0.00034320       0.01315259
Pt       2.80721395      -0.00000019      19.95723450        4       0.00000000      -0.00165232       0.00555898       0.01213336
Pt       5.61442786      -0.00000007      19.95723452        4       0.00000000       0.00132891       0.00156948       0.01317278
Pt       1.40360721       2.43111839      19.95723434        4       0.00000000       0.00570447       0.00377128      -0.00134101
Pt       4.21082082       2.43111837      19.95723444        4       0.00000000      -0.00608963       0.00308310      -0.00133583
Pt       7.01803481       2.43111844      19.95723433        4       0.00000000       0.00071170      -0.00190508       0.01314150
Pt       2.80721415       4.86223733      19.95723415        4       0.00000000       0.00038661      -0.00683986      -0.00137423
Pt       5.61442796       4.86223739      19.95723433        4       0.00000000      -0.00398292      -0.00421770       0.01210864
Pt       8.42164143       4.86223725      19.95723439        4       0.00000000       0.00563741      -0.00135353       0.01210277
Pt       1.40360728       0.81037261      22.29206792        3       0.00000000      -0.00829204      -0.00506192      -0.04097410
Pt       4.21082128       0.81037249      22.29206789        3       0.00000000       0.00922748      -0.00515234      -0.04371432
Pt       7.01803472       0.81037258      22.29206780        3       0.00000000       0.00000613      -0.00000527      -0.04967614
Pt       2.80721447       3.24149123      22.29206774        3       0.00000000      -0.00000833       0.00001044       0.06969972
Pt       5.61442762       3.24149120      22.29206786        3       0.00000000       0.00860488      -0.00464427      -0.04106860
Pt       8.42164156       3.24149131      22.29206806        3       0.00000000      -0.00907124      -0.00542384      -0.04380894
Pt       4.21082090       5.67260998      22.29206740        3       0.00000000      -0.00017588       0.01057832      -0.04379374
Pt       7.01803486       5.67261041      22.29206774        3       0.00000000      -0.00001077      -0.00000986      -0.02667600
Pt       9.82524817       5.67261060      22.29206803        3       0.00000000      -0.00029121       0.00969123      -0.04112106
Pt      -0.00000054       1.62074568      24.58417374        2       0.00000000       0.01345986       0.00523315      -0.00014887
Pt       2.80721436       1.62074546      24.58417392        2       0.00000000      -0.00561194      -0.01149987       0.03823366
Pt       5.61442782       1.62074536      24.58417379        2       0.00000000      -0.01113927       0.00913425      -0.00021900
Pt       1.40360636       4.05186439      24.58417387        2       0.00000000      -0.00682674       0.01044686       0.03761459
Pt       4.21082089       4.05186396      24.58417387        2       0.00000000       0.01241217       0.00047832       0.03753823
Pt       7.01803504       4.05186408      24.58417404        2       0.00000000       0.00203709       0.01167741       0.03176345
Pt       2.80721273       6.48298349      24.58417384        2       0.00000000      -0.00232811      -0.01428816       0.00006968
Pt       5.61442806       6.48298330      24.58417399        2       0.00000000       0.00917896      -0.00748536       0.03205889
Pt       8.42164222       6.48298344      24.58417375        2       0.00000000      -0.01116661      -0.00390392       0.03201920
Pt      -0.00822032       0.00470191      26.91019848        1       0.00000000       0.00669659      -0.00508709       0.00727916
Pt       2.80653287       0.04834301      26.91431717        1       0.00000000       0.00146928       0.00390698      -0.01032896
Pt       5.62259145       0.00483537      26.91021350        1       0.00000000      -0.00758723      -0.00369453       0.00724425
Pt       1.40395375       2.43218623      26.92458364        1       0.00000000      -0.01548616      -0.00759152      -0.00372122
Pt       4.20969465       2.43084377      26.92458834        1       0.00000000       0.01460524      -0.00903698      -0.00369590
Pt       7.01808710       2.42165218      26.91019669        1       0.00000000       0.00090513       0.00849099       0.00723679
Pt       2.80799140       4.86136615      26.92454867        1       0.00000000       0.00078219       0.01742640      -0.00355765
Pt       5.57291205       4.83748893      26.91413678        1       0.00000000      -0.00479355      -0.00102127      -0.01113156
Pt       8.46384633       4.83871821      26.91414825        1       0.00000000       0.00338992      -0.00367176      -0.01111744
O        7.01804819       5.67298350      29.27797382        0       0.50000000       0.00014468       0.00233245       0.00563739
H        7.01800746       5.67225578      28.28333342        0       0.50000000      -0.00012663      -0.00183869      -0.00340198
