38
Lattice="8.421641763931781 0.0 0.0 4.2108208819658905 7.293355709136913 0.0 0.0 0.0 46.87624170604845" Properties=species:S:1:pos:R:3:tags:I:1:initial_magmoms:R:1:forces:R:3 charge=0 spin=0 energy=-194.69038530880772 free_energy=-194.69038530880772 stress="0.009644710458815098 -1.1707429337093345e-07 -5.453184570569647e-08 -1.1707429337093345e-07 0.00964554212987423 -1.2558065236589755e-06 -5.453184570569647e-08 -1.2558065236589755e-06 -7.972220191732049e-05" pbc="T T T"
Pt      -0.00000011      -0.00000005      19.95723442        4       0.00000000      -0.00204798       0.00034338       0.01315276
Pt       2.80721395      -0.00000019      19.95723450        4       0.00000000      -0.00165233       0.00555896       0.01213336
Pt       5.61442786      -0.00000007      19.95723452        4       0.00000000       0.00132887       0.00156953       0.01317299
Pt       1.40360721       2.43111839      19.95723434        4       0.00000000       0.00570423       0.00377112      -0.00134134
Pt       4.21082082       2.43111837      19.95723444        4       0.00000000      -0.00608976       0.00308299      -0.00133587
Pt       7.01803481       2.43111844      19.95723433        4       0.00000000       0.00071194      -0.00190500       0.01314138
Pt       2.80721415       4.86223733      19.95723415        4       0.00000000       0.00038654      -0.00684003      -0.00137396
Pt       5.61442796       4.86223739      19.95723433        4       0.00000000      -0.00398272      -0.00421752       0.01210860
Pt       8.42164143       4.86223725      19.95723439        4       0.00000000       0.00563749      -0.00135344       0.01210289
Pt       1.40360728       0.81037261      22.29206792        3       0.00000000      -0.00829233      -0.00506139      -0.04097360
Pt       4.21082128       0.81037249      22.29206789        3       0.00000000       0.00922795      -0.00515266      -0.04371556
Pt       7.01803472       0.81037258      22.29206780        3       0.00000000       0.00000572      -0.00000579      -0.04967672
Pt       2.80721447       3.24149123      22.29206774        3       0.00000000      -0.00000813       0.00001047       0.06970003
Pt       5.61442762       3.24149120      22.29206786        3       0.00000000       0.00860513      -0.00464471      -0.04106869
Pt       8.42164156       3.24149131      22.29206806        3       0.00000000      -0.00907140      -0.00542437      -0.04380863
Pt       4.21082090       5.67260998      22.29206740        3       0.00000000      -0.00017668       0.01057835      -0.04379354
Pt       7.01803486       5.67261041      22.29206774        3       0.00000000      -0.00001063      -0.00001008      -0.02667618
Pt       9.82524817       5.67261060      22.29206803        3       0.00000000      -0.00029082       0.00969151      -0.04112264
Pt      -0.00000054       1.62074568      24.58417374        2       0.00000000       0.01346291       0.00523359      -0.00014862
Pt       2.80721436       1.62074546      24.58417392        2       0.00000000      -0.00561192      -0.01149469       0.03822882
Pt       5.61442782       1.62074536      24.58417379        2       0.00000000      -0.01113844       0.00913655      -0.00022002
Pt       1.40360636       4.05186439      24.58417387        2       0.00000000      -0.00682460       0.01044585       0.03761178
Pt       4.21082089       4.05186396      24.58417387        2       0.00000000       0.01241206       0.00048066       0.03753741
Pt       7.01803504       4.05186408      24.58417404        2       0.00000000       0.00203590       0.01167738       0.03176659
Pt       2.80721273       6.48298349      24.58417384        2       0.00000000      -0.00232735      -0.01428976       0.00006505
Pt       5.61442806       6.48298330      24.58417399        2       0.00000000       0.00917678      -0.00748850       0.03205664
Pt       8.42164222       6.48298344      24.58417375        2       0.00000000      -0.01116873      -0.00390672       0.03201722
Pt      -0.00822038       0.00470207      26.91019807        1       0.00000000       0.00670369      -0.00509177       0.00727540
Pt       2.80653221       0.04834347      26.91431711        1       0.00000000       0.00147307       0.00391481      -0.01033744
Pt       5.62259128       0.00483546      26.91021248        1       0.00000000      -0.00759058      -0.00369222       0.00725405
Pt       1.40395411       2.43218623      26.92458450        1       0.00000000      -0.01548517      -0.00759117      -0.00372745
Pt       4.20969414       2.43084383      26.92458860        1       0.00000000       0.01461239      -0.00903785      -0.00369471
Pt       7.01808762       2.42165199      26.91019614        1       0.00000000       0.00089503       0.00849770       0.00723573
Pt       2.80799143       4.86136574      26.92454957        1       0.00000000       0.00078300       0.01742854      -0.00355854
Pt       5.57291263       4.83748941      26.91413756        1       0.00000000      -0.00478797      -0.00102701      -0.01112013
Pt       8.46384677       4.83871781      26.91414804        1       0.00000000       0.00338979      -0.00368129      -0.01113867
O        7.01804156       5.67298229      29.27797201        0       0.50000000       0.00010999       0.00229279       0.00567030
H        7.01801316       5.67225668      28.28333046        0       0.50000000      -0.00010474      -0.00179826      -0.00339868
