38
Lattice="8.421641763931781 0.0 0.0 4.2108208819658905 7.293355709136913 0.0 0.0 0.0 46.87624170604845" Properties=species:S:1:pos:R:3:tags:I:1:initial_magmoms:R:1:forces:R:3 charge=0 spin=0 energy=-194.69031855160557 free_energy=-194.69031855160557 stress="0.009629564359784126 4.529751151949313e-07 1.451498178539623e-06 4.529751151949313e-07 0.009631085209548473 -2.2166634607856395e-06 1.451498178539623e-06 -2.2166634607856395e-06 -0.0001096172200050205" pbc="T T T"
Pt      -0.00000011      -0.00000005      19.95723442        4       0.00000000      -0.00253461       0.00057342       0.01309186
Pt       2.80721395      -0.00000019      19.95723450        4       0.00000000      -0.00176015       0.00558357       0.01198637
Pt       5.61442786      -0.00000007      19.95723452        4       0.00000000       0.00177668       0.00186066       0.01312157
Pt       1.40360721       2.43111839      19.95723434        4       0.00000000       0.00566567       0.00371521      -0.00130576
Pt       4.21082082       2.43111837      19.95723444        4       0.00000000      -0.00604818       0.00310159      -0.00122913
Pt       7.01803481       2.43111844      19.95723433        4       0.00000000       0.00075707      -0.00244137       0.01309087
Pt       2.80721415       4.86223733      19.95723415        4       0.00000000       0.00034997      -0.00677836      -0.00134200
Pt       5.61442796       4.86223739      19.95723433        4       0.00000000      -0.00395056      -0.00431976       0.01196157
Pt       8.42164143       4.86223725      19.95723439        4       0.00000000       0.00571608      -0.00127231       0.01195308
Pt       1.40360728       0.81037261      22.29206792        3       0.00000000      -0.00773951      -0.00566178      -0.04130835
Pt       4.21082128       0.81037249      22.29206789        3       0.00000000       0.00883226      -0.00582569      -0.04452345
Pt       7.01803472       0.81037258      22.29206780        3       0.00000000       0.00000636       0.00000521      -0.04480805
Pt       2.80721447       3.24149123      22.29206774        3       0.00000000      -0.00001831       0.00001353       0.07225444
Pt       5.61442762       3.24149120      22.29206786        3       0.00000000       0.00887331      -0.00384502      -0.04141416
Pt       8.42164156       3.24149131      22.29206806        3       0.00000000      -0.00946137      -0.00475734      -0.04466539
Pt       4.21082090       5.67260998      22.29206740        3       0.00000000       0.00058897       0.01056161      -0.04456243
Pt       7.01803486       5.67261041      22.29206774        3       0.00000000      -0.00000360      -0.00001218      -0.03028520
Pt       9.82524817       5.67261060      22.29206803        3       0.00000000      -0.00109606       0.00951257      -0.04145511
Pt      -0.00000054       1.62074568      24.58417374        2       0.00000000       0.00676978       0.00020668       0.00153718
Pt       2.80721436       1.62074546      24.58417392        2       0.00000000      -0.00611788      -0.00268951       0.03300618
Pt       5.61442782       1.62074536      24.58417379        2       0.00000000      -0.00345873       0.00580626       0.00142792
Pt       1.40360636       4.05186439      24.58417387        2       0.00000000       0.00178570       0.00616792       0.03123823
Pt       4.21082089       4.05186396      24.58417387        2       0.00000000       0.00497677      -0.00439232       0.03220208
Pt       7.01803504       4.05186408      24.58417404        2       0.00000000       0.00197715       0.00184727       0.02443069
Pt       2.80721273       6.48298349      24.58417384        2       0.00000000      -0.00329249      -0.00603812       0.00166890
Pt       5.61442806       6.48298330      24.58417399        2       0.00000000       0.00058690      -0.00276641       0.02482614
Pt       8.42164222       6.48298344      24.58417375        2       0.00000000      -0.00285299       0.00137450       0.02464688
Pt      -0.00962968       0.00459840      26.91406385        1       0.00000000       0.01467944      -0.00479016      -0.00625183
Pt       2.80628983       0.04880052      26.90982848        1       0.00000000       0.00132973       0.00215887       0.01331457
Pt       5.62321719       0.00603879      26.91406143        1       0.00000000      -0.01151050      -0.01031420      -0.00620687
Pt       1.39938830       2.43003525      26.92342918        1       0.00000000       0.01875377       0.00840074      -0.00082652
Pt       4.21386462       2.42798953      26.92341958        1       0.00000000      -0.01666531       0.01202572      -0.00086215
Pt       7.01885895       2.42049186      26.91405347        1       0.00000000      -0.00323269       0.01513790      -0.00628883
Pt       2.80840368       4.86642882      26.92344029        1       0.00000000      -0.00209354      -0.02048752      -0.00077650
Pt       5.57255552       4.83704923      26.90967182        1       0.00000000      -0.00281922       0.00013138       0.01247753
Pt       8.46448105       4.83857375      26.90947576        1       0.00000000       0.00175984      -0.00255325       0.01138449
O        7.01752184       5.67336433      29.27465994        0       0.50000000      -0.00287557       0.00422022       0.01661573
H        7.01842795       5.67202588      28.28046652        0       0.50000000       0.00234576      -0.00345939      -0.01812493
