38
Lattice="8.421641763931781 0.0 0.0 4.2108208819658905 7.293355709136913 0.0 0.0 0.0 46.87624170604845" Properties=species:S:1:pos:R:3:tags:I:1:initial_magmoms:R:1:forces:R:3 charge=0 spin=0 energy=-194.69038721615635 free_energy=-194.69038721615635 stress="0.009644749574363232 -1.2531916127045406e-07 -5.506917588604665e-08 -1.2531916127045406e-07 0.009645565412938595 -1.2478684539019014e-06 -5.506917588604665e-08 -1.2478684539019014e-06 -7.966189150465652e-05" pbc="T T T"
Pt      -0.00000011      -0.00000005      19.95723442        4       0.00000000      -0.00204775       0.00034322       0.01315289
Pt       2.80721395      -0.00000019      19.95723450        4       0.00000000      -0.00165245       0.00555892       0.01213330
Pt       5.61442786      -0.00000007      19.95723452        4       0.00000000       0.00132896       0.00156918       0.01317297
Pt       1.40360721       2.43111839      19.95723434        4       0.00000000       0.00570423       0.00377084      -0.00134130
Pt       4.21082082       2.43111837      19.95723444        4       0.00000000      -0.00608956       0.00308298      -0.00133583
Pt       7.01803481       2.43111844      19.95723433        4       0.00000000       0.00071186      -0.00190479       0.01314167
Pt       2.80721415       4.86223733      19.95723415        4       0.00000000       0.00038653      -0.00683979      -0.00137383
Pt       5.61442796       4.86223739      19.95723433        4       0.00000000      -0.00398271      -0.00421753       0.01210879
Pt       8.42164143       4.86223725      19.95723439        4       0.00000000       0.00563743      -0.00135355       0.01210317
Pt       1.40360728       0.81037261      22.29206792        3       0.00000000      -0.00829240      -0.00506116      -0.04097290
Pt       4.21082128       0.81037249      22.29206789        3       0.00000000       0.00922756      -0.00515190      -0.04371500
Pt       7.01803472       0.81037258      22.29206780        3       0.00000000       0.00000587      -0.00000548      -0.04967564
Pt       2.80721447       3.24149123      22.29206774        3       0.00000000      -0.00000828       0.00001082       0.06969500
Pt       5.61442762       3.24149120      22.29206786        3       0.00000000       0.00860479      -0.00464440      -0.04106791
Pt       8.42164156       3.24149131      22.29206806        3       0.00000000      -0.00907166      -0.00542359      -0.04380799
Pt       4.21082090       5.67260998      22.29206740        3       0.00000000      -0.00017661       0.01057799      -0.04379350
Pt       7.01803486       5.67261041      22.29206774        3       0.00000000      -0.00001082      -0.00000998      -0.02667682
Pt       9.82524817       5.67261060      22.29206803        3       0.00000000      -0.00029071       0.00969085      -0.04112081
Pt      -0.00000054       1.62074568      24.58417374        2       0.00000000       0.01346016       0.00523341      -0.00014791
Pt       2.80721436       1.62074546      24.58417392        2       0.00000000      -0.00561279      -0.01149670       0.03822495
Pt       5.61442782       1.62074536      24.58417379        2       0.00000000      -0.01113809       0.00913182      -0.00021830
Pt       1.40360636       4.05186439      24.58417387        2       0.00000000      -0.00682474       0.01044998       0.03761383
Pt       4.21082089       4.05186396      24.58417387        2       0.00000000       0.01241439       0.00048141       0.03753810
Pt       7.01803504       4.05186408      24.58417404        2       0.00000000       0.00203560       0.01167856       0.03176919
Pt       2.80721273       6.48298349      24.58417384        2       0.00000000      -0.00232839      -0.01429046       0.00007004
Pt       5.61442806       6.48298330      24.58417399        2       0.00000000       0.00917778      -0.00748819       0.03206276
Pt       8.42164222       6.48298344      24.58417375        2       0.00000000      -0.01116718      -0.00390646       0.03202316
Pt      -0.00822054       0.00470188      26.91019884        1       0.00000000       0.00670420      -0.00509162       0.00727612
Pt       2.80653260       0.04834188      26.91431790        1       0.00000000       0.00146393       0.00390759      -0.01033655
Pt       5.62259124       0.00483545      26.91021293        1       0.00000000      -0.00759433      -0.00369242       0.00724228
Pt       1.40395375       2.43218612      26.92458354        1       0.00000000      -0.01548782      -0.00758874      -0.00372041
Pt       4.20969458       2.43084359      26.92458777        1       0.00000000       0.01460862      -0.00903692      -0.00368769
Pt       7.01808728       2.42165244      26.91019631        1       0.00000000       0.00090402       0.00849200       0.00723745
Pt       2.80799153       4.86136580      26.92454888        1       0.00000000       0.00078037       0.01742816      -0.00356498
Pt       5.57291420       4.83749021      26.91413882        1       0.00000000      -0.00478118      -0.00101952      -0.01112200
Pt       8.46384472       4.83871867      26.91414972        1       0.00000000       0.00339262      -0.00368037      -0.01113663
O        7.01804330       5.67298125      29.27798780        0       0.50000000       0.00010198       0.00228442       0.00557386
H        7.01801141       5.67225756      28.28334641        0       0.50000000      -0.00009321      -0.00178869      -0.00332323
