38
Lattice="8.421641763931781 0.0 0.0 4.2108208819658905 7.293355709136913 0.0 0.0 0.0 46.87624170604845" Properties=species:S:1:pos:R:3:tags:I:1:initial_magmoms:R:1:forces:R:3 charge=0 spin=0 energy=-194.69036242062413 free_energy=-194.69036242062413 stress="0.009590881876647472 -8.42715230930935e-09 2.0377542853111663e-07 -8.42715230930935e-09 0.009591036476194859 -3.08796437309411e-08 2.0377542853111663e-07 -3.08796437309411e-08 -0.00015931171947158873" pbc="T T T"
Pt      -0.00000011      -0.00000005      19.95723442        4       0.00000000      -0.00230166       0.00038163       0.01309280
Pt       2.80721395      -0.00000019      19.95723450        4       0.00000000      -0.00160378       0.00558405       0.01202316
Pt       5.61442786      -0.00000007      19.95723452        4       0.00000000       0.00149119       0.00177494       0.01311676
Pt       1.40360721       2.43111839      19.95723434        4       0.00000000       0.00566377       0.00377273      -0.00138435
Pt       4.21082082       2.43111837      19.95723444        4       0.00000000      -0.00607541       0.00305050      -0.00136584
Pt       7.01803481       2.43111844      19.95723433        4       0.00000000       0.00081194      -0.00214920       0.01307371
Pt       2.80721415       4.86223733      19.95723415        4       0.00000000       0.00040545      -0.00682454      -0.00135903
Pt       5.61442796       4.86223739      19.95723433        4       0.00000000      -0.00403018      -0.00418586       0.01199988
Pt       8.42164143       4.86223725      19.95723439        4       0.00000000       0.00563602      -0.00140453       0.01199458
Pt       1.40360728       0.81037261      22.29206792        3       0.00000000      -0.00787888      -0.00533581      -0.04147777
Pt       4.21082128       0.81037249      22.29206789        3       0.00000000       0.00901791      -0.00540596      -0.04359490
Pt       7.01803472       0.81037258      22.29206780        3       0.00000000      -0.00000081       0.00001600      -0.04670020
Pt       2.80721447       3.24149123      22.29206774        3       0.00000000      -0.00000962       0.00000331       0.07111428
Pt       5.61442762       3.24149120      22.29206786        3       0.00000000       0.00865616      -0.00414398      -0.04159800
Pt       8.42164156       3.24149131      22.29206806        3       0.00000000      -0.00918917      -0.00511396      -0.04369475
Pt       4.21082090       5.67260998      22.29206740        3       0.00000000       0.00017431       0.01052320      -0.04358499
Pt       7.01803486       5.67261041      22.29206774        3       0.00000000      -0.00000347      -0.00001667      -0.02845176
Pt       9.82524817       5.67261060      22.29206803        3       0.00000000      -0.00076482       0.00948108      -0.04156444
Pt      -0.00000054       1.62074568      24.58417374        2       0.00000000       0.00791264       0.00295863      -0.00969645
Pt       2.80721436       1.62074546      24.58417392        2       0.00000000      -0.00519143      -0.00874854       0.02079049
Pt       5.61442782       1.62074536      24.58417379        2       0.00000000      -0.00643455       0.00533700      -0.00976850
Pt       1.40360636       4.05186439      24.58417387        2       0.00000000      -0.00489742       0.00900751       0.02098128
Pt       4.21082089       4.05186396      24.58417387        2       0.00000000       0.01015625      -0.00009803       0.02114843
Pt       7.01803504       4.05186408      24.58417404        2       0.00000000       0.00290149       0.00692533       0.02090146
Pt       2.80721273       6.48298349      24.58417384        2       0.00000000      -0.00143409      -0.00851070      -0.00936385
Pt       5.61442806       6.48298330      24.58417399        2       0.00000000       0.00432278      -0.00603732       0.02105625
Pt       8.42164222       6.48298344      24.58417375        2       0.00000000      -0.00729222      -0.00084313       0.02094544
Pt      -0.00851797       0.00579683      26.91069059        1       0.00000000       0.00861071      -0.01176786       0.00758157
Pt       2.80590166       0.04888079      26.91034887        1       0.00000000       0.00639773       0.00019872       0.00932639
Pt       5.62370034       0.00445263      26.91069317        1       0.00000000      -0.01435293      -0.00158954       0.00760134
Pt       1.40224254       2.43088500      26.92094575        1       0.00000000      -0.00471245       0.00296334       0.01372876
Pt       4.21168392       2.43000251      26.92093706        1       0.00000000      -0.00002951      -0.00512120       0.01376710
Pt       7.01725972       2.42088288      26.91064061        1       0.00000000       0.00578167       0.01323398       0.00771957
Pt       2.80771008       4.86350259      26.92105198        1       0.00000000       0.00481851       0.00271703       0.01320813
Pt       5.57273415       4.83667342      26.91039394        1       0.00000000      -0.00342784       0.00529975       0.00914026
Pt       8.46466885       4.83895833      26.91036785        1       0.00000000      -0.00304835      -0.00591391       0.00901232
O        7.01796112       5.67261872      29.27388183        0       0.50000000      -0.00038709      -0.00001926      -0.02027484
H        7.01809146       5.67261470      28.27857704        0       0.50000000       0.00030702       0.00000124       0.02055550
