38
Lattice="8.421641763931781 0.0 0.0 4.2108208819658905 7.293355709136913 0.0 0.0 0.0 46.87624170604845" Properties=species:S:1:pos:R:3:tags:I:1:initial_magmoms:R:1:forces:R:3 charge=0 spin=0 energy=-194.69031664425694 free_energy=-194.69031664425694 stress="0.009629789739847183 4.487225453431165e-07 1.4354314998854534e-06 4.487225453431165e-07 0.009631299413740635 -2.210392494816915e-06 1.4354314998854534e-06 -2.210392494816915e-06 -0.00011032911424990743" pbc="T T T"
Pt      -0.00000011      -0.00000005      19.95723442        4       0.00000000      -0.00253439       0.00057426       0.01309165
Pt       2.80721395      -0.00000019      19.95723450        4       0.00000000      -0.00175989       0.00558214       0.01198705
Pt       5.61442786      -0.00000007      19.95723452        4       0.00000000       0.00177725       0.00186022       0.01312117
Pt       1.40360721       2.43111839      19.95723434        4       0.00000000       0.00566643       0.00371604      -0.00130386
Pt       4.21082082       2.43111837      19.95723444        4       0.00000000      -0.00604959       0.00310179      -0.00122750
Pt       7.01803481       2.43111844      19.95723433        4       0.00000000       0.00075637      -0.00244176       0.01309059
Pt       2.80721415       4.86223733      19.95723415        4       0.00000000       0.00035032      -0.00677987      -0.00133986
Pt       5.61442796       4.86223739      19.95723433        4       0.00000000      -0.00394926      -0.00431875       0.01196237
Pt       8.42164143       4.86223725      19.95723439        4       0.00000000       0.00571451      -0.00127173       0.01195376
Pt       1.40360728       0.81037261      22.29206792        3       0.00000000      -0.00773906      -0.00566378      -0.04130638
Pt       4.21082128       0.81037249      22.29206789        3       0.00000000       0.00883012      -0.00582844      -0.04451994
Pt       7.01803472       0.81037258      22.29206780        3       0.00000000       0.00000621       0.00000535      -0.04480701
Pt       2.80721447       3.24149123      22.29206774        3       0.00000000      -0.00001770       0.00001324       0.07223460
Pt       5.61442762       3.24149120      22.29206786        3       0.00000000       0.00887473      -0.00384403      -0.04141074
Pt       8.42164156       3.24149131      22.29206806        3       0.00000000      -0.00946242      -0.00475413      -0.04466198
Pt       4.21082090       5.67260998      22.29206740        3       0.00000000       0.00059330       0.01056097      -0.04455907
Pt       7.01803486       5.67261041      22.29206774        3       0.00000000      -0.00000336      -0.00001226      -0.03028109
Pt       9.82524817       5.67261060      22.29206803        3       0.00000000      -0.00109791       0.00951378      -0.04145316
Pt      -0.00000054       1.62074568      24.58417374        2       0.00000000       0.00677533       0.00020649       0.00151246
Pt       2.80721436       1.62074546      24.58417392        2       0.00000000      -0.00611746      -0.00264023       0.03290749
Pt       5.61442782       1.62074536      24.58417379        2       0.00000000      -0.00346125       0.00581140       0.00140377
Pt       1.40360636       4.05186439      24.58417387        2       0.00000000       0.00182269       0.00614199       0.03114969
Pt       4.21082089       4.05186396      24.58417387        2       0.00000000       0.00493030      -0.00441427       0.03210440
Pt       7.01803504       4.05186408      24.58417404        2       0.00000000       0.00198348       0.00188757       0.02449564
Pt       2.80721273       6.48298349      24.58417384        2       0.00000000      -0.00329500      -0.00604061       0.00164542
Pt       5.61442806       6.48298330      24.58417399        2       0.00000000       0.00062050      -0.00278878       0.02488917
Pt       8.42164222       6.48298344      24.58417375        2       0.00000000      -0.00288823       0.00135422       0.02471310
Pt      -0.00962861       0.00459835      26.91405890        1       0.00000000       0.01473391      -0.00482277      -0.00620147
Pt       2.80629020       0.04882625      26.90982839        1       0.00000000       0.00133917       0.00164906       0.01342331
Pt       5.62321651       0.00603766      26.91405537        1       0.00000000      -0.01156483      -0.01035356      -0.00616059
Pt       1.39938779       2.43003472      26.92342749        1       0.00000000       0.01874172       0.00839937      -0.00079542
Pt       4.21386546       2.42798929      26.92341777        1       0.00000000      -0.01665651       0.01202352      -0.00083115
Pt       7.01885823       2.42049271      26.91404799        1       0.00000000      -0.00323235       0.01521218      -0.00624585
Pt       2.80840394       4.86642966      26.92343846        1       0.00000000      -0.00209764      -0.02047939      -0.00074423
Pt       5.57253323       4.83703605      26.90967180        1       0.00000000      -0.00238333       0.00038879       0.01258635
Pt       8.46450242       4.83856130      26.90947783        1       0.00000000       0.00131738      -0.00229941       0.01151114
O        7.01752702       5.67336014      29.27486991        0       0.50000000      -0.00283543       0.00422161       0.01893125
H        7.01842343       5.67202992      28.28075216        0       0.50000000       0.00231156      -0.00347043      -0.02086504
