38
Lattice="8.421641763931781 0.0 0.0 4.2108208819658905 7.293355709136913 0.0 0.0 0.0 46.87624170604845" Properties=species:S:1:pos:R:3:tags:I:1:initial_magmoms:R:1:forces:R:3 charge=0 spin=0 energy=-194.69031855160557 free_energy=-194.69031855160557 stress="0.009629907086491585 4.334866048338881e-07 1.4009402775627677e-06 4.334866048338881e-07 0.009631420485675335 -2.2239746613195166e-06 1.4009402775627677e-06 -2.2239746613195166e-06 -0.00011068464664276689" pbc="T T T"
Pt      -0.00000011      -0.00000005      19.95723442        4       0.00000000      -0.00253438       0.00057462       0.01309205
Pt       2.80721395      -0.00000019      19.95723450        4       0.00000000      -0.00175964       0.00558126       0.01198769
Pt       5.61442786      -0.00000007      19.95723452        4       0.00000000       0.00177727       0.00186021       0.01312144
Pt       1.40360721       2.43111839      19.95723434        4       0.00000000       0.00566726       0.00371655      -0.00130216
Pt       4.21082082       2.43111837      19.95723444        4       0.00000000      -0.00604982       0.00310195      -0.00122724
Pt       7.01803481       2.43111844      19.95723433        4       0.00000000       0.00075621      -0.00244169       0.01309068
Pt       2.80721415       4.86223733      19.95723415        4       0.00000000       0.00035070      -0.00678042      -0.00133865
Pt       5.61442796       4.86223739      19.95723433        4       0.00000000      -0.00394867      -0.00431817       0.01196309
Pt       8.42164143       4.86223725      19.95723439        4       0.00000000       0.00571355      -0.00127153       0.01195393
Pt       1.40360728       0.81037261      22.29206792        3       0.00000000      -0.00773802      -0.00566570      -0.04130524
Pt       4.21082128       0.81037249      22.29206789        3       0.00000000       0.00882887      -0.00583006      -0.04451815
Pt       7.01803472       0.81037258      22.29206780        3       0.00000000       0.00000631       0.00000457      -0.04480428
Pt       2.80721447       3.24149123      22.29206774        3       0.00000000      -0.00001760       0.00001324       0.07222071
Pt       5.61442762       3.24149120      22.29206786        3       0.00000000       0.00887453      -0.00384408      -0.04141000
Pt       8.42164156       3.24149131      22.29206806        3       0.00000000      -0.00946294      -0.00475178      -0.04466037
Pt       4.21082090       5.67260998      22.29206740        3       0.00000000       0.00059526       0.01056072      -0.04455730
Pt       7.01803486       5.67261041      22.29206774        3       0.00000000      -0.00000385      -0.00001147      -0.03027658
Pt       9.82524817       5.67261060      22.29206803        3       0.00000000      -0.00109885       0.00951381      -0.04144963
Pt      -0.00000054       1.62074568      24.58417374        2       0.00000000       0.00677192       0.00020921       0.00149586
Pt       2.80721436       1.62074546      24.58417392        2       0.00000000      -0.00611975      -0.00261806       0.03285027
Pt       5.61442782       1.62074536      24.58417379        2       0.00000000      -0.00345932       0.00581213       0.00138923
Pt       1.40360636       4.05186439      24.58417387        2       0.00000000       0.00183430       0.00613049       0.03110015
Pt       4.21082089       4.05186396      24.58417387        2       0.00000000       0.00490829      -0.00442997       0.03204051
Pt       7.01803504       4.05186408      24.58417404        2       0.00000000       0.00199106       0.00190985       0.02453408
Pt       2.80721273       6.48298349      24.58417384        2       0.00000000      -0.00329562      -0.00603874       0.00163022
Pt       5.61442806       6.48298330      24.58417399        2       0.00000000       0.00064174      -0.00279787       0.02492490
Pt       8.42164222       6.48298344      24.58417375        2       0.00000000      -0.00290604       0.00134299       0.02475548
Pt      -0.00962759       0.00459890      26.91405561        1       0.00000000       0.01476201      -0.00484563      -0.00617184
Pt       2.80629046       0.04883820      26.90982980        1       0.00000000       0.00134593       0.00137672       0.01348349
Pt       5.62321644       0.00603719      26.91405314        1       0.00000000      -0.01160615      -0.01037470      -0.00614642
Pt       1.39938679       2.43003450      26.92342366        1       0.00000000       0.01873799       0.00839859      -0.00076622
Pt       4.21386605       2.42798914      26.92341445        1       0.00000000      -0.01665671       0.01202167      -0.00080288
Pt       7.01885777       2.42049348      26.91404529        1       0.00000000      -0.00322108       0.01524622      -0.00622458
Pt       2.80840326       4.86643066      26.92343506        1       0.00000000      -0.00209289      -0.02047563      -0.00071599
Pt       5.57252241       4.83702998      26.90967164        1       0.00000000      -0.00217038       0.00052298       0.01261735
Pt       8.46451250       4.83855546      26.90948092        1       0.00000000       0.00108372      -0.00215479       0.01157478
O        7.01753773       5.67335910      29.27498748        0       0.50000000      -0.00277304       0.00426184       0.02008383
H        7.01841561       5.67202952      28.28090902        0       0.50000000       0.00226798      -0.00350958      -0.02223234
