38
Lattice="8.421641763931781 0.0 0.0 4.2108208819658905 7.293355709136913 0.0 0.0 0.0 46.87624170604845" Properties=species:S:1:pos:R:3:tags:I:1:initial_magmoms:R:1:forces:R:3 charge=0 spin=0 energy=-194.69044634396397 free_energy=-194.69044634396397 stress="0.00961585808545351 -2.5261895686412572e-08 1.6302846006510663e-07 -2.5261895686412572e-08 0.009616571478545666 -1.0007747732743155e-06 1.6302846006510663e-07 -1.0007747732743155e-06 -0.0001316950801992789" pbc="T T T"
Pt      -0.00000011      -0.00000005      19.95723442        4       0.00000000      -0.00231619       0.00047245       0.01310639
Pt       2.80721395      -0.00000019      19.95723450        4       0.00000000      -0.00171515       0.00556757       0.01201805
Pt       5.61442786      -0.00000007      19.95723452        4       0.00000000       0.00157914       0.00173403       0.01312857
Pt       1.40360721       2.43111839      19.95723434        4       0.00000000       0.00569748       0.00374783      -0.00135025
Pt       4.21082082       2.43111837      19.95723444        4       0.00000000      -0.00606903       0.00309506      -0.00133352
Pt       7.01803481       2.43111844      19.95723433        4       0.00000000       0.00073360      -0.00220502       0.01309286
Pt       2.80721415       4.86223733      19.95723415        4       0.00000000       0.00036621      -0.00682532      -0.00136874
Pt       5.61442796       4.86223739      19.95723433        4       0.00000000      -0.00395939      -0.00427471       0.01199288
Pt       8.42164143       4.86223725      19.95723439        4       0.00000000       0.00567761      -0.00130009       0.01198678
Pt       1.40360728       0.81037261      22.29206792        3       0.00000000      -0.00809519      -0.00528691      -0.04116187
Pt       4.21082128       0.81037249      22.29206789        3       0.00000000       0.00907425      -0.00541149      -0.04422148
Pt       7.01803472       0.81037258      22.29206780        3       0.00000000       0.00000494       0.00000356      -0.04712086
Pt       2.80721447       3.24149123      22.29206774        3       0.00000000      -0.00001078       0.00001065       0.07144825
Pt       5.61442762       3.24149120      22.29206786        3       0.00000000       0.00871433      -0.00435607      -0.04127121
Pt       8.42164156       3.24149131      22.29206806        3       0.00000000      -0.00922597      -0.00515812      -0.04432814
Pt       4.21082090       5.67260998      22.29206740        3       0.00000000       0.00013534       0.01057392      -0.04425720
Pt       7.01803486       5.67261041      22.29206774        3       0.00000000      -0.00000830      -0.00000985      -0.02812925
Pt       9.82524817       5.67261060      22.29206803        3       0.00000000      -0.00059669       0.00963819      -0.04128040
Pt      -0.00000054       1.62074568      24.58417374        2       0.00000000       0.01096048       0.00300357      -0.00565687
Pt       2.80721436       1.62074546      24.58417392        2       0.00000000      -0.00583519      -0.00651550       0.03384038
Pt       5.61442782       1.62074536      24.58417379        2       0.00000000      -0.00801633       0.00800543      -0.00571299
Pt       1.40360636       4.05186439      24.58417387        2       0.00000000      -0.00233776       0.00819821       0.03316438
Pt       4.21082089       4.05186396      24.58417387        2       0.00000000       0.00826538      -0.00211701       0.03327689
Pt       7.01803504       4.05186408      24.58417404        2       0.00000000       0.00197271       0.00752114       0.02258089
Pt       2.80721273       6.48298349      24.58417384        2       0.00000000      -0.00295870      -0.01105399      -0.00550214
Pt       5.61442806       6.48298330      24.58417399        2       0.00000000       0.00552318      -0.00542077       0.02289506
Pt       8.42164222       6.48298344      24.58417375        2       0.00000000      -0.00752010      -0.00184431       0.02281739
Pt      -0.00890080       0.00442102      26.91072314        1       0.00000000       0.01047706      -0.00378373       0.00786486
Pt       2.80647268       0.04827760      26.91133648        1       0.00000000       0.00104489       0.00959043       0.00330345
Pt       5.62270838       0.00549703      26.91073193        1       0.00000000      -0.00853705      -0.00714390       0.00785267
Pt       1.40116102       2.43072863      26.92347767        1       0.00000000       0.00703887       0.00368057      -0.00025492
Pt       4.21236778       2.42919541      26.92348568        1       0.00000000      -0.00671603       0.00421130      -0.00027977
Pt       7.01863751       2.42120600      26.91070081        1       0.00000000      -0.00192040       0.01094836       0.00790469
Pt       2.80810489       4.86454318      26.92348843        1       0.00000000      -0.00031214      -0.00794680      -0.00023685
Pt       5.57295733       4.83743744      26.91121490        1       0.00000000      -0.00899853      -0.00387869       0.00280858
Pt       8.46388043       4.83873853      26.91119288        1       0.00000000       0.00794017      -0.00580269       0.00268519
O        7.01797947       5.67293991      29.27312858        0       0.50000000      -0.00034701       0.00188243       0.01769350
H        7.01807602       5.67235009      28.27873889        0       0.50000000       0.00029036      -0.00154965      -0.01199530
