38
Lattice="8.421641763931781 0.0 0.0 4.2108208819658905 7.293355709136913 0.0 0.0 0.0 46.87624170604845" Properties=species:S:1:pos:R:3:tags:I:1:initial_magmoms:R:1:forces:R:3 charge=0 spin=0 energy=-194.69038530880772 free_energy=-194.69038530880772 stress="0.00964474119246006 -1.2156851880718023e-07 -5.823801529913908e-08 -1.2156851880718023e-07 0.00964556448161602 -1.250528839591425e-06 -5.823801529913908e-08 -1.250528839591425e-06 -7.966056000441313e-05" pbc="T T T"
Pt      -0.00000011      -0.00000005      19.95723442        4       0.00000000      -0.00204771       0.00034312       0.01315295
Pt       2.80721395      -0.00000019      19.95723450        4       0.00000000      -0.00165235       0.00555892       0.01213345
Pt       5.61442786      -0.00000007      19.95723452        4       0.00000000       0.00132892       0.00156933       0.01317314
Pt       1.40360721       2.43111839      19.95723434        4       0.00000000       0.00570417       0.00377098      -0.00134137
Pt       4.21082082       2.43111837      19.95723444        4       0.00000000      -0.00608956       0.00308309      -0.00133562
Pt       7.01803481       2.43111844      19.95723433        4       0.00000000       0.00071195      -0.00190498       0.01314186
Pt       2.80721415       4.86223733      19.95723415        4       0.00000000       0.00038666      -0.00683985      -0.00137385
Pt       5.61442796       4.86223739      19.95723433        4       0.00000000      -0.00398292      -0.00421765       0.01210872
Pt       8.42164143       4.86223725      19.95723439        4       0.00000000       0.00563745      -0.00135350       0.01210296
Pt       1.40360728       0.81037261      22.29206792        3       0.00000000      -0.00829246      -0.00506107      -0.04097288
Pt       4.21082128       0.81037249      22.29206789        3       0.00000000       0.00922775      -0.00515207      -0.04371489
Pt       7.01803472       0.81037258      22.29206780        3       0.00000000       0.00000534      -0.00000529      -0.04967522
Pt       2.80721447       3.24149123      22.29206774        3       0.00000000      -0.00000842       0.00001065       0.06969559
Pt       5.61442762       3.24149120      22.29206786        3       0.00000000       0.00860489      -0.00464449      -0.04106844
Pt       8.42164156       3.24149131      22.29206806        3       0.00000000      -0.00907170      -0.00542370      -0.04380823
Pt       4.21082090       5.67260998      22.29206740        3       0.00000000      -0.00017642       0.01057789      -0.04379348
Pt       7.01803486       5.67261041      22.29206774        3       0.00000000      -0.00001057      -0.00001019      -0.02667608
Pt       9.82524817       5.67261060      22.29206803        3       0.00000000      -0.00029101       0.00969131      -0.04112140
Pt      -0.00000054       1.62074568      24.58417374        2       0.00000000       0.01346144       0.00523013      -0.00014700
Pt       2.80721436       1.62074546      24.58417392        2       0.00000000      -0.00561450      -0.01149824       0.03822601
Pt       5.61442782       1.62074536      24.58417379        2       0.00000000      -0.01113782       0.00913253      -0.00021965
Pt       1.40360636       4.05186439      24.58417387        2       0.00000000      -0.00682478       0.01044879       0.03761156
Pt       4.21082089       4.05186396      24.58417387        2       0.00000000       0.01241424       0.00048453       0.03753797
Pt       7.01803504       4.05186408      24.58417404        2       0.00000000       0.00203636       0.01167886       0.03177031
Pt       2.80721273       6.48298349      24.58417384        2       0.00000000      -0.00232670      -0.01428924       0.00007059
Pt       5.61442806       6.48298330      24.58417399        2       0.00000000       0.00917654      -0.00748745       0.03206739
Pt       8.42164222       6.48298344      24.58417375        2       0.00000000      -0.01116702      -0.00390704       0.03202451
Pt      -0.00822133       0.00470226      26.91019937        1       0.00000000       0.00671000      -0.00509323       0.00726885
Pt       2.80653284       0.04834231      26.91431843        1       0.00000000       0.00146383       0.00391035      -0.01034569
Pt       5.62259168       0.00483556      26.91021274        1       0.00000000      -0.00759615      -0.00369896       0.00724334
Pt       1.40395453       2.43218652      26.92458387        1       0.00000000      -0.01548736      -0.00759528      -0.00371931
Pt       4.20969409       2.43084392      26.92458802        1       0.00000000       0.01461101      -0.00903830      -0.00368693
Pt       7.01808734       2.42165160      26.91019630        1       0.00000000       0.00090182       0.00850253       0.00723550
Pt       2.80799150       4.86136558      26.92454920        1       0.00000000       0.00078258       0.01743037      -0.00355887
Pt       5.57291370       4.83748967      26.91413947        1       0.00000000      -0.00478354      -0.00101876      -0.01112601
Pt       8.46384523       4.83871858      26.91414948        1       0.00000000       0.00338794      -0.00367642      -0.01113729
O        7.01804286       5.67298140      29.27798414        0       0.50000000       0.00011260       0.00228618       0.00558370
H        7.01801187       5.67225738      28.28334245        0       0.50000000      -0.00010424      -0.00179393      -0.00332607
