38
Lattice="8.421641763931781 0.0 0.0 4.2108208819658905 7.293355709136913 0.0 0.0 0.0 46.87624170604845" Properties=species:S:1:pos:R:3:tags:I:1:initial_magmoms:R:1:forces:R:3 charge=0 spin=0 energy=-194.69038912350499 free_energy=-194.69038912350499 stress="0.009644711390137672 -1.2658334469506372e-07 -6.411322317489976e-08 -1.2658334469506372e-07 0.009645547717809677 -1.2570271792355925e-06 -6.411322317489976e-08 -1.2570271792355925e-06 -7.973458559717983e-05" pbc="T T T"
Pt      -0.00000011      -0.00000005      19.95723442        4       0.00000000      -0.00204775       0.00034317       0.01315293
Pt       2.80721395      -0.00000019      19.95723450        4       0.00000000      -0.00165236       0.00555890       0.01213339
Pt       5.61442786      -0.00000007      19.95723452        4       0.00000000       0.00132887       0.00156934       0.01317312
Pt       1.40360721       2.43111839      19.95723434        4       0.00000000       0.00570420       0.00377117      -0.00134081
Pt       4.21082082       2.43111837      19.95723444        4       0.00000000      -0.00608948       0.00308292      -0.00133575
Pt       7.01803481       2.43111844      19.95723433        4       0.00000000       0.00071172      -0.00190493       0.01314180
Pt       2.80721415       4.86223733      19.95723415        4       0.00000000       0.00038659      -0.00683960      -0.00137391
Pt       5.61442796       4.86223739      19.95723433        4       0.00000000      -0.00398282      -0.00421763       0.01210855
Pt       8.42164143       4.86223725      19.95723439        4       0.00000000       0.00563740      -0.00135356       0.01210268
Pt       1.40360728       0.81037261      22.29206792        3       0.00000000      -0.00829268      -0.00506153      -0.04097306
Pt       4.21082128       0.81037249      22.29206789        3       0.00000000       0.00922786      -0.00515170      -0.04371506
Pt       7.01803472       0.81037258      22.29206780        3       0.00000000       0.00000583      -0.00000537      -0.04967541
Pt       2.80721447       3.24149123      22.29206774        3       0.00000000      -0.00000831       0.00001072       0.06969617
Pt       5.61442762       3.24149120      22.29206786        3       0.00000000       0.00860496      -0.00464466      -0.04106800
Pt       8.42164156       3.24149131      22.29206806        3       0.00000000      -0.00907145      -0.00542428      -0.04380846
Pt       4.21082090       5.67260998      22.29206740        3       0.00000000      -0.00017659       0.01057818      -0.04379350
Pt       7.01803486       5.67261041      22.29206774        3       0.00000000      -0.00001084      -0.00000998      -0.02667639
Pt       9.82524817       5.67261060      22.29206803        3       0.00000000      -0.00029049       0.00969136      -0.04112235
Pt      -0.00000054       1.62074568      24.58417374        2       0.00000000       0.01346112       0.00523135      -0.00014984
Pt       2.80721436       1.62074546      24.58417392        2       0.00000000      -0.00561200      -0.01149878       0.03822789
Pt       5.61442782       1.62074536      24.58417379        2       0.00000000      -0.01113745       0.00913257      -0.00022018
Pt       1.40360636       4.05186439      24.58417387        2       0.00000000      -0.00682289       0.01044739       0.03760686
Pt       4.21082089       4.05186396      24.58417387        2       0.00000000       0.01240874       0.00048214       0.03752827
Pt       7.01803504       4.05186408      24.58417404        2       0.00000000       0.00203555       0.01167698       0.03176556
Pt       2.80721273       6.48298349      24.58417384        2       0.00000000      -0.00232931      -0.01428935       0.00006785
Pt       5.61442806       6.48298330      24.58417399        2       0.00000000       0.00917837      -0.00748670       0.03206095
Pt       8.42164222       6.48298344      24.58417375        2       0.00000000      -0.01116747      -0.00390427       0.03202116
Pt      -0.00822008       0.00470201      26.91019881        1       0.00000000       0.00670710      -0.00509128       0.00727579
Pt       2.80653253       0.04834105      26.91431827        1       0.00000000       0.00146730       0.00392217      -0.01034745
Pt       5.62259133       0.00483526      26.91021302        1       0.00000000      -0.00759558      -0.00369642       0.00724228
Pt       1.40395388       2.43218631      26.92458355        1       0.00000000      -0.01548528      -0.00759478      -0.00372016
Pt       4.20969460       2.43084382      26.92458807        1       0.00000000       0.01460822      -0.00904011      -0.00368631
Pt       7.01808718       2.42165236      26.91019658        1       0.00000000       0.00089915       0.00850044       0.00723448
Pt       2.80799120       4.86136594      26.92454851        1       0.00000000       0.00078200       0.01742919      -0.00355790
Pt       5.57291359       4.83749007      26.91413740        1       0.00000000      -0.00479025      -0.00102523      -0.01113163
Pt       8.46384445       4.83871906      26.91414865        1       0.00000000       0.00339633      -0.00368287      -0.01113010
O        7.01804738       5.67298424      29.27798363        0       0.50000000       0.00012463       0.00229540       0.00567666
H        7.01800834       5.67225500      28.28334331        0       0.50000000      -0.00011290      -0.00180024      -0.00339011
