38
Lattice="8.421641763931781 0.0 0.0 4.2108208819658905 7.293355709136913 0.0 0.0 0.0 46.87624170604845" Properties=species:S:1:pos:R:3:tags:I:1:initial_magmoms:R:1:forces:R:3 charge=0 spin=0 energy=-194.6903147369083 free_energy=-194.6903147369083 stress="0.00962966587394476 4.3115437620144803e-07 1.401797362632351e-06 4.3115437620144803e-07 0.009631166234612465 -2.2149474716570694e-06 1.401797362632351e-06 -2.2149474716570694e-06 -0.0001096112173399888" pbc="T T T"
Pt      -0.00000011      -0.00000005      19.95723442        4       0.00000000      -0.00253435       0.00057361       0.01309203
Pt       2.80721395      -0.00000019      19.95723450        4       0.00000000      -0.00176006       0.00558332       0.01198667
Pt       5.61442786      -0.00000007      19.95723452        4       0.00000000       0.00177671       0.00186056       0.01312159
Pt       1.40360721       2.43111839      19.95723434        4       0.00000000       0.00566562       0.00371502      -0.00130453
Pt       4.21082082       2.43111837      19.95723444        4       0.00000000      -0.00604745       0.00310117      -0.00122951
Pt       7.01803481       2.43111844      19.95723433        4       0.00000000       0.00075680      -0.00244127       0.01309074
Pt       2.80721415       4.86223733      19.95723415        4       0.00000000       0.00035009      -0.00677805      -0.00134126
Pt       5.61442796       4.86223739      19.95723433        4       0.00000000      -0.00395017      -0.00431975       0.01196171
Pt       8.42164143       4.86223725      19.95723439        4       0.00000000       0.00571557      -0.00127233       0.01195300
Pt       1.40360728       0.81037261      22.29206792        3       0.00000000      -0.00773864      -0.00566182      -0.04130571
Pt       4.21082128       0.81037249      22.29206789        3       0.00000000       0.00883146      -0.00582515      -0.04452073
Pt       7.01803472       0.81037258      22.29206780        3       0.00000000       0.00000602       0.00000499      -0.04480711
Pt       2.80721447       3.24149123      22.29206774        3       0.00000000      -0.00001754       0.00001321       0.07224260
Pt       5.61442762       3.24149120      22.29206786        3       0.00000000       0.00887184      -0.00384470      -0.04141208
Pt       8.42164156       3.24149131      22.29206806        3       0.00000000      -0.00946065      -0.00475611      -0.04466330
Pt       4.21082090       5.67260998      22.29206740        3       0.00000000       0.00059014       0.01056095      -0.04456070
Pt       7.01803486       5.67261041      22.29206774        3       0.00000000      -0.00000389      -0.00001158      -0.03028632
Pt       9.82524817       5.67261060      22.29206803        3       0.00000000      -0.00109613       0.00951212      -0.04145198
Pt      -0.00000054       1.62074568      24.58417374        2       0.00000000       0.00676756       0.00020514       0.00153252
Pt       2.80721436       1.62074546      24.58417392        2       0.00000000      -0.00611824      -0.00268786       0.03299220
Pt       5.61442782       1.62074536      24.58417379        2       0.00000000      -0.00345801       0.00580462       0.00143169
Pt       1.40360636       4.05186439      24.58417387        2       0.00000000       0.00177385       0.00617083       0.03123822
Pt       4.21082089       4.05186396      24.58417387        2       0.00000000       0.00497047      -0.00439799       0.03218122
Pt       7.01803504       4.05186408      24.58417404        2       0.00000000       0.00198448       0.00185079       0.02443918
Pt       2.80721273       6.48298349      24.58417384        2       0.00000000      -0.00329394      -0.00603261       0.00167063
Pt       5.61442806       6.48298330      24.58417399        2       0.00000000       0.00059014      -0.00276481       0.02483384
Pt       8.42164222       6.48298344      24.58417375        2       0.00000000      -0.00285174       0.00137021       0.02466193
Pt      -0.00962959       0.00459856      26.91406402        1       0.00000000       0.01468169      -0.00479522      -0.00624508
Pt       2.80629034       0.04879743      26.90982963        1       0.00000000       0.00133460       0.00211066       0.01333077
Pt       5.62321707       0.00603873      26.91406183        1       0.00000000      -0.01151542      -0.01032045      -0.00621324
Pt       1.39938802       2.43003611      26.92342644        1       0.00000000       0.01875239       0.00839425      -0.00081344
Pt       4.21386432       2.42798961      26.92341712        1       0.00000000      -0.01666091       0.01202613      -0.00085780
Pt       7.01885928       2.42049203      26.91405362        1       0.00000000      -0.00323567       0.01514308      -0.00628414
Pt       2.80840279       4.86642861      26.92343804        1       0.00000000      -0.00208648      -0.02048142      -0.00076211
Pt       5.57255792       4.83705004      26.90967098        1       0.00000000      -0.00279473       0.00014976       0.01247147
Pt       8.46447782       4.83857601      26.90948119        1       0.00000000       0.00171405      -0.00251478       0.01142571
O        7.01753874       5.67335959      29.27471192        0       0.50000000      -0.00277568       0.00423191       0.01672175
H        7.01841511       5.67202937      28.28052283        0       0.50000000       0.00226615      -0.00347659      -0.01832018
