38
Lattice="8.421641763931781 0.0 0.0 4.2108208819658905 7.293355709136913 0.0 0.0 0.0 46.87624170604845" Properties=species:S:1:pos:R:3:tags:I:1:initial_magmoms:R:1:forces:R:3 charge=0 spin=0 energy=-194.6903204589542 free_energy=-194.6903204589542 stress="0.009629261679947376 4.424262840529991e-07 1.413740847056033e-06 4.424262840529991e-07 0.009630784392356873 -2.224444187959307e-06 1.413740847056033e-06 -2.224444187959307e-06 -0.00010844551434274763" pbc="T T T"
Pt      -0.00000011      -0.00000005      19.95723442        4       0.00000000      -0.00253418       0.00057260       0.01309252
Pt       2.80721395      -0.00000019      19.95723450        4       0.00000000      -0.00176071       0.00558606       0.01198504
Pt       5.61442786      -0.00000007      19.95723452        4       0.00000000       0.00177554       0.00186082       0.01312189
Pt       1.40360721       2.43111839      19.95723434        4       0.00000000       0.00566338       0.00371287      -0.00130767
Pt       4.21082082       2.43111837      19.95723444        4       0.00000000      -0.00604512       0.00310051      -0.00123252
Pt       7.01803481       2.43111844      19.95723433        4       0.00000000       0.00075738      -0.00244061       0.01309129
Pt       2.80721415       4.86223733      19.95723415        4       0.00000000       0.00034931      -0.00677502      -0.00134510
Pt       5.61442796       4.86223739      19.95723433        4       0.00000000      -0.00395255      -0.00432147       0.01196031
Pt       8.42164143       4.86223725      19.95723439        4       0.00000000       0.00571832      -0.00127298       0.01195175
Pt       1.40360728       0.81037261      22.29206792        3       0.00000000      -0.00774072      -0.00565722      -0.04131015
Pt       4.21082128       0.81037249      22.29206789        3       0.00000000       0.00883670      -0.00581972      -0.04452741
Pt       7.01803472       0.81037258      22.29206780        3       0.00000000       0.00000609       0.00000485      -0.04481560
Pt       2.80721447       3.24149123      22.29206774        3       0.00000000      -0.00001808       0.00001380       0.07227935
Pt       5.61442762       3.24149120      22.29206786        3       0.00000000       0.00887033      -0.00384866      -0.04141660
Pt       8.42164156       3.24149131      22.29206806        3       0.00000000      -0.00945829      -0.00476373      -0.04466865
Pt       4.21082090       5.67260998      22.29206740        3       0.00000000       0.00058211       0.01056260      -0.04456610
Pt       7.01803486       5.67261041      22.29206774        3       0.00000000      -0.00000350      -0.00001228      -0.03029778
Pt       9.82524817       5.67261060      22.29206803        3       0.00000000      -0.00109131       0.00951167      -0.04145720
Pt      -0.00000054       1.62074568      24.58417374        2       0.00000000       0.00677206       0.00020907       0.00158980
Pt       2.80721436       1.62074546      24.58417392        2       0.00000000      -0.00612179      -0.00276904       0.03318017
Pt       5.61442782       1.62074536      24.58417379        2       0.00000000      -0.00345996       0.00580624       0.00148429
Pt       1.40360636       4.05186439      24.58417387        2       0.00000000       0.00171274       0.00620963       0.03141518
Pt       4.21082089       4.05186396      24.58417387        2       0.00000000       0.00503709      -0.00435802       0.03236170
Pt       7.01803504       4.05186408      24.58417404        2       0.00000000       0.00197731       0.00177592       0.02432434
Pt       2.80721273       6.48298349      24.58417384        2       0.00000000      -0.00329020      -0.00603987       0.00172310
Pt       5.61442806       6.48298330      24.58417399        2       0.00000000       0.00052831      -0.00272449       0.02471580
Pt       8.42164222       6.48298344      24.58417375        2       0.00000000      -0.00278774       0.00140365       0.02453998
Pt      -0.00963242       0.00459822      26.91407338        1       0.00000000       0.01459451      -0.00473237      -0.00633357
Pt       2.80628972       0.04874892      26.90982895        1       0.00000000       0.00132859       0.00305972       0.01311792
Pt       5.62321821       0.00604120      26.91407099        1       0.00000000      -0.01141547      -0.01026678      -0.00628872
Pt       1.39939224       2.43003838      26.92343797        1       0.00000000       0.01874536       0.00839061      -0.00090536
Pt       4.21385992       2.42799183      26.92342813        1       0.00000000      -0.01665332       0.01202430      -0.00093901
Pt       7.01886078       2.42048967      26.91406295        1       0.00000000      -0.00324502       0.01503451      -0.00637163
Pt       2.80840338       4.86642369      26.92344845        1       0.00000000      -0.00209242      -0.02047721      -0.00085292
Pt       5.57259923       4.83707394      26.90966898        1       0.00000000      -0.00360280      -0.00033462       0.01225183
Pt       8.46443711       4.83859994      26.90947643        1       0.00000000       0.00253683      -0.00299034       0.01119195
O        7.01753275       5.67336808      29.27433151        0       0.50000000      -0.00278835       0.00423377       0.01284577
H        7.01841972       5.67202265      28.28001218        0       0.50000000       0.00226916      -0.00346875      -0.01358813
