38
Lattice="8.421641763931781 0.0 0.0 4.2108208819658905 7.293355709136913 0.0 0.0 0.0 46.87624170604845" Properties=species:S:1:pos:R:3:tags:I:1:initial_magmoms:R:1:forces:R:3 charge=0 spin=0 energy=-194.69036242062413 free_energy=-194.69036242062413 stress="0.009590827859938145 -3.158484807030959e-09 2.1316228071555088e-07 -3.158484807030959e-09 0.00959098245948553 -2.8111996286384056e-08 2.1316228071555088e-07 -2.8111996286384056e-08 -0.00015932675160001963" pbc="T T T"
Pt      -0.00000011      -0.00000005      19.95723442        4       0.00000000      -0.00230184       0.00038135       0.01309286
Pt       2.80721395      -0.00000019      19.95723450        4       0.00000000      -0.00160403       0.00558426       0.01202331
Pt       5.61442786      -0.00000007      19.95723452        4       0.00000000       0.00149126       0.00177503       0.01311697
Pt       1.40360721       2.43111839      19.95723434        4       0.00000000       0.00566415       0.00377290      -0.00138481
Pt       4.21082082       2.43111837      19.95723444        4       0.00000000      -0.00607574       0.00305076      -0.00136590
Pt       7.01803481       2.43111844      19.95723433        4       0.00000000       0.00081211      -0.00214926       0.01307407
Pt       2.80721415       4.86223733      19.95723415        4       0.00000000       0.00040560      -0.00682487      -0.00135958
Pt       5.61442796       4.86223739      19.95723433        4       0.00000000      -0.00403051      -0.00418603       0.01199997
Pt       8.42164143       4.86223725      19.95723439        4       0.00000000       0.00563649      -0.00140471       0.01199467
Pt       1.40360728       0.81037261      22.29206792        3       0.00000000      -0.00787927      -0.00533594      -0.04147905
Pt       4.21082128       0.81037249      22.29206789        3       0.00000000       0.00901848      -0.00540587      -0.04359568
Pt       7.01803472       0.81037258      22.29206780        3       0.00000000      -0.00000043       0.00001600      -0.04670084
Pt       2.80721447       3.24149123      22.29206774        3       0.00000000      -0.00000960       0.00000336       0.07112078
Pt       5.61442762       3.24149120      22.29206786        3       0.00000000       0.00865671      -0.00414377      -0.04159914
Pt       8.42164156       3.24149131      22.29206806        3       0.00000000      -0.00918957      -0.00511453      -0.04369629
Pt       4.21082090       5.67260998      22.29206740        3       0.00000000       0.00017393       0.01052360      -0.04358706
Pt       7.01803486       5.67261041      22.29206774        3       0.00000000      -0.00000377      -0.00001649      -0.02844971
Pt       9.82524817       5.67261060      22.29206803        3       0.00000000      -0.00076486       0.00948140      -0.04156552
Pt      -0.00000054       1.62074568      24.58417374        2       0.00000000       0.00791093       0.00295830      -0.00970222
Pt       2.80721436       1.62074546      24.58417392        2       0.00000000      -0.00518592      -0.00875797       0.02080182
Pt       5.61442782       1.62074536      24.58417379        2       0.00000000      -0.00643737       0.00533731      -0.00976856
Pt       1.40360636       4.05186439      24.58417387        2       0.00000000      -0.00490437       0.00901594       0.02098943
Pt       4.21082089       4.05186396      24.58417387        2       0.00000000       0.01016295      -0.00009736       0.02115802
Pt       7.01803504       4.05186408      24.58417404        2       0.00000000       0.00290160       0.00692568       0.02090475
Pt       2.80721273       6.48298349      24.58417384        2       0.00000000      -0.00143524      -0.00851172      -0.00936906
Pt       5.61442806       6.48298330      24.58417399        2       0.00000000       0.00432390      -0.00603598       0.02105728
Pt       8.42164222       6.48298344      24.58417375        2       0.00000000      -0.00729364      -0.00084406       0.02094918
Pt      -0.00851918       0.00579750      26.91069011        1       0.00000000       0.00862421      -0.01177119       0.00757763
Pt       2.80590134       0.04888268      26.91035090        1       0.00000000       0.00639707       0.00023950       0.00929077
Pt       5.62370111       0.00445330      26.91069218        1       0.00000000      -0.01436105      -0.00158705       0.00760134
Pt       1.40224278       2.43088515      26.92094450        1       0.00000000      -0.00471684       0.00296373       0.01374048
Pt       4.21168381       2.43000243      26.92093758        1       0.00000000      -0.00002761      -0.00512447       0.01376029
Pt       7.01725956       2.42088142      26.91063982        1       0.00000000       0.00577863       0.01324304       0.00771788
Pt       2.80771029       4.86350246      26.92105142        1       0.00000000       0.00481711       0.00271545       0.01321110
Pt       5.57273236       4.83667284      26.91039541        1       0.00000000      -0.00345156       0.00527866       0.00912440
Pt       8.46467072       4.83895727      26.91036911        1       0.00000000      -0.00301518      -0.00593854       0.00897044
O        7.01795925       5.67261952      29.27384272        0       0.50000000      -0.00040754      -0.00003220      -0.02026441
H        7.01809350       5.67261408      28.27853583        0       0.50000000       0.00032077       0.00001585       0.02061029
