38
Lattice="8.421641763931781 0.0 0.0 4.2108208819658905 7.293355709136913 0.0 0.0 0.0 46.87624170604845" Properties=species:S:1:pos:R:3:tags:I:1:initial_magmoms:R:1:forces:R:3 charge=0 spin=0 energy=-194.6904482513126 free_energy=-194.6904482513126 stress="0.009615825489163399 -4.310765433501729e-08 1.0473798539578638e-07 -4.310765433501729e-08 0.009616535156965256 -9.947998478310183e-07 1.0473798539578638e-07 -9.947998478310183e-07 -0.00013173144543543458" pbc="T T T"
Pt      -0.00000011      -0.00000005      19.95723442        4       0.00000000      -0.00231638       0.00047246       0.01310652
Pt       2.80721395      -0.00000019      19.95723450        4       0.00000000      -0.00171489       0.00556781       0.01201810
Pt       5.61442786      -0.00000007      19.95723452        4       0.00000000       0.00157893       0.00173419       0.01312863
Pt       1.40360721       2.43111839      19.95723434        4       0.00000000       0.00569789       0.00374801      -0.00134904
Pt       4.21082082       2.43111837      19.95723444        4       0.00000000      -0.00606869       0.00309502      -0.00133454
Pt       7.01803481       2.43111844      19.95723433        4       0.00000000       0.00073352      -0.00220489       0.01309290
Pt       2.80721415       4.86223733      19.95723415        4       0.00000000       0.00036637      -0.00682541      -0.00136883
Pt       5.61442796       4.86223739      19.95723433        4       0.00000000      -0.00395944      -0.00427481       0.01199282
Pt       8.42164143       4.86223725      19.95723439        4       0.00000000       0.00567750      -0.00129998       0.01198678
Pt       1.40360728       0.81037261      22.29206792        3       0.00000000      -0.00809534      -0.00528691      -0.04116323
Pt       4.21082128       0.81037249      22.29206789        3       0.00000000       0.00907466      -0.00541165      -0.04422192
Pt       7.01803472       0.81037258      22.29206780        3       0.00000000       0.00000479       0.00000300      -0.04712088
Pt       2.80721447       3.24149123      22.29206774        3       0.00000000      -0.00001059       0.00001076       0.07144982
Pt       5.61442762       3.24149120      22.29206786        3       0.00000000       0.00871438      -0.00435699      -0.04127113
Pt       8.42164156       3.24149131      22.29206806        3       0.00000000      -0.00922600      -0.00515836      -0.04432802
Pt       4.21082090       5.67260998      22.29206740        3       0.00000000       0.00013527       0.01057423      -0.04425909
Pt       7.01803486       5.67261041      22.29206774        3       0.00000000      -0.00000788      -0.00001005      -0.02812837
Pt       9.82524817       5.67261060      22.29206803        3       0.00000000      -0.00059693       0.00963810      -0.04128118
Pt      -0.00000054       1.62074568      24.58417374        2       0.00000000       0.01096291       0.00300373      -0.00565981
Pt       2.80721436       1.62074546      24.58417392        2       0.00000000      -0.00583830      -0.00651609       0.03383788
Pt       5.61442782       1.62074536      24.58417379        2       0.00000000      -0.00801454       0.00800520      -0.00571399
Pt       1.40360636       4.05186439      24.58417387        2       0.00000000      -0.00235130       0.00820287       0.03317652
Pt       4.21082089       4.05186396      24.58417387        2       0.00000000       0.00825453      -0.00212152       0.03325494
Pt       7.01803504       4.05186408      24.58417404        2       0.00000000       0.00198259       0.00752165       0.02258618
Pt       2.80721273       6.48298349      24.58417384        2       0.00000000      -0.00295782      -0.01104982      -0.00550535
Pt       5.61442806       6.48298330      24.58417399        2       0.00000000       0.00552582      -0.00541917       0.02289327
Pt       8.42164222       6.48298344      24.58417375        2       0.00000000      -0.00751988      -0.00185046       0.02282453
Pt      -0.00890068       0.00442147      26.91072321        1       0.00000000       0.01047956      -0.00379209       0.00786136
Pt       2.80647296       0.04827914      26.91133595        1       0.00000000       0.00106133       0.00959688       0.00328282
Pt       5.62270843       0.00549738      26.91073183        1       0.00000000      -0.00853800      -0.00714591       0.00785233
Pt       1.40116137       2.43072820      26.92347716        1       0.00000000       0.00703273       0.00368371      -0.00025651
Pt       4.21236789       2.42919508      26.92348563        1       0.00000000      -0.00671587       0.00420984      -0.00027343
Pt       7.01863737       2.42120560      26.91070196        1       0.00000000      -0.00192269       0.01096060       0.00790068
Pt       2.80810520       4.86454327      26.92348752        1       0.00000000      -0.00031321      -0.00794586      -0.00022267
Pt       5.57295490       4.83743585      26.91121113        1       0.00000000      -0.00899731      -0.00388971       0.00278205
Pt       8.46388104       4.83873824      26.91119496        1       0.00000000       0.00792820      -0.00579550       0.00269403
O        7.01799435       5.67293978      29.27311900        0       0.50000000      -0.00021178       0.00186144       0.01773244
H        7.01806476       5.67235076      28.27872782        0       0.50000000       0.00016612      -0.00153418      -0.01199713
