38
Lattice="8.421641763931781 0.0 0.0 4.2108208819658905 7.293355709136913 0.0 0.0 0.0 46.87624170604845" Properties=species:S:1:pos:R:3:tags:I:1:initial_magmoms:R:1:forces:R:3 charge=0 spin=0 energy=-194.69031855160557 free_energy=-194.69031855160557 stress="0.009629197418689728 4.3274877725707483e-07 1.4081080053074402e-06 4.3274877725707483e-07 0.009630660526454449 -2.1427783849503612e-06 1.4081080053074402e-06 -2.1427783849503612e-06 -0.00010815229325089604" pbc="T T T"
Pt      -0.00000011      -0.00000005      19.95723442        4       0.00000000      -0.00253375       0.00057257       0.01309284
Pt       2.80721395      -0.00000019      19.95723450        4       0.00000000      -0.00176096       0.00558755       0.01198485
Pt       5.61442786      -0.00000007      19.95723452        4       0.00000000       0.00177516       0.00186127       0.01312219
Pt       1.40360721       2.43111839      19.95723434        4       0.00000000       0.00566315       0.00371259      -0.00130954
Pt       4.21082082       2.43111837      19.95723444        4       0.00000000      -0.00604423       0.00310006      -0.00123511
Pt       7.01803481       2.43111844      19.95723433        4       0.00000000       0.00075773      -0.00244048       0.01309085
Pt       2.80721415       4.86223733      19.95723415        4       0.00000000       0.00034946      -0.00677602      -0.00134359
Pt       5.61442796       4.86223739      19.95723433        4       0.00000000      -0.00395311      -0.00432222       0.01195976
Pt       8.42164143       4.86223725      19.95723439        4       0.00000000       0.00571923      -0.00127335       0.01195139
Pt       1.40360728       0.81037261      22.29206792        3       0.00000000      -0.00774072      -0.00565758      -0.04131242
Pt       4.21082128       0.81037249      22.29206789        3       0.00000000       0.00883864      -0.00581857      -0.04453038
Pt       7.01803472       0.81037258      22.29206780        3       0.00000000       0.00000571       0.00000513      -0.04481857
Pt       2.80721447       3.24149123      22.29206774        3       0.00000000      -0.00001735       0.00001275       0.07229270
Pt       5.61442762       3.24149120      22.29206786        3       0.00000000       0.00886965      -0.00384976      -0.04141773
Pt       8.42164156       3.24149131      22.29206806        3       0.00000000      -0.00945777      -0.00476621      -0.04467018
Pt       4.21082090       5.67260998      22.29206740        3       0.00000000       0.00058139       0.01056338      -0.04456758
Pt       7.01803486       5.67261041      22.29206774        3       0.00000000      -0.00000395      -0.00001192      -0.03030034
Pt       9.82524817       5.67261060      22.29206803        3       0.00000000      -0.00109171       0.00951224      -0.04145743
Pt      -0.00000054       1.62074568      24.58417374        2       0.00000000       0.00677140       0.00021366       0.00160892
Pt       2.80721436       1.62074546      24.58417392        2       0.00000000      -0.00611984      -0.00276345       0.03319279
Pt       5.61442782       1.62074536      24.58417379        2       0.00000000      -0.00346601       0.00581064       0.00150160
Pt       1.40360636       4.05186439      24.58417387        2       0.00000000       0.00168452       0.00622865       0.03148719
Pt       4.21082089       4.05186396      24.58417387        2       0.00000000       0.00506019      -0.00434801       0.03242209
Pt       7.01803504       4.05186408      24.58417404        2       0.00000000       0.00197984       0.00175864       0.02430021
Pt       2.80721273       6.48298349      24.58417384        2       0.00000000      -0.00329072      -0.00604299       0.00173755
Pt       5.61442806       6.48298330      24.58417399        2       0.00000000       0.00050825      -0.00272043       0.02468800
Pt       8.42164222       6.48298344      24.58417375        2       0.00000000      -0.00276725       0.00140044       0.02451312
Pt      -0.00963354       0.00459856      26.91407564        1       0.00000000       0.01457246      -0.00471780      -0.00634894
Pt       2.80629010       0.04874423      26.90982050        1       0.00000000       0.00131725       0.00327028       0.01303468
Pt       5.62321932       0.00604221      26.91407261        1       0.00000000      -0.01139576      -0.01026094      -0.00630904
Pt       1.39939424       2.43004029      26.92344128        1       0.00000000       0.01873264       0.00838544      -0.00092468
Pt       4.21385788       2.42799344      26.92343241        1       0.00000000      -0.01664245       0.01202060      -0.00097305
Pt       7.01886114       2.42048805      26.91406546        1       0.00000000      -0.00323968       0.01501221      -0.00639833
Pt       2.80840298       4.86642148      26.92345252        1       0.00000000      -0.00209075      -0.02046643      -0.00088123
Pt       5.57260734       4.83707710      26.90967000        1       0.00000000      -0.00377887      -0.00043174       0.01222554
Pt       8.46442827       4.83860436      26.90948090        1       0.00000000       0.00271734      -0.00309226       0.01116371
O        7.01754092       5.67333523      29.27423002        0       0.50000000      -0.00279226       0.00408396       0.01200175
H        7.01841359       5.67204847      28.27988200        0       0.50000000       0.00228280      -0.00335191      -0.01257376
