38
Lattice="8.421641763931781 0.0 0.0 4.2108208819658905 7.293355709136913 0.0 0.0 0.0 46.87624170604845" Properties=species:S:1:pos:R:3:tags:I:1:initial_magmoms:R:1:forces:R:3 charge=0 spin=0 energy=-194.6904482513126 free_energy=-194.6904482513126 stress="0.009615883231163025 -3.349227739590788e-08 1.4087154909248056e-07 -3.349227739590788e-08 0.009616590104997158 -1.013763153423497e-06 1.4087154909248056e-07 -1.013763153423497e-06 -0.0001317176502197981" pbc="T T T"
Pt      -0.00000011      -0.00000005      19.95723442        4       0.00000000      -0.00231594       0.00047258       0.01310650
Pt       2.80721395      -0.00000019      19.95723450        4       0.00000000      -0.00171502       0.00556731       0.01201808
Pt       5.61442786      -0.00000007      19.95723452        4       0.00000000       0.00157907       0.00173402       0.01312887
Pt       1.40360721       2.43111839      19.95723434        4       0.00000000       0.00569716       0.00374755      -0.00134972
Pt       4.21082082       2.43111837      19.95723444        4       0.00000000      -0.00606862       0.00309467      -0.00133339
Pt       7.01803481       2.43111844      19.95723433        4       0.00000000       0.00073356      -0.00220499       0.01309292
Pt       2.80721415       4.86223733      19.95723415        4       0.00000000       0.00036628      -0.00682515      -0.00136836
Pt       5.61442796       4.86223739      19.95723433        4       0.00000000      -0.00395913      -0.00427456       0.01199295
Pt       8.42164143       4.86223725      19.95723439        4       0.00000000       0.00567734      -0.00129989       0.01198701
Pt       1.40360728       0.81037261      22.29206792        3       0.00000000      -0.00809480      -0.00528660      -0.04116191
Pt       4.21082128       0.81037249      22.29206789        3       0.00000000       0.00907388      -0.00541121      -0.04422123
Pt       7.01803472       0.81037258      22.29206780        3       0.00000000       0.00000485       0.00000320      -0.04712028
Pt       2.80721447       3.24149123      22.29206774        3       0.00000000      -0.00001067       0.00001023       0.07144123
Pt       5.61442762       3.24149120      22.29206786        3       0.00000000       0.00871377      -0.00435664      -0.04127001
Pt       8.42164156       3.24149131      22.29206806        3       0.00000000      -0.00922511      -0.00515852      -0.04432781
Pt       4.21082090       5.67260998      22.29206740        3       0.00000000       0.00013555       0.01057361      -0.04425641
Pt       7.01803486       5.67261041      22.29206774        3       0.00000000      -0.00000760      -0.00000934      -0.02812910
Pt       9.82524817       5.67261060      22.29206803        3       0.00000000      -0.00059719       0.00963802      -0.04127806
Pt      -0.00000054       1.62074568      24.58417374        2       0.00000000       0.01096168       0.00300694      -0.00565795
Pt       2.80721436       1.62074546      24.58417392        2       0.00000000      -0.00584105      -0.00651387       0.03383172
Pt       5.61442782       1.62074536      24.58417379        2       0.00000000      -0.00801406       0.00800678      -0.00571488
Pt       1.40360636       4.05186439      24.58417387        2       0.00000000      -0.00234483       0.00819612       0.03316908
Pt       4.21082089       4.05186396      24.58417387        2       0.00000000       0.00826469      -0.00211808       0.03327357
Pt       7.01803504       4.05186408      24.58417404        2       0.00000000       0.00197726       0.00752377       0.02258789
Pt       2.80721273       6.48298349      24.58417384        2       0.00000000      -0.00295682      -0.01104922      -0.00549882
Pt       5.61442806       6.48298330      24.58417399        2       0.00000000       0.00552438      -0.00542226       0.02289598
Pt       8.42164222       6.48298344      24.58417375        2       0.00000000      -0.00751756      -0.00184914       0.02282466
Pt      -0.00890046       0.00442110      26.91072292        1       0.00000000       0.01046807      -0.00379349       0.00786722
Pt       2.80647270       0.04827441      26.91133772        1       0.00000000       0.00105668       0.00958582       0.00330701
Pt       5.62270806       0.00549684      26.91073241        1       0.00000000      -0.00853456      -0.00715200       0.00785218
Pt       1.40116109       2.43072851      26.92347692        1       0.00000000       0.00703556       0.00368831      -0.00026045
Pt       4.21236798       2.42919540      26.92348376        1       0.00000000      -0.00671832       0.00421531      -0.00027362
Pt       7.01863739       2.42120617      26.91070159        1       0.00000000      -0.00191728       0.01095639       0.00790119
Pt       2.80810526       4.86454346      26.92348656        1       0.00000000      -0.00031320      -0.00794626      -0.00022682
Pt       5.57296009       4.83743884      26.91121595        1       0.00000000      -0.00901481      -0.00388572       0.00278386
Pt       8.46387702       4.83874057      26.91119567        1       0.00000000       0.00795006      -0.00578982       0.00267824
O        7.01798175       5.67293734      29.27314845        0       0.50000000      -0.00028263       0.00192484       0.01776238
H        7.01807436       5.67235267      28.27875913        0       0.50000000       0.00022942      -0.00159860      -0.01205344
