38
Lattice="8.421641763931781 0.0 0.0 4.2108208819658905 7.293355709136913 0.0 0.0 0.0 46.87624170604845" Properties=species:S:1:pos:R:3:tags:I:1:initial_magmoms:R:1:forces:R:3 charge=0 spin=0 energy=-194.69044634396397 free_energy=-194.69044634396397 stress="0.009615825489163399 -3.8608817476415425e-08 1.2688482797784673e-07 -3.8608817476415425e-08 0.009616521187126637 -9.881035794023774e-07 1.2688482797784673e-07 -9.881035794023774e-07 -0.00013175881758797914" pbc="T T T"
Pt      -0.00000011      -0.00000005      19.95723442        4       0.00000000      -0.00231611       0.00047234       0.01310618
Pt       2.80721395      -0.00000019      19.95723450        4       0.00000000      -0.00171515       0.00556767       0.01201795
Pt       5.61442786      -0.00000007      19.95723452        4       0.00000000       0.00157902       0.00173415       0.01312853
Pt       1.40360721       2.43111839      19.95723434        4       0.00000000       0.00569782       0.00374806      -0.00134947
Pt       4.21082082       2.43111837      19.95723444        4       0.00000000      -0.00606897       0.00309497      -0.00133452
Pt       7.01803481       2.43111844      19.95723433        4       0.00000000       0.00073374      -0.00220491       0.01309284
Pt       2.80721415       4.86223733      19.95723415        4       0.00000000       0.00036657      -0.00682552      -0.00136876
Pt       5.61442796       4.86223739      19.95723433        4       0.00000000      -0.00395978      -0.00427459       0.01199272
Pt       8.42164143       4.86223725      19.95723439        4       0.00000000       0.00567775      -0.00130002       0.01198674
Pt       1.40360728       0.81037261      22.29206792        3       0.00000000      -0.00809552      -0.00528722      -0.04116307
Pt       4.21082128       0.81037249      22.29206789        3       0.00000000       0.00907504      -0.00541123      -0.04422214
Pt       7.01803472       0.81037258      22.29206780        3       0.00000000       0.00000465       0.00000315      -0.04712170
Pt       2.80721447       3.24149123      22.29206774        3       0.00000000      -0.00001054       0.00001069       0.07145157
Pt       5.61442762       3.24149120      22.29206786        3       0.00000000       0.00871452      -0.00435645      -0.04127184
Pt       8.42164156       3.24149131      22.29206806        3       0.00000000      -0.00922583      -0.00515806      -0.04432746
Pt       4.21082090       5.67260998      22.29206740        3       0.00000000       0.00013540       0.01057396      -0.04425889
Pt       7.01803486       5.67261041      22.29206774        3       0.00000000      -0.00000796      -0.00001010      -0.02812861
Pt       9.82524817       5.67261060      22.29206803        3       0.00000000      -0.00059726       0.00963834      -0.04128047
Pt      -0.00000054       1.62074568      24.58417374        2       0.00000000       0.01096344       0.00300302      -0.00566057
Pt       2.80721436       1.62074546      24.58417392        2       0.00000000      -0.00583857      -0.00651621       0.03383644
Pt       5.61442782       1.62074536      24.58417379        2       0.00000000      -0.00801915       0.00800388      -0.00571654
Pt       1.40360636       4.05186439      24.58417387        2       0.00000000      -0.00234516       0.00820382       0.03317390
Pt       4.21082089       4.05186396      24.58417387        2       0.00000000       0.00825723      -0.00211886       0.03326128
Pt       7.01803504       4.05186408      24.58417404        2       0.00000000       0.00197966       0.00752161       0.02257775
Pt       2.80721273       6.48298349      24.58417384        2       0.00000000      -0.00295757      -0.01105274      -0.00550183
Pt       5.61442806       6.48298330      24.58417399        2       0.00000000       0.00552331      -0.00541953       0.02288879
Pt       8.42164222       6.48298344      24.58417375        2       0.00000000      -0.00751742      -0.00184934       0.02281783
Pt      -0.00890102       0.00442157      26.91072309        1       0.00000000       0.01046987      -0.00378973       0.00786567
Pt       2.80647278       0.04827958      26.91133554        1       0.00000000       0.00105281       0.00959628       0.00329874
Pt       5.62270856       0.00549720      26.91073176        1       0.00000000      -0.00853557      -0.00714701       0.00785187
Pt       1.40116173       2.43072854      26.92347804        1       0.00000000       0.00702983       0.00368294      -0.00025388
Pt       4.21236708       2.42919554      26.92348539        1       0.00000000      -0.00671064       0.00420836      -0.00027483
Pt       7.01863737       2.42120550      26.91070070        1       0.00000000      -0.00191662       0.01095869       0.00790842
Pt       2.80810474       4.86454254      26.92348807        1       0.00000000      -0.00031400      -0.00793917      -0.00023662
Pt       5.57295518       4.83743604      26.91121178        1       0.00000000      -0.00899823      -0.00388615       0.00279921
Pt       8.46388130       4.83873823      26.91119465        1       0.00000000       0.00793673      -0.00580107       0.00269743
O        7.01799142       5.67293883      29.27311342        0       0.50000000      -0.00026368       0.00186039       0.01778689
H        7.01806717       5.67235137      28.27872404        0       0.50000000       0.00021622      -0.00153448      -0.01206969
