38
Lattice="8.421641763931781 0.0 0.0 4.2108208819658905 7.293355709136913 0.0 0.0 0.0 46.87624170604845" Properties=species:S:1:pos:R:3:tags:I:1:initial_magmoms:R:1:forces:R:3 charge=0 spin=0 energy=-194.69036432797276 free_energy=-194.69036432797276 stress="0.00959082879126072 -3.061594755493502e-09 2.274348389619263e-07 -3.061594755493502e-09 0.009590994566679 -3.5122241115459474e-08 2.274348389619263e-07 -3.5122241115459474e-08 -0.00015931809321045876" pbc="T T T"
Pt      -0.00000011      -0.00000005      19.95723442        4       0.00000000      -0.00230173       0.00038146       0.01309271
Pt       2.80721395      -0.00000019      19.95723450        4       0.00000000      -0.00160377       0.00558408       0.01202329
Pt       5.61442786      -0.00000007      19.95723452        4       0.00000000       0.00149117       0.00177496       0.01311697
Pt       1.40360721       2.43111839      19.95723434        4       0.00000000       0.00566393       0.00377298      -0.00138477
Pt       4.21082082       2.43111837      19.95723444        4       0.00000000      -0.00607552       0.00305061      -0.00136592
Pt       7.01803481       2.43111844      19.95723433        4       0.00000000       0.00081220      -0.00214920       0.01307388
Pt       2.80721415       4.86223733      19.95723415        4       0.00000000       0.00040539      -0.00682489      -0.00135941
Pt       5.61442796       4.86223739      19.95723433        4       0.00000000      -0.00403032      -0.00418598       0.01199978
Pt       8.42164143       4.86223725      19.95723439        4       0.00000000       0.00563636      -0.00140469       0.01199477
Pt       1.40360728       0.81037261      22.29206792        3       0.00000000      -0.00787909      -0.00533586      -0.04147812
Pt       4.21082128       0.81037249      22.29206789        3       0.00000000       0.00901856      -0.00540538      -0.04359559
Pt       7.01803472       0.81037258      22.29206780        3       0.00000000      -0.00000068       0.00001579      -0.04670153
Pt       2.80721447       3.24149123      22.29206774        3       0.00000000      -0.00000944       0.00000330       0.07111949
Pt       5.61442762       3.24149120      22.29206786        3       0.00000000       0.00865613      -0.00414386      -0.04159982
Pt       8.42164156       3.24149131      22.29206806        3       0.00000000      -0.00918948      -0.00511487      -0.04369567
Pt       4.21082090       5.67260998      22.29206740        3       0.00000000       0.00017406       0.01052349      -0.04358602
Pt       7.01803486       5.67261041      22.29206774        3       0.00000000      -0.00000411      -0.00001653      -0.02844895
Pt       9.82524817       5.67261060      22.29206803        3       0.00000000      -0.00076458       0.00948163      -0.04156498
Pt      -0.00000054       1.62074568      24.58417374        2       0.00000000       0.00791294       0.00296103      -0.00970295
Pt       2.80721436       1.62074546      24.58417392        2       0.00000000      -0.00518736      -0.00875720       0.02080046
Pt       5.61442782       1.62074536      24.58417379        2       0.00000000      -0.00643795       0.00533532      -0.00977568
Pt       1.40360636       4.05186439      24.58417387        2       0.00000000      -0.00490262       0.00901274       0.02099463
Pt       4.21082089       4.05186396      24.58417387        2       0.00000000       0.01016580      -0.00009628       0.02115994
Pt       7.01803504       4.05186408      24.58417404        2       0.00000000       0.00289918       0.00692935       0.02090029
Pt       2.80721273       6.48298349      24.58417384        2       0.00000000      -0.00143801      -0.00851148      -0.00936929
Pt       5.61442806       6.48298330      24.58417399        2       0.00000000       0.00432634      -0.00603804       0.02105451
Pt       8.42164222       6.48298344      24.58417375        2       0.00000000      -0.00729474      -0.00084320       0.02094690
Pt      -0.00851815       0.00579662      26.91068934        1       0.00000000       0.00860950      -0.01176301       0.00758959
Pt       2.80590129       0.04888225      26.91035061        1       0.00000000       0.00638965       0.00022759       0.00930292
Pt       5.62370024       0.00445283      26.91069190        1       0.00000000      -0.01435029      -0.00158671       0.00760059
Pt       1.40224259       2.43088485      26.92094533        1       0.00000000      -0.00471257       0.00296923       0.01373058
Pt       4.21168411       2.43000228      26.92093733        1       0.00000000      -0.00003399      -0.00512077       0.01376748
Pt       7.01725952       2.42088256      26.91063968        1       0.00000000       0.00578497       0.01323314       0.00772812
Pt       2.80771031       4.86350284      26.92105127        1       0.00000000       0.00481217       0.00271064       0.01321052
Pt       5.57273287       4.83667306      26.91039591        1       0.00000000      -0.00345091       0.00528623       0.00912693
Pt       8.46467029       4.83895760      26.91036946        1       0.00000000      -0.00300606      -0.00594125       0.00896813
O        7.01795910       5.67261878      29.27384746        0       0.50000000      -0.00044964      -0.00000896      -0.02028510
H        7.01809363       5.67261473      28.27854172        0       0.50000000       0.00036455      -0.00000552       0.02061122
