38
Lattice="8.421641763931781 0.0 0.0 4.2108208819658905 7.293355709136913 0.0 0.0 0.0 46.87624170604845" Properties=species:S:1:pos:R:3:tags:I:1:initial_magmoms:R:1:forces:R:3 charge=0 spin=0 energy=-194.6889185577091 free_energy=-194.6889185577091 stress="0.009775779210031033 3.653568825257025e-08 4.648642004667636e-08 3.653568825257025e-08 0.009775771759450436 1.382755385748169e-07 4.648642004667636e-08 1.382755385748169e-07 5.0406171794747934e-05" pbc="T T T"
Pt      -0.00000011      -0.00000005      19.95723442        4       0.00000000      -0.00429961      -0.00317895      -0.00011478
Pt       2.80721395      -0.00000019      19.95723450        4       0.00000000       0.00091950      -0.00231294       0.01102370
Pt       5.61442786      -0.00000007      19.95723452        4       0.00000000       0.00489185      -0.00216676      -0.00012759
Pt       1.40360721       2.43111839      19.95723434        4       0.00000000      -0.00246954       0.00035983       0.01104293
Pt       4.21082082       2.43111837      19.95723444        4       0.00000000       0.00154715       0.00195767       0.01102915
Pt       7.01803481       2.43111844      19.95723433        4       0.00000000      -0.00039334      -0.00009011       0.01477748
Pt       2.80721415       4.86223733      19.95723415        4       0.00000000      -0.00058701       0.00533090      -0.00013969
Pt       5.61442796       4.86223739      19.95723433        4       0.00000000       0.00014480       0.00038971       0.01476446
Pt       8.42164143       4.86223725      19.95723439        4       0.00000000       0.00024712      -0.00029463       0.01474720
Pt       1.40360728       0.81037261      22.29206792        3       0.00000000       0.00413995       0.00260053      -0.04255645
Pt       4.21082128       0.81037249      22.29206789        3       0.00000000      -0.00427865       0.00231522      -0.04262031
Pt       7.01803472       0.81037258      22.29206780        3       0.00000000       0.00118259       0.00248287      -0.00466155
Pt       2.80721447       3.24149123      22.29206774        3       0.00000000       0.00011794      -0.00485016      -0.04267998
Pt       5.61442762       3.24149120      22.29206786        3       0.00000000      -0.00186024       0.00138318      -0.03925418
Pt       8.42164156       3.24149131      22.29206806        3       0.00000000      -0.00028402      -0.00228178      -0.03921149
Pt       4.21082090       5.67260998      22.29206740        3       0.00000000       0.00153432      -0.00228049      -0.00456132
Pt       7.01803486       5.67261041      22.29206774        3       0.00000000       0.00215947       0.00087364      -0.03909167
Pt       9.82524817       5.67261060      22.29206803        3       0.00000000      -0.00269137      -0.00024008      -0.00461858
Pt      -0.00000054       1.62074568      24.58417374        2       0.00000000       0.00254336       0.01338657       0.03080965
Pt       2.80721436       1.62074546      24.58417392        2       0.00000000      -0.00000307      -0.00028981       0.07656357
Pt       5.61442782       1.62074536      24.58417379        2       0.00000000      -0.00799369       0.01949515       0.02723944
Pt       1.40360636       4.05186439      24.58417387        2       0.00000000      -0.01310489      -0.01644448       0.02776745
Pt       4.21082089       4.05186396      24.58417387        2       0.00000000       0.01085138      -0.00866434       0.03138256
Pt       7.01803504       4.05186408      24.58417404        2       0.00000000      -0.00005212       0.00040211       0.06580106
Pt       2.80721273       6.48298349      24.58417384        2       0.00000000       0.00006912      -0.00011867       0.00391089
Pt       5.61442806       6.48298330      24.58417399        2       0.00000000       0.02119189      -0.00303853       0.02825302
Pt       8.42164222       6.48298344      24.58417375        2       0.00000000      -0.01350424      -0.00469020       0.03162687
Pt      -0.00381448       0.00005871      26.91286265        1       0.00000000      -0.02976078      -0.02361641       0.00915824
Pt       2.80666974      -0.04005010      26.92063408        1       0.00000000       0.00305840       0.01208838      -0.03252338
Pt       5.61620730      -0.00334757      26.91279523        1       0.00000000       0.03540723      -0.01416947       0.00944385
Pt       1.36916232       2.45157826      26.92036374        1       0.00000000       0.00917430      -0.00870057      -0.03172040
Pt       4.24575528       2.45074117      26.92035292        1       0.00000000      -0.01204475      -0.00356648      -0.03171961
Pt       7.01551761       2.42674369      26.92178598        1       0.00000000       0.00830436       0.03863068      -0.01649650
Pt       2.80920142       4.86546644      26.91290763        1       0.00000000      -0.00542453       0.03772327       0.00895398
Pt       5.61196183       4.86663109      26.92214240        1       0.00000000       0.02892931      -0.02651172      -0.01802145
Pt       8.42671198       4.86223220      26.92208657        1       0.00000000      -0.03767182      -0.01190305      -0.01774675
O        2.80721201       1.62066089      29.32965417        0       0.50000000      -0.00004766      -0.00079503      -0.02436609
H        2.80722357       1.62083777      28.33578161        0       0.50000000       0.00005719       0.00078510       0.00393595
