38
Lattice="8.421641763931781 0.0 0.0 4.2108208819658905 7.293355709136913 0.0 0.0 0.0 46.87624170604845" Properties=species:S:1:pos:R:3:tags:I:1:initial_magmoms:R:1:forces:R:3 charge=0 spin=0 energy=-194.69025751644932 free_energy=-194.69025751644932 stress="0.009662995114922523 -7.474589835965162e-09 1.7824875442329358e-07 -7.474589835965162e-09 0.009663228876888752 3.9292663700507546e-07 1.7824875442329358e-07 3.9292663700507546e-07 -0.00012529904779512435" pbc="T T T"
Pt      -0.00000011      -0.00000005      19.95723442        4       0.00000000      -0.00436465      -0.00337010      -0.00028378
Pt       2.80721395      -0.00000019      19.95723450        4       0.00000000       0.00079439      -0.00292816       0.01079586
Pt       5.61442786      -0.00000007      19.95723452        4       0.00000000       0.00509034      -0.00210811      -0.00030310
Pt       1.40360721       2.43111839      19.95723434        4       0.00000000      -0.00294471       0.00077639       0.01082675
Pt       4.21082082       2.43111837      19.95723444        4       0.00000000       0.00215245       0.00215547       0.01081013
Pt       7.01803481       2.43111844      19.95723433        4       0.00000000      -0.00036891      -0.00069375       0.01468435
Pt       2.80721415       4.86223733      19.95723415        4       0.00000000      -0.00073091       0.00547975      -0.00029574
Pt       5.61442796       4.86223739      19.95723433        4       0.00000000      -0.00038174       0.00065991       0.01466421
Pt       8.42164143       4.86223725      19.95723439        4       0.00000000       0.00075258       0.00002210       0.01465070
Pt       1.40360728       0.81037261      22.29206792        3       0.00000000       0.00452792       0.00278499      -0.04372791
Pt       4.21082128       0.81037249      22.29206789        3       0.00000000      -0.00466658       0.00250652      -0.04379102
Pt       7.01803472       0.81037258      22.29206780        3       0.00000000       0.00094278       0.00354726      -0.00035416
Pt       2.80721447       3.24149123      22.29206774        3       0.00000000       0.00012925      -0.00528885      -0.04372598
Pt       5.61442762       3.24149120      22.29206786        3       0.00000000      -0.00127617       0.00149446      -0.04153975
Pt       8.42164156       3.24149131      22.29206806        3       0.00000000      -0.00066150      -0.00183135      -0.04147296
Pt       4.21082090       5.67260998      22.29206740        3       0.00000000       0.00259639      -0.00259671      -0.00034169
Pt       7.01803486       5.67261041      22.29206774        3       0.00000000       0.00194103       0.00033501      -0.04153633
Pt       9.82524817       5.67261060      22.29206803        3       0.00000000      -0.00353537      -0.00096078      -0.00034776
Pt      -0.00000054       1.62074568      24.58417374        2       0.00000000      -0.00274580       0.00046747       0.01415780
Pt       2.80721436       1.62074546      24.58417392        2       0.00000000      -0.00001485       0.00004443       0.03614639
Pt       5.61442782       1.62074536      24.58417379        2       0.00000000      -0.00123086       0.00949868       0.01382134
Pt       1.40360636       4.05186439      24.58417387        2       0.00000000      -0.00756174      -0.00595088       0.01383297
Pt       4.21082089       4.05186396      24.58417387        2       0.00000000       0.00184680       0.00206655       0.01402265
Pt       7.01803504       4.05186408      24.58417404        2       0.00000000      -0.00000630      -0.00007032       0.02356987
Pt       2.80721273       6.48298349      24.58417384        2       0.00000000       0.00001735       0.00000352      -0.01666485
Pt       5.61442806       6.48298330      24.58417399        2       0.00000000       0.00891831      -0.00354465       0.01372157
Pt       8.42164222       6.48298344      24.58417375        2       0.00000000       0.00079142      -0.00243300       0.01407118
Pt      -0.00897692      -0.00408967      26.91386202        1       0.00000000       0.00496902      -0.00072448       0.00596786
Pt       2.80763789      -0.04006598      26.91114498        1       0.00000000      -0.00418108       0.00414098       0.00451411
Pt       5.62247092      -0.00571847      26.91386551        1       0.00000000      -0.00189472       0.00470043       0.00595085
Pt       1.36865069       2.45078268      26.91114965        1       0.00000000       0.00565629       0.00159178       0.00399596
Pt       4.24535112       2.45152369      26.91112853        1       0.00000000      -0.00151376      -0.00539683       0.00381706
Pt       7.01768898       2.43218653      26.91796834        1       0.00000000      -0.00573648      -0.00465256       0.00750755
Pt       2.80815776       4.87205239      26.91385801        1       0.00000000      -0.00312087      -0.00401138       0.00609661
Pt       5.61551829       4.86202914      26.91790561        1       0.00000000      -0.00113387       0.00727035       0.00821889
Pt       8.42089097       4.86143584      26.91790846        1       0.00000000       0.00703000      -0.00289008       0.00819656
O        2.80715029       1.62063610      29.30710358        0       0.50000000      -0.00037867      -0.00055468      -0.00617700
H        2.80727725       1.62082592      28.31312692        0       0.50000000       0.00029305       0.00046057       0.00652085
