38
Lattice="8.421641763931781 0.0 0.0 4.2108208819658905 7.293355709136913 0.0 0.0 0.0 46.87624170604845" Properties=species:S:1:pos:R:3:tags:I:1:initial_magmoms:R:1:forces:R:3 charge=0 spin=0 energy=-194.69025751644932 free_energy=-194.69025751644932 stress="0.009662974625825882 -5.49259704385463e-09 1.7728457635257655e-07 -5.49259704385463e-09 0.009663207456469536 3.941563022635819e-07 1.7728457635257655e-07 3.941563022635819e-07 -0.00012532678374554962" pbc="T T T"
Pt      -0.00000011      -0.00000005      19.95723442        4       0.00000000      -0.00436476      -0.00336993      -0.00028391
Pt       2.80721395      -0.00000019      19.95723450        4       0.00000000       0.00079445      -0.00292841       0.01079584
Pt       5.61442786      -0.00000007      19.95723452        4       0.00000000       0.00509051      -0.00210822      -0.00030335
Pt       1.40360721       2.43111839      19.95723434        4       0.00000000      -0.00294491       0.00077654       0.01082652
Pt       4.21082082       2.43111837      19.95723444        4       0.00000000       0.00215262       0.00215529       0.01081015
Pt       7.01803481       2.43111844      19.95723433        4       0.00000000      -0.00036906      -0.00069359       0.01468448
Pt       2.80721415       4.86223733      19.95723415        4       0.00000000      -0.00073088       0.00547975      -0.00029614
Pt       5.61442796       4.86223739      19.95723433        4       0.00000000      -0.00038156       0.00065979       0.01466436
Pt       8.42164143       4.86223725      19.95723439        4       0.00000000       0.00075251       0.00002209       0.01465070
Pt       1.40360728       0.81037261      22.29206792        3       0.00000000       0.00452773       0.00278507      -0.04372821
Pt       4.21082128       0.81037249      22.29206789        3       0.00000000      -0.00466691       0.00250700      -0.04379120
Pt       7.01803472       0.81037258      22.29206780        3       0.00000000       0.00094287       0.00354794      -0.00035296
Pt       2.80721447       3.24149123      22.29206774        3       0.00000000       0.00012924      -0.00528867      -0.04372725
Pt       5.61442762       3.24149120      22.29206786        3       0.00000000      -0.00127664       0.00149462      -0.04153968
Pt       8.42164156       3.24149131      22.29206806        3       0.00000000      -0.00066197      -0.00183122      -0.04147285
Pt       4.21082090       5.67260998      22.29206740        3       0.00000000       0.00259629      -0.00259697      -0.00034215
Pt       7.01803486       5.67261041      22.29206774        3       0.00000000       0.00194081       0.00033538      -0.04153572
Pt       9.82524817       5.67261060      22.29206803        3       0.00000000      -0.00353611      -0.00096042      -0.00034733
Pt      -0.00000054       1.62074568      24.58417374        2       0.00000000      -0.00274747       0.00046543       0.01415423
Pt       2.80721436       1.62074546      24.58417392        2       0.00000000      -0.00001538       0.00004183       0.03614203
Pt       5.61442782       1.62074536      24.58417379        2       0.00000000      -0.00122776       0.00949710       0.01382022
Pt       1.40360636       4.05186439      24.58417387        2       0.00000000      -0.00756155      -0.00594892       0.01382954
Pt       4.21082089       4.05186396      24.58417387        2       0.00000000       0.00184725       0.00206835       0.01402251
Pt       7.01803504       4.05186408      24.58417404        2       0.00000000      -0.00000606      -0.00007062       0.02356585
Pt       2.80721273       6.48298349      24.58417384        2       0.00000000       0.00001865       0.00000369      -0.01666355
Pt       5.61442806       6.48298330      24.58417399        2       0.00000000       0.00891872      -0.00354439       0.01372119
Pt       8.42164222       6.48298344      24.58417375        2       0.00000000       0.00079168      -0.00243335       0.01406800
Pt      -0.00897601      -0.00408980      26.91386222        1       0.00000000       0.00496334      -0.00072847       0.00596669
Pt       2.80763930      -0.04006785      26.91114400        1       0.00000000      -0.00418624       0.00414420       0.00451099
Pt       5.62247091      -0.00571966      26.91386601        1       0.00000000      -0.00188627       0.00470450       0.00595007
Pt       1.36865025       2.45078268      26.91114854        1       0.00000000       0.00566028       0.00159287       0.00400065
Pt       4.24535234       2.45152273      26.91112755        1       0.00000000      -0.00151013      -0.00538826       0.00382166
Pt       7.01768966       2.43218721      26.91796918        1       0.00000000      -0.00574271      -0.00466090       0.00750852
Pt       2.80815716       4.87205160      26.91385761        1       0.00000000      -0.00311538      -0.00400899       0.00609472
Pt       5.61551930       4.86202885      26.91790649        1       0.00000000      -0.00114495       0.00726599       0.00822042
Pt       8.42089038       4.86143591      26.91790825        1       0.00000000       0.00703522      -0.00289315       0.00820008
O        2.80715030       1.62063566      29.30709412        0       0.50000000      -0.00037763      -0.00055652      -0.00616427
H        2.80727688       1.62082554      28.31311813        0       0.50000000       0.00029194       0.00046353       0.00651932
