38
Lattice="8.421641763931781 0.0 0.0 4.2108208819658905 7.293355709136913 0.0 0.0 0.0 46.87624170604845" Properties=species:S:1:pos:R:3:tags:I:1:initial_magmoms:R:1:forces:R:3 charge=0 spin=0 energy=-194.68953463131749 free_energy=-194.68953463131749 stress="0.009698978625237942 5.08377020480566e-08 -3.217221831164352e-07 5.08377020480566e-08 0.009699096903204918 3.055365596082993e-07 -3.217221831164352e-07 3.055365596082993e-07 -5.1330600399523973e-05" pbc="T T T"
Pt      -0.00000011      -0.00000005      19.95723442        4       0.00000000      -0.00436961      -0.00336247      -0.00048253
Pt       2.80721395      -0.00000019      19.95723450        4       0.00000000       0.00091624      -0.00339342       0.01069348
Pt       5.61442786      -0.00000007      19.95723452        4       0.00000000       0.00508966      -0.00212547      -0.00047706
Pt       1.40360721       2.43111839      19.95723434        4       0.00000000      -0.00341123       0.00090218       0.01072476
Pt       4.21082082       2.43111837      19.95723444        4       0.00000000       0.00249343       0.00249767       0.01071314
Pt       7.01803481       2.43111844      19.95723433        4       0.00000000      -0.00041643      -0.00067532       0.01486597
Pt       2.80721415       4.86223733      19.95723415        4       0.00000000      -0.00071659       0.00548663      -0.00048284
Pt       5.61442796       4.86223739      19.95723433        4       0.00000000      -0.00034089       0.00069572       0.01484413
Pt       8.42164143       4.86223725      19.95723439        4       0.00000000       0.00075796      -0.00002854       0.01483011
Pt       1.40360728       0.81037261      22.29206792        3       0.00000000       0.00513808       0.00327454      -0.04675167
Pt       4.21082128       0.81037249      22.29206789        3       0.00000000      -0.00539703       0.00280138      -0.04679412
Pt       7.01803472       0.81037258      22.29206780        3       0.00000000       0.00073757       0.00376595       0.00132723
Pt       2.80721447       3.24149123      22.29206774        3       0.00000000       0.00024199      -0.00606109      -0.04675402
Pt       5.61442762       3.24149120      22.29206786        3       0.00000000      -0.00181451       0.00128140      -0.04077445
Pt       8.42164156       3.24149131      22.29206806        3       0.00000000      -0.00020611      -0.00218896      -0.04072807
Pt       4.21082090       5.67260998      22.29206740        3       0.00000000       0.00289317      -0.00251628       0.00135408
Pt       7.01803486       5.67261041      22.29206774        3       0.00000000       0.00202593       0.00090919      -0.04077053
Pt       9.82524817       5.67261060      22.29206803        3       0.00000000      -0.00361221      -0.00125792       0.00132484
Pt      -0.00000054       1.62074568      24.58417374        2       0.00000000      -0.01135527       0.00495624       0.03416880
Pt       2.80721436       1.62074546      24.58417392        2       0.00000000       0.00002344      -0.00002253       0.03264291
Pt       5.61442782       1.62074536      24.58417379        2       0.00000000       0.00699117       0.01421247       0.03158657
Pt       1.40360636       4.05186439      24.58417387        2       0.00000000      -0.01581945      -0.00095216       0.03138322
Pt       4.21082089       4.05186396      24.58417387        2       0.00000000       0.01014819       0.00716097       0.03428963
Pt       7.01803504       4.05186408      24.58417404        2       0.00000000       0.00000377      -0.00000358       0.04935160
Pt       2.80721273       6.48298349      24.58417384        2       0.00000000       0.00000893       0.00001404      -0.01372908
Pt       5.61442806       6.48298330      24.58417399        2       0.00000000       0.00886044      -0.01314171       0.03155169
Pt       8.42164222       6.48298344      24.58417375        2       0.00000000       0.00110648      -0.01219935       0.03427638
Pt      -0.00986850      -0.00479685      26.91485779        1       0.00000000       0.00792627       0.00298757      -0.00203971
Pt       2.80712407      -0.04002933      26.91117309        1       0.00000000      -0.00026632      -0.02038231      -0.00997478
Pt       5.62351948      -0.00614883      26.91485592        1       0.00000000      -0.00654856       0.00537137      -0.00204196
Pt       1.36896391       2.45122019      26.91111451        1       0.00000000      -0.01762153       0.01045557      -0.01030782
Pt       4.24553250       2.45105879      26.91116184        1       0.00000000       0.01777652       0.00994514      -0.01003197
Pt       7.01710877       2.43521167      26.92577829        1       0.00000000      -0.00124017      -0.02259917      -0.02761199
Pt       2.80799905       4.87318287      26.91484540        1       0.00000000      -0.00136087      -0.00835933      -0.00207485
Pt       5.61843704       4.86098992      26.92577481        1       0.00000000      -0.01896995       0.01237654      -0.02762393
Pt       8.41855596       4.85939258      26.92577522        1       0.00000000       0.02018379       0.01025816      -0.02761511
O        2.80733946       1.62066004      29.28748871        0       0.50000000       0.00070497      -0.00047049       0.04462193
H        2.80711388       1.62081085      28.29386952        0       0.50000000      -0.00056120       0.00038699      -0.00748403
