38
Lattice="8.421641763931781 0.0 0.0 4.2108208819658905 7.293355709136913 0.0 0.0 0.0 46.87624170604845" Properties=species:S:1:pos:R:3:tags:I:1:initial_magmoms:R:1:forces:R:3 charge=0 spin=0 energy=-194.68892237240635 free_energy=-194.68892237240635 stress="0.009775785729289055 3.692601069360535e-08 4.744424231262201e-08 3.692601069360535e-08 0.009775779210031033 1.3888701744235732e-07 4.744424231262201e-08 1.3888701744235732e-07 5.031808905187063e-05" pbc="T T T"
Pt      -0.00000011      -0.00000005      19.95723442        4       0.00000000      -0.00429979      -0.00317905      -0.00011467
Pt       2.80721395      -0.00000019      19.95723450        4       0.00000000       0.00091953      -0.00231265       0.01102357
Pt       5.61442786      -0.00000007      19.95723452        4       0.00000000       0.00489183      -0.00216698      -0.00012774
Pt       1.40360721       2.43111839      19.95723434        4       0.00000000      -0.00246937       0.00035977       0.01104301
Pt       4.21082082       2.43111837      19.95723444        4       0.00000000       0.00154710       0.00195759       0.01102908
Pt       7.01803481       2.43111844      19.95723433        4       0.00000000      -0.00039343      -0.00008998       0.01477750
Pt       2.80721415       4.86223733      19.95723415        4       0.00000000      -0.00058705       0.00533104      -0.00013982
Pt       5.61442796       4.86223739      19.95723433        4       0.00000000       0.00014496       0.00038939       0.01476461
Pt       8.42164143       4.86223725      19.95723439        4       0.00000000       0.00024712      -0.00029478       0.01474737
Pt       1.40360728       0.81037261      22.29206792        3       0.00000000       0.00413977       0.00260036      -0.04255700
Pt       4.21082128       0.81037249      22.29206789        3       0.00000000      -0.00427889       0.00231527      -0.04261903
Pt       7.01803472       0.81037258      22.29206780        3       0.00000000       0.00118268       0.00248253      -0.00466211
Pt       2.80721447       3.24149123      22.29206774        3       0.00000000       0.00011796      -0.00485029      -0.04267924
Pt       5.61442762       3.24149120      22.29206786        3       0.00000000      -0.00185988       0.00138307      -0.03925339
Pt       8.42164156       3.24149131      22.29206806        3       0.00000000      -0.00028383      -0.00228195      -0.03921113
Pt       4.21082090       5.67260998      22.29206740        3       0.00000000       0.00153448      -0.00228022      -0.00456102
Pt       7.01803486       5.67261041      22.29206774        3       0.00000000       0.00215919       0.00087374      -0.03909226
Pt       9.82524817       5.67261060      22.29206803        3       0.00000000      -0.00269185      -0.00023946      -0.00461975
Pt      -0.00000054       1.62074568      24.58417374        2       0.00000000       0.00254381       0.01339072       0.03081623
Pt       2.80721436       1.62074546      24.58417392        2       0.00000000      -0.00000153      -0.00028873       0.07657035
Pt       5.61442782       1.62074536      24.58417379        2       0.00000000      -0.00799414       0.01949859       0.02724306
Pt       1.40360636       4.05186439      24.58417387        2       0.00000000      -0.01310755      -0.01644816       0.02776395
Pt       4.21082089       4.05186396      24.58417387        2       0.00000000       0.01085369      -0.00866867       0.03137894
Pt       7.01803504       4.05186408      24.58417404        2       0.00000000      -0.00005348       0.00039969       0.06581498
Pt       2.80721273       6.48298349      24.58417384        2       0.00000000       0.00006959      -0.00011623       0.00391255
Pt       5.61442806       6.48298330      24.58417399        2       0.00000000       0.02119250      -0.00303799       0.02824851
Pt       8.42164222       6.48298344      24.58417375        2       0.00000000      -0.01350349      -0.00469013       0.03162782
Pt      -0.00381266       0.00006020      26.91286271        1       0.00000000      -0.02977059      -0.02361940       0.00915884
Pt       2.80666929      -0.04005189      26.92063366        1       0.00000000       0.00306087       0.01209555      -0.03252493
Pt       5.61620767      -0.00334683      26.91279668        1       0.00000000       0.03540654      -0.01417351       0.00944268
Pt       1.36916376       2.45157920      26.92036544        1       0.00000000       0.00915942      -0.00870602      -0.03173142
Pt       4.24575618       2.45074119      26.92035397        1       0.00000000      -0.01204544      -0.00357117      -0.03173216
Pt       7.01551710       2.42674184      26.92178702        1       0.00000000       0.00831358       0.03864759      -0.01650856
Pt       2.80920129       4.86546459      26.91290757        1       0.00000000      -0.00542566       0.03773680       0.00896543
Pt       5.61195758       4.86663314      26.92214179        1       0.00000000       0.02895979      -0.02652474      -0.01802179
Pt       8.42671388       4.86223256      26.92208753        1       0.00000000      -0.03768845      -0.01190854      -0.01774932
O        2.80721140       1.62066036      29.32965234        0       0.50000000      -0.00005093      -0.00079537      -0.02407661
H        2.80722391       1.62083831      28.33578693        0       0.50000000       0.00006090       0.00078264       0.00365351
