38
Lattice="8.421641763931781 0.0 0.0 4.2108208819658905 7.293355709136913 0.0 0.0 0.0 46.87624170604845" Properties=species:S:1:pos:R:3:tags:I:1:initial_magmoms:R:1:forces:R:3 charge=0 spin=0 energy=-194.6902918487247 free_energy=-194.6902918487247 stress="0.009694740176200867 -6.750283176870653e-08 7.830367820815809e-08 -6.750283176870653e-08 0.009694606065750122 -2.0882040985270578e-08 7.830367820815809e-08 -2.0882040985270578e-08 -8.107954636216164e-05" pbc="T T T"
Pt      -0.00000011      -0.00000005      19.95723442        4       0.00000000      -0.00438444      -0.00331831      -0.00029803
Pt       2.80721395      -0.00000019      19.95723450        4       0.00000000       0.00086065      -0.00285196       0.01082849
Pt       5.61442786      -0.00000007      19.95723452        4       0.00000000       0.00505616      -0.00215363      -0.00031304
Pt       1.40360721       2.43111839      19.95723434        4       0.00000000      -0.00291387       0.00068208       0.01086068
Pt       4.21082082       2.43111837      19.95723444        4       0.00000000       0.00205373       0.00217435       0.01084486
Pt       7.01803481       2.43111844      19.95723433        4       0.00000000      -0.00032869      -0.00062479       0.01473329
Pt       2.80721415       4.86223733      19.95723415        4       0.00000000      -0.00067575       0.00548017      -0.00028696
Pt       5.61442796       4.86223739      19.95723433        4       0.00000000      -0.00033973       0.00059215       0.01471533
Pt       8.42164143       4.86223725      19.95723439        4       0.00000000       0.00066941       0.00002292       0.01470057
Pt       1.40360728       0.81037261      22.29206792        3       0.00000000       0.00453207       0.00283403      -0.04383872
Pt       4.21082128       0.81037249      22.29206789        3       0.00000000      -0.00470726       0.00249683      -0.04389810
Pt       7.01803472       0.81037258      22.29206780        3       0.00000000       0.00094230       0.00351591      -0.00069703
Pt       2.80721447       3.24149123      22.29206774        3       0.00000000       0.00016365      -0.00531816      -0.04383419
Pt       5.61442762       3.24149120      22.29206786        3       0.00000000      -0.00138878       0.00151313      -0.04138475
Pt       8.42164156       3.24149131      22.29206806        3       0.00000000      -0.00062091      -0.00193400      -0.04132443
Pt       4.21082090       5.67260998      22.29206740        3       0.00000000       0.00256954      -0.00257421      -0.00069273
Pt       7.01803486       5.67261041      22.29206774        3       0.00000000       0.00200692       0.00042393      -0.04138348
Pt       9.82524817       5.67261060      22.29206803        3       0.00000000      -0.00350892      -0.00094257      -0.00070322
Pt      -0.00000054       1.62074568      24.58417374        2       0.00000000      -0.00331695       0.00256525       0.02252622
Pt       2.80721436       1.62074546      24.58417392        2       0.00000000      -0.00000568       0.00001566       0.04169557
Pt       5.61442782       1.62074536      24.58417379        2       0.00000000      -0.00090148       0.01130624       0.01926361
Pt       1.40360636       4.05186439      24.58417387        2       0.00000000      -0.00936612      -0.00646718       0.01920866
Pt       4.21082089       4.05186396      24.58417387        2       0.00000000       0.00404049       0.00157339       0.02239853
Pt       7.01803504       4.05186408      24.58417404        2       0.00000000      -0.00000555       0.00001567       0.03885234
Pt       2.80721273       6.48298349      24.58417384        2       0.00000000       0.00001661       0.00001094      -0.01024073
Pt       5.61442806       6.48298330      24.58417399        2       0.00000000       0.01018375      -0.00490385       0.01905853
Pt       8.42164222       6.48298344      24.58417375        2       0.00000000      -0.00062472      -0.00413799       0.02233773
Pt      -0.00820222      -0.00402602      26.91460911        1       0.00000000      -0.00056388      -0.00084962       0.00223623
Pt       2.80707091      -0.03993381      26.91254171        1       0.00000000       0.00026701      -0.00049921      -0.00396683
Pt       5.62201403      -0.00508982      26.91460904        1       0.00000000       0.00099788      -0.00007088       0.00224122
Pt       1.36911112       2.45119286      26.91257450        1       0.00000000      -0.00046209      -0.00004242      -0.00370304
Pt       4.24545908       2.45095628      26.91256199        1       0.00000000       0.00021816       0.00045013      -0.00377624
Pt       7.01695546       2.43104928      26.92008107        1       0.00000000      -0.00004482       0.00557794      -0.00408216
Pt       2.80783365       4.87135507      26.91459250        1       0.00000000      -0.00044396       0.00090713       0.00246422
Pt       5.61491239       4.86320329      26.92008375        1       0.00000000       0.00485643      -0.00275183      -0.00385813
Pt       8.42223956       4.86133432      26.92008252        1       0.00000000      -0.00479129      -0.00286105      -0.00385512
O        2.80718027       1.62087010      29.30751074        0       0.50000000      -0.00019248       0.00069305       0.01961954
H        2.80724164       1.62064186      28.31416555        0       0.50000000       0.00015254      -0.00054918      -0.01644847
