38
Lattice="8.421641763931781 0.0 0.0 4.2108208819658905 7.293355709136913 0.0 0.0 0.0 46.87624170604845" Properties=species:S:1:pos:R:3:tags:I:1:initial_magmoms:R:1:forces:R:3 charge=0 spin=0 energy=-194.68953081662022 free_energy=-194.68953081662022 stress="0.009698981419205666 4.650180684961924e-08 -3.331414291096735e-07 4.650180684961924e-08 0.009699112735688686 3.39368426693909e-07 -3.331414291096735e-07 3.39368426693909e-07 -5.1352828450035304e-05" pbc="T T T"
Pt      -0.00000011      -0.00000005      19.95723442        4       0.00000000      -0.00436997      -0.00336286      -0.00048259
Pt       2.80721395      -0.00000019      19.95723450        4       0.00000000       0.00091634      -0.00339369       0.01069327
Pt       5.61442786      -0.00000007      19.95723452        4       0.00000000       0.00509050      -0.00212569      -0.00047644
Pt       1.40360721       2.43111839      19.95723434        4       0.00000000      -0.00341147       0.00090248       0.01072448
Pt       4.21082082       2.43111837      19.95723444        4       0.00000000       0.00249391       0.00249834       0.01071295
Pt       7.01803481       2.43111844      19.95723433        4       0.00000000      -0.00041658      -0.00067514       0.01486574
Pt       2.80721415       4.86223733      19.95723415        4       0.00000000      -0.00071658       0.00548670      -0.00048367
Pt       5.61442796       4.86223739      19.95723433        4       0.00000000      -0.00034096       0.00069551       0.01484379
Pt       8.42164143       4.86223725      19.95723439        4       0.00000000       0.00075811      -0.00002880       0.01483015
Pt       1.40360728       0.81037261      22.29206792        3       0.00000000       0.00513875       0.00327588      -0.04675502
Pt       4.21082128       0.81037249      22.29206789        3       0.00000000      -0.00539861       0.00280186      -0.04679778
Pt       7.01803472       0.81037258      22.29206780        3       0.00000000       0.00073724       0.00376664       0.00132923
Pt       2.80721447       3.24149123      22.29206774        3       0.00000000       0.00024145      -0.00606195      -0.04675741
Pt       5.61442762       3.24149120      22.29206786        3       0.00000000      -0.00181505       0.00128124      -0.04077426
Pt       8.42164156       3.24149131      22.29206806        3       0.00000000      -0.00020581      -0.00218912      -0.04072862
Pt       4.21082090       5.67260998      22.29206740        3       0.00000000       0.00289363      -0.00251746       0.00135823
Pt       7.01803486       5.67261041      22.29206774        3       0.00000000       0.00202586       0.00090936      -0.04076892
Pt       9.82524817       5.67261060      22.29206803        3       0.00000000      -0.00361281      -0.00125895       0.00132855
Pt      -0.00000054       1.62074568      24.58417374        2       0.00000000      -0.01137535       0.00495148       0.03416137
Pt       2.80721436       1.62074546      24.58417392        2       0.00000000       0.00002473      -0.00002564       0.03263543
Pt       5.61442782       1.62074536      24.58417379        2       0.00000000       0.00700803       0.01421135       0.03158430
Pt       1.40360636       4.05186439      24.58417387        2       0.00000000      -0.01582235      -0.00093289       0.03137894
Pt       4.21082089       4.05186396      24.58417387        2       0.00000000       0.01015231       0.00717455       0.03429288
Pt       7.01803504       4.05186408      24.58417404        2       0.00000000       0.00000407      -0.00000680       0.04936979
Pt       2.80721273       6.48298349      24.58417384        2       0.00000000       0.00000861       0.00001231      -0.01372657
Pt       5.61442806       6.48298330      24.58417399        2       0.00000000       0.00886051      -0.01314865       0.03156386
Pt       8.42164222       6.48298344      24.58417375        2       0.00000000       0.00110776      -0.01220680       0.03428448
Pt      -0.00986964      -0.00479745      26.91485771        1       0.00000000       0.00793067       0.00299061      -0.00203994
Pt       2.80712431      -0.04003184      26.91117086        1       0.00000000      -0.00027020      -0.02034799      -0.00992987
Pt       5.62352042      -0.00614967      26.91485592        1       0.00000000      -0.00654862       0.00537275      -0.00204092
Pt       1.36895958       2.45122286      26.91110653        1       0.00000000      -0.01760652       0.01044153      -0.01029268
Pt       4.24553579       2.45106055      26.91115634        1       0.00000000       0.01775878       0.00993543      -0.01000958
Pt       7.01710874       2.43521354      26.92578479        1       0.00000000      -0.00124258      -0.02261146      -0.02764503
Pt       2.80799913       4.87318394      26.91484547        1       0.00000000      -0.00136075      -0.00836822      -0.00208481
Pt       5.61843859       4.86098932      26.92578107        1       0.00000000      -0.01898245       0.01238305      -0.02764710
Pt       8.41855439       4.85939190      26.92578147        1       0.00000000       0.02019608       0.01026654      -0.02763703
O        2.80734473       1.62064673      29.28748041        0       0.50000000       0.00072576      -0.00055730       0.04474822
H        2.80710910       1.62082183      28.29386593        0       0.50000000      -0.00057636       0.00046186      -0.00762712
