38
Lattice="8.421641763931781 0.0 0.0 4.2108208819658905 7.293355709136913 0.0 0.0 0.0 46.87624170604845" Properties=species:S:1:pos:R:3:tags:I:1:initial_magmoms:R:1:forces:R:3 charge=0 spin=0 energy=-194.69025942379795 free_energy=-194.69025942379795 stress="0.009662983007729053 -2.5458437580283544e-09 1.7315211664481467e-07 -2.5458437580283544e-09 0.009663229808211327 4.0041047100203286e-07 1.7315211664481467e-07 4.0041047100203286e-07 -0.00012533055269159377" pbc="T T T"
Pt      -0.00000011      -0.00000005      19.95723442        4       0.00000000      -0.00436464      -0.00337015      -0.00028378
Pt       2.80721395      -0.00000019      19.95723450        4       0.00000000       0.00079445      -0.00292841       0.01079581
Pt       5.61442786      -0.00000007      19.95723452        4       0.00000000       0.00509036      -0.00210817      -0.00030305
Pt       1.40360721       2.43111839      19.95723434        4       0.00000000      -0.00294475       0.00077649       0.01082665
Pt       4.21082082       2.43111837      19.95723444        4       0.00000000       0.00215251       0.00215535       0.01081021
Pt       7.01803481       2.43111844      19.95723433        4       0.00000000      -0.00036910      -0.00069372       0.01468450
Pt       2.80721415       4.86223733      19.95723415        4       0.00000000      -0.00073082       0.00547961      -0.00029599
Pt       5.61442796       4.86223739      19.95723433        4       0.00000000      -0.00038166       0.00065999       0.01466419
Pt       8.42164143       4.86223725      19.95723439        4       0.00000000       0.00075248       0.00002220       0.01465081
Pt       1.40360728       0.81037261      22.29206792        3       0.00000000       0.00452781       0.00278520      -0.04372802
Pt       4.21082128       0.81037249      22.29206789        3       0.00000000      -0.00466682       0.00250684      -0.04379173
Pt       7.01803472       0.81037258      22.29206780        3       0.00000000       0.00094282       0.00354792      -0.00035352
Pt       2.80721447       3.24149123      22.29206774        3       0.00000000       0.00012919      -0.00528843      -0.04372677
Pt       5.61442762       3.24149120      22.29206786        3       0.00000000      -0.00127643       0.00149478      -0.04153941
Pt       8.42164156       3.24149131      22.29206806        3       0.00000000      -0.00066167      -0.00183120      -0.04147204
Pt       4.21082090       5.67260998      22.29206740        3       0.00000000       0.00259643      -0.00259685      -0.00034171
Pt       7.01803486       5.67261041      22.29206774        3       0.00000000       0.00194088       0.00033556      -0.04153562
Pt       9.82524817       5.67261060      22.29206803        3       0.00000000      -0.00353585      -0.00096070      -0.00034778
Pt      -0.00000054       1.62074568      24.58417374        2       0.00000000      -0.00274670       0.00046650       0.01415589
Pt       2.80721436       1.62074546      24.58417392        2       0.00000000      -0.00001717       0.00004283       0.03614685
Pt       5.61442782       1.62074536      24.58417379        2       0.00000000      -0.00122737       0.00949641       0.01381892
Pt       1.40360636       4.05186439      24.58417387        2       0.00000000      -0.00756177      -0.00595046       0.01383318
Pt       4.21082089       4.05186396      24.58417387        2       0.00000000       0.00184710       0.00206883       0.01402137
Pt       7.01803504       4.05186408      24.58417404        2       0.00000000      -0.00000617      -0.00007100       0.02356546
Pt       2.80721273       6.48298349      24.58417384        2       0.00000000       0.00001815       0.00000303      -0.01666204
Pt       5.61442806       6.48298330      24.58417399        2       0.00000000       0.00891843      -0.00354396       0.01372044
Pt       8.42164222       6.48298344      24.58417375        2       0.00000000       0.00079211      -0.00243323       0.01406899
Pt      -0.00897571      -0.00408995      26.91386250        1       0.00000000       0.00496225      -0.00072489       0.00596989
Pt       2.80763904      -0.04006752      26.91114431        1       0.00000000      -0.00418515       0.00415158       0.00451822
Pt       5.62247102      -0.00571942      26.91386584        1       0.00000000      -0.00188764       0.00470229       0.00594818
Pt       1.36865012       2.45078244      26.91114905        1       0.00000000       0.00566152       0.00159273       0.00398900
Pt       4.24535211       2.45152255      26.91112786        1       0.00000000      -0.00151936      -0.00539191       0.00382709
Pt       7.01768917       2.43218721      26.91796875        1       0.00000000      -0.00573864      -0.00466203       0.00750891
Pt       2.80815728       4.87205145      26.91385825        1       0.00000000      -0.00311958      -0.00400981       0.00609419
Pt       5.61551922       4.86202896      26.91790590        1       0.00000000      -0.00114484       0.00726613       0.00822254
Pt       8.42089031       4.86143583      26.91790861        1       0.00000000       0.00704212      -0.00289372       0.00819584
O        2.80715180       1.62063402      29.30710210        0       0.50000000      -0.00037153      -0.00056452      -0.00610388
H        2.80727581       1.62082700      28.31312718        0       0.50000000       0.00028904       0.00046868       0.00644820
