38
Lattice="8.421641763931781 0.0 0.0 4.2108208819658905 7.293355709136913 0.0 0.0 0.0 46.87624170604845" Properties=species:S:1:pos:R:3:tags:I:1:initial_magmoms:R:1:forces:R:3 charge=0 spin=0 energy=-194.6895289092716 free_energy=-194.6895289092716 stress="0.009698983281850815 4.865594505076842e-08 -3.2355873713640904e-07 4.865594505076842e-08 0.009699130430817604 3.7060598856442084e-07 -3.2355873713640904e-07 3.7060598856442084e-07 -5.1335038733668625e-05" pbc="T T T"
Pt      -0.00000011      -0.00000005      19.95723442        4       0.00000000      -0.00437004      -0.00336284      -0.00048197
Pt       2.80721395      -0.00000019      19.95723450        4       0.00000000       0.00091644      -0.00339391       0.01069346
Pt       5.61442786      -0.00000007      19.95723452        4       0.00000000       0.00509021      -0.00212550      -0.00047648
Pt       1.40360721       2.43111839      19.95723434        4       0.00000000      -0.00341149       0.00090237       0.01072450
Pt       4.21082082       2.43111837      19.95723444        4       0.00000000       0.00249379       0.00249837       0.01071310
Pt       7.01803481       2.43111844      19.95723433        4       0.00000000      -0.00041661      -0.00067519       0.01486586
Pt       2.80721415       4.86223733      19.95723415        4       0.00000000      -0.00071654       0.00548622      -0.00048401
Pt       5.61442796       4.86223739      19.95723433        4       0.00000000      -0.00034101       0.00069560       0.01484411
Pt       8.42164143       4.86223725      19.95723439        4       0.00000000       0.00075817      -0.00002881       0.01483013
Pt       1.40360728       0.81037261      22.29206792        3       0.00000000       0.00513881       0.00327591      -0.04675472
Pt       4.21082128       0.81037249      22.29206789        3       0.00000000      -0.00539801       0.00280201      -0.04679704
Pt       7.01803472       0.81037258      22.29206780        3       0.00000000       0.00073686       0.00376660       0.00132817
Pt       2.80721447       3.24149123      22.29206774        3       0.00000000       0.00024186      -0.00606199      -0.04675750
Pt       5.61442762       3.24149120      22.29206786        3       0.00000000      -0.00181502       0.00128091      -0.04077423
Pt       8.42164156       3.24149131      22.29206806        3       0.00000000      -0.00020592      -0.00218903      -0.04072839
Pt       4.21082090       5.67260998      22.29206740        3       0.00000000       0.00289355      -0.00251737       0.00135820
Pt       7.01803486       5.67261041      22.29206774        3       0.00000000       0.00202616       0.00090942      -0.04076885
Pt       9.82524817       5.67261060      22.29206803        3       0.00000000      -0.00361206      -0.00125897       0.00132893
Pt      -0.00000054       1.62074568      24.58417374        2       0.00000000      -0.01137308       0.00495311       0.03416551
Pt       2.80721436       1.62074546      24.58417392        2       0.00000000       0.00002305      -0.00002407       0.03263541
Pt       5.61442782       1.62074536      24.58417379        2       0.00000000       0.00700959       0.01421041       0.03158260
Pt       1.40360636       4.05186439      24.58417387        2       0.00000000      -0.01582305      -0.00093897       0.03138534
Pt       4.21082089       4.05186396      24.58417387        2       0.00000000       0.01015238       0.00717575       0.03429182
Pt       7.01803504       4.05186408      24.58417404        2       0.00000000       0.00000401      -0.00000697       0.04936732
Pt       2.80721273       6.48298349      24.58417384        2       0.00000000       0.00000957       0.00001175      -0.01373007
Pt       5.61442806       6.48298330      24.58417399        2       0.00000000       0.00886326      -0.01314661       0.03157119
Pt       8.42164222       6.48298344      24.58417375        2       0.00000000       0.00110314      -0.01220467       0.03429536
Pt      -0.00987021      -0.00479775      26.91485789        1       0.00000000       0.00793586       0.00299285      -0.00204075
Pt       2.80712382      -0.04002999      26.91117365        1       0.00000000      -0.00026399      -0.02035134      -0.00992429
Pt       5.62352094      -0.00614993      26.91485565        1       0.00000000      -0.00655839       0.00537484      -0.00204081
Pt       1.36896081       2.45122166      26.91110885        1       0.00000000      -0.01762265       0.01045187      -0.01030661
Pt       4.24553555       2.45106045      26.91115572        1       0.00000000       0.01777532       0.00993779      -0.01003080
Pt       7.01710887       2.43521464      26.92578457        1       0.00000000      -0.00123769      -0.02261928      -0.02764454
Pt       2.80799925       4.87318421      26.91484568        1       0.00000000      -0.00136588      -0.00837044      -0.00208023
Pt       5.61843951       4.86098872      26.92578053        1       0.00000000      -0.01898788       0.01238768      -0.02764787
Pt       8.41855338       4.85939142      26.92578050        1       0.00000000       0.02020546       0.01027011      -0.02763826
O        2.80733865       1.62064093      29.28747905        0       0.50000000       0.00071537      -0.00060996       0.04475306
H        2.80711454       1.62082694      28.29386395        0       0.50000000      -0.00057349       0.00050201      -0.00762661
