38
Lattice="8.421641763931781 0.0 0.0 4.2108208819658905 7.293355709136913 0.0 0.0 0.0 46.87624170604845" Properties=species:S:1:pos:R:3:tags:I:1:initial_magmoms:R:1:forces:R:3 charge=0 spin=0 energy=-194.6902556091007 free_energy=-194.6902556091007 stress="0.009662977419793606 -4.81229367466085e-09 1.7844034516656393e-07 -4.81229367466085e-09 0.00966320838779211 3.986452270510199e-07 1.7844034516656393e-07 3.986452270510199e-07 -0.00012532608525361866" pbc="T T T"
Pt      -0.00000011      -0.00000005      19.95723442        4       0.00000000      -0.00436463      -0.00337025      -0.00028359
Pt       2.80721395      -0.00000019      19.95723450        4       0.00000000       0.00079441      -0.00292848       0.01079588
Pt       5.61442786      -0.00000007      19.95723452        4       0.00000000       0.00509040      -0.00210835      -0.00030331
Pt       1.40360721       2.43111839      19.95723434        4       0.00000000      -0.00294491       0.00077656       0.01082669
Pt       4.21082082       2.43111837      19.95723444        4       0.00000000       0.00215265       0.00215540       0.01081015
Pt       7.01803481       2.43111844      19.95723433        4       0.00000000      -0.00036905      -0.00069367       0.01468452
Pt       2.80721415       4.86223733      19.95723415        4       0.00000000      -0.00073099       0.00547978      -0.00029603
Pt       5.61442796       4.86223739      19.95723433        4       0.00000000      -0.00038146       0.00066007       0.01466421
Pt       8.42164143       4.86223725      19.95723439        4       0.00000000       0.00075243       0.00002221       0.01465053
Pt       1.40360728       0.81037261      22.29206792        3       0.00000000       0.00452783       0.00278519      -0.04372869
Pt       4.21082128       0.81037249      22.29206789        3       0.00000000      -0.00466690       0.00250718      -0.04379157
Pt       7.01803472       0.81037258      22.29206780        3       0.00000000       0.00094241       0.00354814      -0.00035263
Pt       2.80721447       3.24149123      22.29206774        3       0.00000000       0.00012922      -0.00528889      -0.04372672
Pt       5.61442762       3.24149120      22.29206786        3       0.00000000      -0.00127637       0.00149461      -0.04153974
Pt       8.42164156       3.24149131      22.29206806        3       0.00000000      -0.00066191      -0.00183138      -0.04147245
Pt       4.21082090       5.67260998      22.29206740        3       0.00000000       0.00259642      -0.00259682      -0.00034149
Pt       7.01803486       5.67261041      22.29206774        3       0.00000000       0.00194086       0.00033539      -0.04153578
Pt       9.82524817       5.67261060      22.29206803        3       0.00000000      -0.00353603      -0.00096041      -0.00034707
Pt      -0.00000054       1.62074568      24.58417374        2       0.00000000      -0.00274769       0.00046508       0.01415338
Pt       2.80721436       1.62074546      24.58417392        2       0.00000000      -0.00001693       0.00004334       0.03613925
Pt       5.61442782       1.62074536      24.58417379        2       0.00000000      -0.00122501       0.00949501       0.01381514
Pt       1.40360636       4.05186439      24.58417387        2       0.00000000      -0.00756185      -0.00594829       0.01382991
Pt       4.21082089       4.05186396      24.58417387        2       0.00000000       0.00184668       0.00207123       0.01401732
Pt       7.01803504       4.05186408      24.58417404        2       0.00000000      -0.00000623      -0.00007050       0.02356422
Pt       2.80721273       6.48298349      24.58417384        2       0.00000000       0.00001836       0.00000365      -0.01666329
Pt       5.61442806       6.48298330      24.58417399        2       0.00000000       0.00891605      -0.00354563       0.01371783
Pt       8.42164222       6.48298344      24.58417375        2       0.00000000       0.00079491      -0.00243483       0.01406396
Pt      -0.00897593      -0.00409010      26.91386281        1       0.00000000       0.00496308      -0.00072557       0.00596896
Pt       2.80763962      -0.04006811      26.91114310        1       0.00000000      -0.00418814       0.00415323       0.00452683
Pt       5.62247095      -0.00571923      26.91386634        1       0.00000000      -0.00188662       0.00470323       0.00595087
Pt       1.36865002       2.45078291      26.91114743        1       0.00000000       0.00566412       0.00158998       0.00400391
Pt       4.24535291       2.45152289      26.91112590        1       0.00000000      -0.00151936      -0.00539360       0.00383459
Pt       7.01768948       2.43218762      26.91796908        1       0.00000000      -0.00574101      -0.00466378       0.00750954
Pt       2.80815716       4.87205157      26.91385835        1       0.00000000      -0.00311789      -0.00401058       0.00609551
Pt       5.61551914       4.86202870      26.91790656        1       0.00000000      -0.00114329       0.00727017       0.00822057
Pt       8.42088993       4.86143604      26.91790839        1       0.00000000       0.00704147      -0.00289372       0.00819767
O        2.80715012       1.62063512      29.30710015        0       0.50000000      -0.00038097      -0.00055904      -0.00617946
H        2.80727694       1.62082596      28.31312399        0       0.50000000       0.00029582       0.00046430       0.00652017
