38
Lattice="8.421641763931781 0.0 0.0 4.2108208819658905 7.293355709136913 0.0 0.0 0.0 46.87624170604845" Properties=species:S:1:pos:R:3:tags:I:1:initial_magmoms:R:1:forces:R:3 charge=0 spin=0 energy=-194.68953081662022 free_energy=-194.68953081662022 stress="0.009698987938463688 5.2052861576612486e-08 -3.3685228117974475e-07 5.2052861576612486e-08 0.009699119254946709 3.2934039495557954e-07 -3.3685228117974475e-07 3.2934039495557954e-07 -5.141133806318976e-05" pbc="T T T"
Pt      -0.00000011      -0.00000005      19.95723442        4       0.00000000      -0.00436988      -0.00336256      -0.00048270
Pt       2.80721395      -0.00000019      19.95723450        4       0.00000000       0.00091651      -0.00339401       0.01069329
Pt       5.61442786      -0.00000007      19.95723452        4       0.00000000       0.00509033      -0.00212573      -0.00047610
Pt       1.40360721       2.43111839      19.95723434        4       0.00000000      -0.00341186       0.00090254       0.01072442
Pt       4.21082082       2.43111837      19.95723444        4       0.00000000       0.00249409       0.00249838       0.01071307
Pt       7.01803481       2.43111844      19.95723433        4       0.00000000      -0.00041627      -0.00067527       0.01486588
Pt       2.80721415       4.86223733      19.95723415        4       0.00000000      -0.00071653       0.00548649      -0.00048331
Pt       5.61442796       4.86223739      19.95723433        4       0.00000000      -0.00034120       0.00069570       0.01484389
Pt       8.42164143       4.86223725      19.95723439        4       0.00000000       0.00075810      -0.00002884       0.01483030
Pt       1.40360728       0.81037261      22.29206792        3       0.00000000       0.00513920       0.00327539      -0.04675573
Pt       4.21082128       0.81037249      22.29206789        3       0.00000000      -0.00539855       0.00280194      -0.04679761
Pt       7.01803472       0.81037258      22.29206780        3       0.00000000       0.00073719       0.00376655       0.00132899
Pt       2.80721447       3.24149123      22.29206774        3       0.00000000       0.00024190      -0.00606209      -0.04675738
Pt       5.61442762       3.24149120      22.29206786        3       0.00000000      -0.00181533       0.00128129      -0.04077379
Pt       8.42164156       3.24149131      22.29206806        3       0.00000000      -0.00020572      -0.00218900      -0.04072762
Pt       4.21082090       5.67260998      22.29206740        3       0.00000000       0.00289377      -0.00251700       0.00135791
Pt       7.01803486       5.67261041      22.29206774        3       0.00000000       0.00202577       0.00090946      -0.04076943
Pt       9.82524817       5.67261060      22.29206803        3       0.00000000      -0.00361259      -0.00125875       0.00132891
Pt      -0.00000054       1.62074568      24.58417374        2       0.00000000      -0.01137365       0.00495292       0.03416782
Pt       2.80721436       1.62074546      24.58417392        2       0.00000000       0.00002456      -0.00002351       0.03263792
Pt       5.61442782       1.62074536      24.58417379        2       0.00000000       0.00700467       0.01421271       0.03159277
Pt       1.40360636       4.05186439      24.58417387        2       0.00000000      -0.01582413      -0.00093432       0.03138844
Pt       4.21082089       4.05186396      24.58417387        2       0.00000000       0.01015112       0.00717110       0.03430054
Pt       7.01803504       4.05186408      24.58417404        2       0.00000000       0.00000555      -0.00000561       0.04936204
Pt       2.80721273       6.48298349      24.58417384        2       0.00000000       0.00000823       0.00001230      -0.01373281
Pt       5.61442806       6.48298330      24.58417399        2       0.00000000       0.00886044      -0.01314926       0.03156384
Pt       8.42164222       6.48298344      24.58417375        2       0.00000000       0.00110935      -0.01220886       0.03429064
Pt      -0.00987112      -0.00479826      26.91485777        1       0.00000000       0.00794065       0.00299616      -0.00203916
Pt       2.80712425      -0.04003096      26.91117159        1       0.00000000      -0.00026822      -0.02036373      -0.00994654
Pt       5.62352200      -0.00615072      26.91485587        1       0.00000000      -0.00656547       0.00538067      -0.00204202
Pt       1.36896044       2.45122221      26.91110861        1       0.00000000      -0.01760878       0.01045308      -0.01030803
Pt       4.24553464       2.45105993      26.91115850        1       0.00000000       0.01776644       0.00994129      -0.01002035
Pt       7.01710889       2.43521654      26.92578567        1       0.00000000      -0.00124410      -0.02263330      -0.02764095
Pt       2.80799906       4.87318552      26.91484560        1       0.00000000      -0.00136113      -0.00838421      -0.00208649
Pt       5.61844124       4.86098769      26.92578197        1       0.00000000      -0.01900192       0.01239375      -0.02764511
Pt       8.41855163       4.85939035      26.92578242        1       0.00000000       0.02021601       0.01027734      -0.02764524
O        2.80734569       1.62064931      29.28747771        0       0.50000000       0.00073159      -0.00052868       0.04497520
H        2.80710834       1.62081976      28.29386777        0       0.50000000      -0.00057987       0.00043561      -0.00783569
