38
Lattice="8.421641763931781 0.0 0.0 4.2108208819658905 7.293355709136913 0.0 0.0 0.0 46.87624170604845" Properties=species:S:1:pos:R:3:tags:I:1:initial_magmoms:R:1:forces:R:3 charge=0 spin=0 energy=-194.68892237240635 free_energy=-194.68892237240635 stress="0.009775787591934204 3.8108026956251706e-08 4.705829326212552e-08 3.8108026956251706e-08 0.009775781072676182 1.398354498860499e-07 4.705829326212552e-08 1.398354498860499e-07 5.0365029892418534e-05" pbc="T T T"
Pt      -0.00000011      -0.00000005      19.95723442        4       0.00000000      -0.00429968      -0.00317899      -0.00011465
Pt       2.80721395      -0.00000019      19.95723450        4       0.00000000       0.00091945      -0.00231306       0.01102380
Pt       5.61442786      -0.00000007      19.95723452        4       0.00000000       0.00489196      -0.00216694      -0.00012771
Pt       1.40360721       2.43111839      19.95723434        4       0.00000000      -0.00246964       0.00035999       0.01104318
Pt       4.21082082       2.43111837      19.95723444        4       0.00000000       0.00154722       0.00195775       0.01102927
Pt       7.01803481       2.43111844      19.95723433        4       0.00000000      -0.00039337      -0.00009016       0.01477735
Pt       2.80721415       4.86223733      19.95723415        4       0.00000000      -0.00058699       0.00533085      -0.00013974
Pt       5.61442796       4.86223739      19.95723433        4       0.00000000       0.00014480       0.00038967       0.01476453
Pt       8.42164143       4.86223725      19.95723439        4       0.00000000       0.00024732      -0.00029483       0.01474737
Pt       1.40360728       0.81037261      22.29206792        3       0.00000000       0.00413983       0.00260063      -0.04255635
Pt       4.21082128       0.81037249      22.29206789        3       0.00000000      -0.00427878       0.00231537      -0.04261977
Pt       7.01803472       0.81037258      22.29206780        3       0.00000000       0.00118285       0.00248301      -0.00466141
Pt       2.80721447       3.24149123      22.29206774        3       0.00000000       0.00011784      -0.00485029      -0.04267975
Pt       5.61442762       3.24149120      22.29206786        3       0.00000000      -0.00186026       0.00138310      -0.03925414
Pt       8.42164156       3.24149131      22.29206806        3       0.00000000      -0.00028375      -0.00228190      -0.03921133
Pt       4.21082090       5.67260998      22.29206740        3       0.00000000       0.00153422      -0.00228045      -0.00456171
Pt       7.01803486       5.67261041      22.29206774        3       0.00000000       0.00215940       0.00087374      -0.03909137
Pt       9.82524817       5.67261060      22.29206803        3       0.00000000      -0.00269132      -0.00023996      -0.00461903
Pt      -0.00000054       1.62074568      24.58417374        2       0.00000000       0.00254306       0.01338612       0.03081033
Pt       2.80721436       1.62074546      24.58417392        2       0.00000000      -0.00000269      -0.00029157       0.07656522
Pt       5.61442782       1.62074536      24.58417379        2       0.00000000      -0.00799365       0.01949479       0.02723937
Pt       1.40360636       4.05186439      24.58417387        2       0.00000000      -0.01310489      -0.01644373       0.02776691
Pt       4.21082089       4.05186396      24.58417387        2       0.00000000       0.01085147      -0.00866403       0.03138268
Pt       7.01803504       4.05186408      24.58417404        2       0.00000000      -0.00005214       0.00040209       0.06580127
Pt       2.80721273       6.48298349      24.58417384        2       0.00000000       0.00006912      -0.00011888       0.00391178
Pt       5.61442806       6.48298330      24.58417399        2       0.00000000       0.02119370      -0.00303749       0.02825611
Pt       8.42164222       6.48298344      24.58417375        2       0.00000000      -0.01350634      -0.00468936       0.03163033
Pt      -0.00381454       0.00005858      26.91286279        1       0.00000000      -0.02975892      -0.02361599       0.00915742
Pt       2.80666966      -0.04004961      26.92063446        1       0.00000000       0.00305810       0.01208625      -0.03253242
Pt       5.61620727      -0.00334749      26.91279538        1       0.00000000       0.03540704      -0.01416993       0.00944387
Pt       1.36916302       2.45157836      26.92036372        1       0.00000000       0.00916943      -0.00870410      -0.03172052
Pt       4.24575497       2.45074084      26.92035289        1       0.00000000      -0.01204586      -0.00356694      -0.03171991
Pt       7.01551766       2.42674376      26.92178581        1       0.00000000       0.00830705       0.03863042      -0.01649739
Pt       2.80920134       4.86546635      26.91290772        1       0.00000000      -0.00542304       0.03772584       0.00895364
Pt       5.61196190       4.86663113      26.92214225        1       0.00000000       0.02892953      -0.02651012      -0.01802162
Pt       8.42671193       4.86223219      26.92208645        1       0.00000000      -0.03767211      -0.01190217      -0.01774685
O        2.80721204       1.62066060      29.32965665        0       0.50000000      -0.00004761      -0.00079787      -0.02422394
H        2.80722356       1.62083791      28.33578701        0       0.50000000       0.00005741       0.00078899       0.00379507
