38
Lattice="8.421641763931781 0.0 0.0 4.2108208819658905 7.293355709136913 0.0 0.0 0.0 46.87624170604845" Properties=species:S:1:pos:R:3:tags:I:1:initial_magmoms:R:1:forces:R:3 charge=0 spin=0 energy=-194.68891665036045 free_energy=-194.68891665036045 stress="0.009775779210031033 3.5559882149982514e-08 4.679307963328938e-08 3.5559882149982514e-08 0.009775769896805286 1.411716539223562e-07 4.679307963328938e-08 1.411716539223562e-07 5.037635492044501e-05" pbc="T T T"
Pt      -0.00000011      -0.00000005      19.95723442        4       0.00000000      -0.00429971      -0.00317912      -0.00011467
Pt       2.80721395      -0.00000019      19.95723450        4       0.00000000       0.00091954      -0.00231323       0.01102370
Pt       5.61442786      -0.00000007      19.95723452        4       0.00000000       0.00489191      -0.00216704      -0.00012778
Pt       1.40360721       2.43111839      19.95723434        4       0.00000000      -0.00246956       0.00036002       0.01104304
Pt       4.21082082       2.43111837      19.95723444        4       0.00000000       0.00154707       0.00195776       0.01102908
Pt       7.01803481       2.43111844      19.95723433        4       0.00000000      -0.00039334      -0.00009005       0.01477748
Pt       2.80721415       4.86223733      19.95723415        4       0.00000000      -0.00058715       0.00533090      -0.00013991
Pt       5.61442796       4.86223739      19.95723433        4       0.00000000       0.00014493       0.00038963       0.01476451
Pt       8.42164143       4.86223725      19.95723439        4       0.00000000       0.00024728      -0.00029484       0.01474735
Pt       1.40360728       0.81037261      22.29206792        3       0.00000000       0.00413975       0.00260040      -0.04255629
Pt       4.21082128       0.81037249      22.29206789        3       0.00000000      -0.00427892       0.00231546      -0.04261972
Pt       7.01803472       0.81037258      22.29206780        3       0.00000000       0.00118255       0.00248333      -0.00466189
Pt       2.80721447       3.24149123      22.29206774        3       0.00000000       0.00011801      -0.00485043      -0.04267950
Pt       5.61442762       3.24149120      22.29206786        3       0.00000000      -0.00186020       0.00138308      -0.03925367
Pt       8.42164156       3.24149131      22.29206806        3       0.00000000      -0.00028371      -0.00228211      -0.03921176
Pt       4.21082090       5.67260998      22.29206740        3       0.00000000       0.00153427      -0.00228000      -0.00456066
Pt       7.01803486       5.67261041      22.29206774        3       0.00000000       0.00215907       0.00087339      -0.03909248
Pt       9.82524817       5.67261060      22.29206803        3       0.00000000      -0.00269154      -0.00023966      -0.00461861
Pt      -0.00000054       1.62074568      24.58417374        2       0.00000000       0.00254441       0.01338714       0.03081113
Pt       2.80721436       1.62074546      24.58417392        2       0.00000000      -0.00000288      -0.00029102       0.07656421
Pt       5.61442782       1.62074536      24.58417379        2       0.00000000      -0.00799448       0.01949572       0.02723970
Pt       1.40360636       4.05186439      24.58417387        2       0.00000000      -0.01310596      -0.01644399       0.02776549
Pt       4.21082089       4.05186396      24.58417387        2       0.00000000       0.01085167      -0.00866489       0.03137896
Pt       7.01803504       4.05186408      24.58417404        2       0.00000000      -0.00005320       0.00040272       0.06580456
Pt       2.80721273       6.48298349      24.58417384        2       0.00000000       0.00007011      -0.00011980       0.00391105
Pt       5.61442806       6.48298330      24.58417399        2       0.00000000       0.02119231      -0.00303723       0.02825304
Pt       8.42164222       6.48298344      24.58417375        2       0.00000000      -0.01350298      -0.00468984       0.03162938
Pt      -0.00381398       0.00005923      26.91286207        1       0.00000000      -0.02975792      -0.02361645       0.00915765
Pt       2.80667027      -0.04005171      26.92063395        1       0.00000000       0.00305575       0.01209348      -0.03252557
Pt       5.61620895      -0.00334709      26.91279645        1       0.00000000       0.03539551      -0.01417279       0.00944338
Pt       1.36916310       2.45157937      26.92036391        1       0.00000000       0.00916578      -0.00870813      -0.03172245
Pt       4.24575503       2.45074145      26.92035264        1       0.00000000      -0.01204058      -0.00357188      -0.03172156
Pt       7.01551790       2.42674372      26.92178612        1       0.00000000       0.00830699       0.03863484      -0.01649764
Pt       2.80920101       4.86546536      26.91290774        1       0.00000000      -0.00542598       0.03773423       0.00895557
Pt       5.61195886       4.86663178      26.92214147        1       0.00000000       0.02894637      -0.02651470      -0.01802154
Pt       8.42671243       4.86223240      26.92208679        1       0.00000000      -0.03767434      -0.01190232      -0.01774774
O        2.80721202       1.62066072      29.32964998        0       0.50000000      -0.00004835      -0.00079615      -0.02429001
H        2.80722358       1.62083805      28.33577957        0       0.50000000       0.00005736       0.00078350       0.00386441
