38
Lattice="8.421641763931781 0.0 0.0 4.2108208819658905 7.293355709136913 0.0 0.0 0.0 46.87624170604845" Properties=species:S:1:pos:R:3:tags:I:1:initial_magmoms:R:1:forces:R:3 charge=0 spin=0 energy=-194.6902918487247 free_energy=-194.6902918487247 stress="0.009694733656942844 -6.346657954736656e-08 6.608618718928483e-08 -6.346657954736656e-08 0.009694593027234077 -3.3460974435683966e-08 6.608618718928483e-08 -3.3460974435683966e-08 -8.110785711323842e-05" pbc="T T T"
Pt      -0.00000011      -0.00000005      19.95723442        4       0.00000000      -0.00438426      -0.00331834      -0.00029841
Pt       2.80721395      -0.00000019      19.95723450        4       0.00000000       0.00086076      -0.00285184       0.01082847
Pt       5.61442786      -0.00000007      19.95723452        4       0.00000000       0.00505619      -0.00215360      -0.00031312
Pt       1.40360721       2.43111839      19.95723434        4       0.00000000      -0.00291377       0.00068211       0.01086061
Pt       4.21082082       2.43111837      19.95723444        4       0.00000000       0.00205367       0.00217428       0.01084494
Pt       7.01803481       2.43111844      19.95723433        4       0.00000000      -0.00032881      -0.00062477       0.01473331
Pt       2.80721415       4.86223733      19.95723415        4       0.00000000      -0.00067580       0.00548040      -0.00028670
Pt       5.61442796       4.86223739      19.95723433        4       0.00000000      -0.00033984       0.00059212       0.01471540
Pt       8.42164143       4.86223725      19.95723439        4       0.00000000       0.00066947       0.00002284       0.01470049
Pt       1.40360728       0.81037261      22.29206792        3       0.00000000       0.00453221       0.00283417      -0.04384003
Pt       4.21082128       0.81037249      22.29206789        3       0.00000000      -0.00470804       0.00249717      -0.04389836
Pt       7.01803472       0.81037258      22.29206780        3       0.00000000       0.00094244       0.00351630      -0.00069633
Pt       2.80721447       3.24149123      22.29206774        3       0.00000000       0.00016392      -0.00531883      -0.04383458
Pt       5.61442762       3.24149120      22.29206786        3       0.00000000      -0.00138917       0.00151324      -0.04138372
Pt       8.42164156       3.24149131      22.29206806        3       0.00000000      -0.00062107      -0.00193432      -0.04132403
Pt       4.21082090       5.67260998      22.29206740        3       0.00000000       0.00256983      -0.00257370      -0.00069301
Pt       7.01803486       5.67261041      22.29206774        3       0.00000000       0.00200645       0.00042422      -0.04138360
Pt       9.82524817       5.67261060      22.29206803        3       0.00000000      -0.00350887      -0.00094212      -0.00070260
Pt      -0.00000054       1.62074568      24.58417374        2       0.00000000      -0.00332099       0.00256742       0.02252284
Pt       2.80721436       1.62074546      24.58417392        2       0.00000000      -0.00000256       0.00001686       0.04169310
Pt       5.61442782       1.62074536      24.58417379        2       0.00000000      -0.00090260       0.01130963       0.01927152
Pt       1.40360636       4.05186439      24.58417387        2       0.00000000      -0.00936763      -0.00646256       0.01920842
Pt       4.21082089       4.05186396      24.58417387        2       0.00000000       0.00404132       0.00156902       0.02240167
Pt       7.01803504       4.05186408      24.58417404        2       0.00000000      -0.00000247       0.00001507       0.03885645
Pt       2.80721273       6.48298349      24.58417384        2       0.00000000       0.00001324       0.00000884      -0.01024510
Pt       5.61442806       6.48298330      24.58417399        2       0.00000000       0.01018251      -0.00490659       0.01905254
Pt       8.42164222       6.48298344      24.58417375        2       0.00000000      -0.00062073      -0.00414289       0.02233572
Pt      -0.00820244      -0.00402610      26.91460889        1       0.00000000      -0.00055741      -0.00084973       0.00224531
Pt       2.80707125      -0.03993471      26.91254055        1       0.00000000       0.00026606      -0.00050169      -0.00396992
Pt       5.62201437      -0.00508981      26.91460946        1       0.00000000       0.00099746      -0.00007192       0.00224194
Pt       1.36911074       2.45119319      26.91257370        1       0.00000000      -0.00046379      -0.00004051      -0.00369937
Pt       4.24545890       2.45095607      26.91256251        1       0.00000000       0.00021620       0.00044809      -0.00377213
Pt       7.01695549       2.43104949      26.92008126        1       0.00000000      -0.00004516       0.00557713      -0.00409081
Pt       2.80783408       4.87135493      26.91459230        1       0.00000000      -0.00045018       0.00090616       0.00246454
Pt       5.61491242       4.86320299      26.92008401        1       0.00000000       0.00485796      -0.00275044      -0.00385633
Pt       8.42223910       4.86133406      26.92008305        1       0.00000000      -0.00479109      -0.00285915      -0.00386413
O        2.80718445       1.62087487      29.30750724        0       0.50000000      -0.00016512       0.00071955       0.01969554
H        2.80723751       1.62063822      28.31416329        0       0.50000000       0.00012953      -0.00057132      -0.01652057
