38
Lattice="8.421641763931781 0.0 0.0 4.2108208819658905 7.293355709136913 0.0 0.0 0.0 46.87624170604845" Properties=species:S:1:pos:R:3:tags:I:1:initial_magmoms:R:1:forces:R:3 charge=0 spin=0 energy=-194.69028994137608 free_energy=-194.69028994137608 stress="0.00969473086297512 -6.09488139957648e-08 5.354689136538582e-08 -6.09488139957648e-08 0.009694588370621204 -3.1029284031092175e-08 5.354689136538582e-08 -3.1029284031092175e-08 -8.106774475891143e-05" pbc="T T T"
Pt      -0.00000011      -0.00000005      19.95723442        4       0.00000000      -0.00438419      -0.00331831      -0.00029871
Pt       2.80721395      -0.00000019      19.95723450        4       0.00000000       0.00086070      -0.00285185       0.01082858
Pt       5.61442786      -0.00000007      19.95723452        4       0.00000000       0.00505640      -0.00215367      -0.00031262
Pt       1.40360721       2.43111839      19.95723434        4       0.00000000      -0.00291375       0.00068198       0.01086061
Pt       4.21082082       2.43111837      19.95723444        4       0.00000000       0.00205362       0.00217413       0.01084494
Pt       7.01803481       2.43111844      19.95723433        4       0.00000000      -0.00032875      -0.00062477       0.01473329
Pt       2.80721415       4.86223733      19.95723415        4       0.00000000      -0.00067575       0.00548052      -0.00028683
Pt       5.61442796       4.86223739      19.95723433        4       0.00000000      -0.00033985       0.00059221       0.01471527
Pt       8.42164143       4.86223725      19.95723439        4       0.00000000       0.00066941       0.00002298       0.01470047
Pt       1.40360728       0.81037261      22.29206792        3       0.00000000       0.00453219       0.00283433      -0.04383978
Pt       4.21082128       0.81037249      22.29206789        3       0.00000000      -0.00470770       0.00249707      -0.04389779
Pt       7.01803472       0.81037258      22.29206780        3       0.00000000       0.00094260       0.00351632      -0.00069624
Pt       2.80721447       3.24149123      22.29206774        3       0.00000000       0.00016360      -0.00531845      -0.04383385
Pt       5.61442762       3.24149120      22.29206786        3       0.00000000      -0.00138897       0.00151349      -0.04138355
Pt       8.42164156       3.24149131      22.29206806        3       0.00000000      -0.00062095      -0.00193404      -0.04132515
Pt       4.21082090       5.67260998      22.29206740        3       0.00000000       0.00256953      -0.00257391      -0.00069231
Pt       7.01803486       5.67261041      22.29206774        3       0.00000000       0.00200690       0.00042401      -0.04138399
Pt       9.82524817       5.67261060      22.29206803        3       0.00000000      -0.00350913      -0.00094231      -0.00070382
Pt      -0.00000054       1.62074568      24.58417374        2       0.00000000      -0.00331976       0.00256327       0.02252158
Pt       2.80721436       1.62074546      24.58417392        2       0.00000000      -0.00000319       0.00001672       0.04169220
Pt       5.61442782       1.62074536      24.58417379        2       0.00000000      -0.00090560       0.01130902       0.01926942
Pt       1.40360636       4.05186439      24.58417387        2       0.00000000      -0.00936538      -0.00646202       0.01920335
Pt       4.21082089       4.05186396      24.58417387        2       0.00000000       0.00404130       0.00156778       0.02240210
Pt       7.01803504       4.05186408      24.58417404        2       0.00000000      -0.00000464       0.00001579       0.03885205
Pt       2.80721273       6.48298349      24.58417384        2       0.00000000       0.00001572       0.00001043      -0.01024114
Pt       5.61442806       6.48298330      24.58417399        2       0.00000000       0.01018135      -0.00490541       0.01905499
Pt       8.42164222       6.48298344      24.58417375        2       0.00000000      -0.00062089      -0.00413978       0.02233209
Pt      -0.00820199      -0.00402600      26.91460912        1       0.00000000      -0.00056404      -0.00084921       0.00223670
Pt       2.80707091      -0.03993471      26.91254084        1       0.00000000       0.00026812      -0.00050130      -0.00396704
Pt       5.62201468      -0.00508986      26.91460920        1       0.00000000       0.00099964      -0.00007381       0.00224107
Pt       1.36911016       2.45119339      26.91257282        1       0.00000000      -0.00046520      -0.00003862      -0.00370993
Pt       4.24545877       2.45095600      26.91256349        1       0.00000000       0.00021308       0.00044542      -0.00376110
Pt       7.01695519       2.43104908      26.92008079        1       0.00000000      -0.00004456       0.00557891      -0.00408175
Pt       2.80783379       4.87135507      26.91459224        1       0.00000000      -0.00045069       0.00090855       0.00246416
Pt       5.61491185       4.86320319      26.92008321        1       0.00000000       0.00485953      -0.00275049      -0.00385711
Pt       8.42223953       4.86133432      26.92008180        1       0.00000000      -0.00479131      -0.00286189      -0.00385457
O        2.80719022       1.62087393      29.30750620        0       0.50000000      -0.00013635       0.00071533       0.01955253
H        2.80723324       1.62063862      28.31415997        0       0.50000000       0.00010672      -0.00056794      -0.01637811
