38
Lattice="8.421641763931781 0.0 0.0 4.2108208819658905 7.293355709136913 0.0 0.0 0.0 46.87624170604845" Properties=species:S:1:pos:R:3:tags:I:1:initial_magmoms:R:1:forces:R:3 charge=0 spin=0 energy=-194.68892237240635 free_energy=-194.68892237240635 stress="0.00977576244622469 3.869719122917559e-08 4.4963183398749607e-08 3.869719122917559e-08 0.00977576058357954 1.4173826912156073e-07 4.4963183398749607e-08 1.4173826912156073e-07 5.036226866650395e-05" pbc="T T T"
Pt      -0.00000011      -0.00000005      19.95723442        4       0.00000000      -0.00429978      -0.00317898      -0.00011482
Pt       2.80721395      -0.00000019      19.95723450        4       0.00000000       0.00091949      -0.00231300       0.01102361
Pt       5.61442786      -0.00000007      19.95723452        4       0.00000000       0.00489208      -0.00216709      -0.00012771
Pt       1.40360721       2.43111839      19.95723434        4       0.00000000      -0.00246946       0.00035995       0.01104299
Pt       4.21082082       2.43111837      19.95723444        4       0.00000000       0.00154726       0.00195776       0.01102934
Pt       7.01803481       2.43111844      19.95723433        4       0.00000000      -0.00039350      -0.00009026       0.01477755
Pt       2.80721415       4.86223733      19.95723415        4       0.00000000      -0.00058695       0.00533094      -0.00013991
Pt       5.61442796       4.86223739      19.95723433        4       0.00000000       0.00014477       0.00038957       0.01476446
Pt       8.42164143       4.86223725      19.95723439        4       0.00000000       0.00024729      -0.00029471       0.01474737
Pt       1.40360728       0.81037261      22.29206792        3       0.00000000       0.00413979       0.00260063      -0.04255699
Pt       4.21082128       0.81037249      22.29206789        3       0.00000000      -0.00427926       0.00231555      -0.04261946
Pt       7.01803472       0.81037258      22.29206780        3       0.00000000       0.00118260       0.00248291      -0.00466113
Pt       2.80721447       3.24149123      22.29206774        3       0.00000000       0.00011794      -0.00485032      -0.04268048
Pt       5.61442762       3.24149120      22.29206786        3       0.00000000      -0.00186052       0.00138329      -0.03925337
Pt       8.42164156       3.24149131      22.29206806        3       0.00000000      -0.00028347      -0.00228198      -0.03921143
Pt       4.21082090       5.67260998      22.29206740        3       0.00000000       0.00153417      -0.00228045      -0.00456066
Pt       7.01803486       5.67261041      22.29206774        3       0.00000000       0.00215927       0.00087392      -0.03909325
Pt       9.82524817       5.67261060      22.29206803        3       0.00000000      -0.00269176      -0.00024005      -0.00461814
Pt      -0.00000054       1.62074568      24.58417374        2       0.00000000       0.00254179       0.01338555       0.03080770
Pt       2.80721436       1.62074546      24.58417392        2       0.00000000      -0.00000042      -0.00029162       0.07656166
Pt       5.61442782       1.62074536      24.58417379        2       0.00000000      -0.00799423       0.01949589       0.02723937
Pt       1.40360636       4.05186439      24.58417387        2       0.00000000      -0.01310755      -0.01644300       0.02776026
Pt       4.21082089       4.05186396      24.58417387        2       0.00000000       0.01085333      -0.00866637       0.03137712
Pt       7.01803504       4.05186408      24.58417404        2       0.00000000      -0.00005360       0.00040290       0.06580432
Pt       2.80721273       6.48298349      24.58417384        2       0.00000000       0.00007019      -0.00011645       0.00390591
Pt       5.61442806       6.48298330      24.58417399        2       0.00000000       0.02119295      -0.00303804       0.02825342
Pt       8.42164222       6.48298344      24.58417375        2       0.00000000      -0.01350367      -0.00468977       0.03162938
Pt      -0.00381453       0.00005890      26.91286297        1       0.00000000      -0.02975702      -0.02361479       0.00915729
Pt       2.80666997      -0.04005106      26.92063389        1       0.00000000       0.00305786       0.01208683      -0.03252786
Pt       5.61620920      -0.00334739      26.91279659        1       0.00000000       0.03539530      -0.01417169       0.00944393
Pt       1.36916315       2.45157889      26.92036329        1       0.00000000       0.00916439      -0.00870411      -0.03171628
Pt       4.24575616       2.45074133      26.92035219        1       0.00000000      -0.01204414      -0.00356983      -0.03172364
Pt       7.01551783       2.42674408      26.92178619        1       0.00000000       0.00830904       0.03863365      -0.01649614
Pt       2.80920134       4.86546654      26.91290758        1       0.00000000      -0.00542587       0.03772584       0.00896378
Pt       5.61195904       4.86663136      26.92214137        1       0.00000000       0.02894774      -0.02651094      -0.01802118
Pt       8.42671166       4.86223200      26.92208674        1       0.00000000      -0.03767538      -0.01190087      -0.01774826
O        2.80721212       1.62066036      29.32964699        0       0.50000000      -0.00004599      -0.00079830      -0.02428356
H        2.80722343       1.62083821      28.33577514        0       0.50000000       0.00005540       0.00078740       0.00386437
