38
Lattice="8.421641763931781 0.0 0.0 4.2108208819658905 7.293355709136913 0.0 0.0 0.0 46.87624170604845" Properties=species:S:1:pos:R:3:tags:I:1:initial_magmoms:R:1:forces:R:3 charge=0 spin=0 energy=-194.69029375607334 free_energy=-194.69029375607334 stress="0.00969474297016859 -6.263852725396646e-08 6.630194349099838e-08 -6.263852725396646e-08 0.009694602340459824 -2.9728973061082797e-08 6.630194349099838e-08 -2.9728973061082797e-08 -8.108713518595323e-05" pbc="T T T"
Pt      -0.00000011      -0.00000005      19.95723442        4       0.00000000      -0.00438430      -0.00331852      -0.00029841
Pt       2.80721395      -0.00000019      19.95723450        4       0.00000000       0.00086064      -0.00285191       0.01082851
Pt       5.61442786      -0.00000007      19.95723452        4       0.00000000       0.00505627      -0.00215350      -0.00031289
Pt       1.40360721       2.43111839      19.95723434        4       0.00000000      -0.00291370       0.00068193       0.01086057
Pt       4.21082082       2.43111837      19.95723444        4       0.00000000       0.00205375       0.00217430       0.01084501
Pt       7.01803481       2.43111844      19.95723433        4       0.00000000      -0.00032888      -0.00062485       0.01473329
Pt       2.80721415       4.86223733      19.95723415        4       0.00000000      -0.00067568       0.00548018      -0.00028666
Pt       5.61442796       4.86223739      19.95723433        4       0.00000000      -0.00033991       0.00059209       0.01471531
Pt       8.42164143       4.86223725      19.95723439        4       0.00000000       0.00066938       0.00002284       0.01470066
Pt       1.40360728       0.81037261      22.29206792        3       0.00000000       0.00453210       0.00283404      -0.04383894
Pt       4.21082128       0.81037249      22.29206789        3       0.00000000      -0.00470759       0.00249679      -0.04389795
Pt       7.01803472       0.81037258      22.29206780        3       0.00000000       0.00094235       0.00351600      -0.00069706
Pt       2.80721447       3.24149123      22.29206774        3       0.00000000       0.00016410      -0.00531801      -0.04383297
Pt       5.61442762       3.24149120      22.29206786        3       0.00000000      -0.00138901       0.00151365      -0.04138426
Pt       8.42164156       3.24149131      22.29206806        3       0.00000000      -0.00062102      -0.00193403      -0.04132405
Pt       4.21082090       5.67260998      22.29206740        3       0.00000000       0.00256952      -0.00257393      -0.00069352
Pt       7.01803486       5.67261041      22.29206774        3       0.00000000       0.00200652       0.00042421      -0.04138330
Pt       9.82524817       5.67261060      22.29206803        3       0.00000000      -0.00350905      -0.00094236      -0.00070352
Pt      -0.00000054       1.62074568      24.58417374        2       0.00000000      -0.00331713       0.00256805       0.02252201
Pt       2.80721436       1.62074546      24.58417392        2       0.00000000      -0.00000433       0.00001626       0.04169737
Pt       5.61442782       1.62074536      24.58417379        2       0.00000000      -0.00090455       0.01130818       0.01926912
Pt       1.40360636       4.05186439      24.58417387        2       0.00000000      -0.00936562      -0.00646601       0.01920867
Pt       4.21082089       4.05186396      24.58417387        2       0.00000000       0.00403928       0.00156784       0.02239742
Pt       7.01803504       4.05186408      24.58417404        2       0.00000000      -0.00000334       0.00001460       0.03884986
Pt       2.80721273       6.48298349      24.58417384        2       0.00000000       0.00001351       0.00000920      -0.01024403
Pt       5.61442806       6.48298330      24.58417399        2       0.00000000       0.01018529      -0.00490279       0.01905139
Pt       8.42164222       6.48298344      24.58417375        2       0.00000000      -0.00062339      -0.00413827       0.02233664
Pt      -0.00820186      -0.00402586      26.91460880        1       0.00000000      -0.00056304      -0.00085050       0.00224662
Pt       2.80707094      -0.03993405      26.91254162        1       0.00000000       0.00026980      -0.00050123      -0.00397497
Pt       5.62201422      -0.00508976      26.91460932        1       0.00000000       0.00099625      -0.00007354       0.00224168
Pt       1.36911086       2.45119288      26.91257492        1       0.00000000      -0.00045831      -0.00003925      -0.00370531
Pt       4.24545855       2.45095599      26.91256338        1       0.00000000       0.00021485       0.00044648      -0.00377215
Pt       7.01695565       2.43104930      26.92007994        1       0.00000000      -0.00004870       0.00557925      -0.00408260
Pt       2.80783391       4.87135504      26.91459256        1       0.00000000      -0.00045147       0.00090715       0.00246409
Pt       5.61491218       4.86320340      26.92008254        1       0.00000000       0.00486087      -0.00275271      -0.00384872
Pt       8.42223939       4.86133422      26.92008137        1       0.00000000      -0.00478960      -0.00285975      -0.00385544
O        2.80718388       1.62087357      29.30751166        0       0.50000000      -0.00016955       0.00071272       0.01961674
H        2.80723843       1.62063890      28.31416698        0       0.50000000       0.00013370      -0.00056444      -0.01644779
