38
Lattice="8.421641763931781 0.0 0.0 4.2108208819658905 7.293355709136913 0.0 0.0 0.0 46.87624170604845" Properties=species:S:1:pos:R:3:tags:I:1:initial_magmoms:R:1:forces:R:3 charge=0 spin=0 energy=-194.6902556091007 free_energy=-194.6902556091007 stress="0.00966297835111618 -7.1781651733715535e-09 1.7792379480852105e-07 -7.1781651733715535e-09 0.009663214907050133 3.951102769406134e-07 1.7792379480852105e-07 3.951102769406134e-07 -0.00012531857646536082" pbc="T T T"
Pt      -0.00000011      -0.00000005      19.95723442        4       0.00000000      -0.00436458      -0.00337012      -0.00028378
Pt       2.80721395      -0.00000019      19.95723450        4       0.00000000       0.00079443      -0.00292826       0.01079590
Pt       5.61442786      -0.00000007      19.95723452        4       0.00000000       0.00509049      -0.00210818      -0.00030322
Pt       1.40360721       2.43111839      19.95723434        4       0.00000000      -0.00294479       0.00077657       0.01082667
Pt       4.21082082       2.43111837      19.95723444        4       0.00000000       0.00215258       0.00215543       0.01081002
Pt       7.01803481       2.43111844      19.95723433        4       0.00000000      -0.00036921      -0.00069378       0.01468437
Pt       2.80721415       4.86223733      19.95723415        4       0.00000000      -0.00073094       0.00547969      -0.00029603
Pt       5.61442796       4.86223739      19.95723433        4       0.00000000      -0.00038154       0.00065992       0.01466434
Pt       8.42164143       4.86223725      19.95723439        4       0.00000000       0.00075247       0.00002209       0.01465055
Pt       1.40360728       0.81037261      22.29206792        3       0.00000000       0.00452799       0.00278528      -0.04372895
Pt       4.21082128       0.81037249      22.29206789        3       0.00000000      -0.00466724       0.00250698      -0.04379141
Pt       7.01803472       0.81037258      22.29206780        3       0.00000000       0.00094290       0.00354785      -0.00035313
Pt       2.80721447       3.24149123      22.29206774        3       0.00000000       0.00012909      -0.00528889      -0.04372653
Pt       5.61442762       3.24149120      22.29206786        3       0.00000000      -0.00127626       0.00149468      -0.04153962
Pt       8.42164156       3.24149131      22.29206806        3       0.00000000      -0.00066182      -0.00183141      -0.04147235
Pt       4.21082090       5.67260998      22.29206740        3       0.00000000       0.00259655      -0.00259673      -0.00034148
Pt       7.01803486       5.67261041      22.29206774        3       0.00000000       0.00194076       0.00033545      -0.04153591
Pt       9.82524817       5.67261060      22.29206803        3       0.00000000      -0.00353597      -0.00096036      -0.00034747
Pt      -0.00000054       1.62074568      24.58417374        2       0.00000000      -0.00274850       0.00046530       0.01415339
Pt       2.80721436       1.62074546      24.58417392        2       0.00000000      -0.00001501       0.00004435       0.03614166
Pt       5.61442782       1.62074536      24.58417379        2       0.00000000      -0.00122720       0.00949635       0.01381856
Pt       1.40360636       4.05186439      24.58417387        2       0.00000000      -0.00756162      -0.00594863       0.01383071
Pt       4.21082089       4.05186396      24.58417387        2       0.00000000       0.00184666       0.00206918       0.01402024
Pt       7.01803504       4.05186408      24.58417404        2       0.00000000      -0.00000631      -0.00007098       0.02356499
Pt       2.80721273       6.48298349      24.58417384        2       0.00000000       0.00001826       0.00000368      -0.01666312
Pt       5.61442806       6.48298330      24.58417399        2       0.00000000       0.00891549      -0.00354599       0.01371655
Pt       8.42164222       6.48298344      24.58417375        2       0.00000000       0.00079504      -0.00243465       0.01406467
Pt      -0.00897571      -0.00408997      26.91386251        1       0.00000000       0.00496296      -0.00072504       0.00596877
Pt       2.80763911      -0.04006800      26.91114328        1       0.00000000      -0.00418518       0.00415480       0.00452728
Pt       5.62247091      -0.00571947      26.91386573        1       0.00000000      -0.00188897       0.00470432       0.00594795
Pt       1.36865017       2.45078261      26.91114802        1       0.00000000       0.00566512       0.00159135       0.00400499
Pt       4.24535245       2.45152298      26.91112710        1       0.00000000      -0.00151868      -0.00539604       0.00382505
Pt       7.01768917       2.43218741      26.91796844        1       0.00000000      -0.00573944      -0.00466207       0.00750908
Pt       2.80815738       4.87205152      26.91385765        1       0.00000000      -0.00311892      -0.00401171       0.00609545
Pt       5.61551921       4.86202876      26.91790616        1       0.00000000      -0.00114309       0.00726888       0.00822370
Pt       8.42089032       4.86143575      26.91790836        1       0.00000000       0.00704097      -0.00289427       0.00819669
O        2.80714987       1.62063534      29.30710281        0       0.50000000      -0.00038040      -0.00055699      -0.00617954
H        2.80727741       1.62082629      28.31312567        0       0.50000000       0.00029393       0.00046190       0.00652063
