38
Lattice="8.421641763931781 0.0 0.0 4.2108208819658905 7.293355709136913 0.0 0.0 0.0 46.87624170604845" Properties=species:S:1:pos:R:3:tags:I:1:initial_magmoms:R:1:forces:R:3 charge=0 spin=0 energy=-194.6889185577091 free_energy=-194.6889185577091 stress="0.009775765240192413 3.5434684519941584e-08 4.623420934990463e-08 3.5434684519941584e-08 0.009775771759450436 1.4283881455412484e-07 4.623420934990463e-08 1.4283881455412484e-07 5.035591675550677e-05" pbc="T T T"
Pt      -0.00000011      -0.00000005      19.95723442        4       0.00000000      -0.00429965      -0.00317920      -0.00011484
Pt       2.80721395      -0.00000019      19.95723450        4       0.00000000       0.00091947      -0.00231299       0.01102355
Pt       5.61442786      -0.00000007      19.95723452        4       0.00000000       0.00489184      -0.00216691      -0.00012782
Pt       1.40360721       2.43111839      19.95723434        4       0.00000000      -0.00246948       0.00035981       0.01104308
Pt       4.21082082       2.43111837      19.95723444        4       0.00000000       0.00154713       0.00195789       0.01102915
Pt       7.01803481       2.43111844      19.95723433        4       0.00000000      -0.00039332      -0.00009001       0.01477772
Pt       2.80721415       4.86223733      19.95723415        4       0.00000000      -0.00058696       0.00533107      -0.00014012
Pt       5.61442796       4.86223739      19.95723433        4       0.00000000       0.00014476       0.00038970       0.01476434
Pt       8.42164143       4.86223725      19.95723439        4       0.00000000       0.00024743      -0.00029477       0.01474731
Pt       1.40360728       0.81037261      22.29206792        3       0.00000000       0.00414008       0.00260051      -0.04255718
Pt       4.21082128       0.81037249      22.29206789        3       0.00000000      -0.00427872       0.00231527      -0.04261975
Pt       7.01803472       0.81037258      22.29206780        3       0.00000000       0.00118286       0.00248263      -0.00466129
Pt       2.80721447       3.24149123      22.29206774        3       0.00000000       0.00011794      -0.00485041      -0.04268040
Pt       5.61442762       3.24149120      22.29206786        3       0.00000000      -0.00185988       0.00138319      -0.03925346
Pt       8.42164156       3.24149131      22.29206806        3       0.00000000      -0.00028358      -0.00228186      -0.03921071
Pt       4.21082090       5.67260998      22.29206740        3       0.00000000       0.00153388      -0.00228020      -0.00456070
Pt       7.01803486       5.67261041      22.29206774        3       0.00000000       0.00215943       0.00087346      -0.03909224
Pt       9.82524817       5.67261060      22.29206803        3       0.00000000      -0.00269179      -0.00024021      -0.00461966
Pt      -0.00000054       1.62074568      24.58417374        2       0.00000000       0.00254225       0.01338852       0.03081279
Pt       2.80721436       1.62074546      24.58417392        2       0.00000000      -0.00000255      -0.00029252       0.07656862
Pt       5.61442782       1.62074536      24.58417379        2       0.00000000      -0.00799281       0.01949663       0.02724015
Pt       1.40360636       4.05186439      24.58417387        2       0.00000000      -0.01310755      -0.01644542       0.02776283
Pt       4.21082089       4.05186396      24.58417387        2       0.00000000       0.01085377      -0.00866675       0.03137602
Pt       7.01803504       4.05186408      24.58417404        2       0.00000000      -0.00005329       0.00040054       0.06581032
Pt       2.80721273       6.48298349      24.58417384        2       0.00000000       0.00006935      -0.00011665       0.00390795
Pt       5.61442806       6.48298330      24.58417399        2       0.00000000       0.02119534      -0.00303592       0.02825502
Pt       8.42164222       6.48298344      24.58417375        2       0.00000000      -0.01350690      -0.00468816       0.03163408
Pt      -0.00381396       0.00005944      26.91286271        1       0.00000000      -0.02975898      -0.02361579       0.00915877
Pt       2.80666957      -0.04005174      26.92063467        1       0.00000000       0.00306051       0.01209024      -0.03253676
Pt       5.61620858      -0.00334709      26.91279607        1       0.00000000       0.03539727      -0.01417311       0.00944296
Pt       1.36916253       2.45157930      26.92036403        1       0.00000000       0.00916571      -0.00870881      -0.03172600
Pt       4.24575660       2.45074160      26.92035316        1       0.00000000      -0.01204774      -0.00357307      -0.03172400
Pt       7.01551741       2.42674289      26.92178677        1       0.00000000       0.00831188       0.03864155      -0.01650593
Pt       2.80920167       4.86546519      26.91290754        1       0.00000000      -0.00543031       0.03773315       0.00896459
Pt       5.61195806       4.86663245      26.92214173        1       0.00000000       0.02895613      -0.02651800      -0.01802069
Pt       8.42671339       4.86223244      26.92208757        1       0.00000000      -0.03768306      -0.01190203      -0.01774876
O        2.80721198       1.62065976      29.32964637        0       0.50000000      -0.00004802      -0.00080284      -0.02421283
H        2.80722350       1.62083862      28.33577752        0       0.50000000       0.00005773       0.00079148       0.00379380
