38
Lattice="8.421641763931781 0.0 0.0 4.2108208819658905 7.293355709136913 0.0 0.0 0.0 46.87624170604845" Properties=species:S:1:pos:R:3:tags:I:1:initial_magmoms:R:1:forces:R:3 charge=0 spin=0 energy=-194.68953272396885 free_energy=-194.68953272396885 stress="0.009699051268398762 4.514304308145256e-08 -3.3000665666804707e-07 4.514304308145256e-08 0.009699183516204357 3.4492475720071525e-07 -3.3000665666804707e-07 3.4492475720071525e-07 -5.129231431055814e-05" pbc="T T T"
Pt      -0.00000011      -0.00000005      19.95723442        4       0.00000000      -0.00436956      -0.00336240      -0.00048197
Pt       2.80721395      -0.00000019      19.95723450        4       0.00000000       0.00091638      -0.00339403       0.01069382
Pt       5.61442786      -0.00000007      19.95723452        4       0.00000000       0.00508984      -0.00212566      -0.00047591
Pt       1.40360721       2.43111839      19.95723434        4       0.00000000      -0.00341175       0.00090266       0.01072480
Pt       4.21082082       2.43111837      19.95723444        4       0.00000000       0.00249423       0.00249841       0.01071307
Pt       7.01803481       2.43111844      19.95723433        4       0.00000000      -0.00041639      -0.00067528       0.01486593
Pt       2.80721415       4.86223733      19.95723415        4       0.00000000      -0.00071669       0.00548606      -0.00048354
Pt       5.61442796       4.86223739      19.95723433        4       0.00000000      -0.00034093       0.00069571       0.01484370
Pt       8.42164143       4.86223725      19.95723439        4       0.00000000       0.00075829      -0.00002865       0.01483003
Pt       1.40360728       0.81037261      22.29206792        3       0.00000000       0.00513855       0.00327530      -0.04675347
Pt       4.21082128       0.81037249      22.29206789        3       0.00000000      -0.00539855       0.00280158      -0.04679668
Pt       7.01803472       0.81037258      22.29206780        3       0.00000000       0.00073691       0.00376597       0.00132685
Pt       2.80721447       3.24149123      22.29206774        3       0.00000000       0.00024148      -0.00606177      -0.04675713
Pt       5.61442762       3.24149120      22.29206786        3       0.00000000      -0.00181535       0.00128079      -0.04077332
Pt       8.42164156       3.24149131      22.29206806        3       0.00000000      -0.00020534      -0.00218917      -0.04072718
Pt       4.21082090       5.67260998      22.29206740        3       0.00000000       0.00289331      -0.00251700       0.00135608
Pt       7.01803486       5.67261041      22.29206774        3       0.00000000       0.00202568       0.00090975      -0.04076850
Pt       9.82524817       5.67261060      22.29206803        3       0.00000000      -0.00361221      -0.00125888       0.00132666
Pt      -0.00000054       1.62074568      24.58417374        2       0.00000000      -0.01137404       0.00495514       0.03417633
Pt       2.80721436       1.62074546      24.58417392        2       0.00000000       0.00002359      -0.00002623       0.03263590
Pt       5.61442782       1.62074536      24.58417379        2       0.00000000       0.00700930       0.01421261       0.03159499
Pt       1.40360636       4.05186439      24.58417387        2       0.00000000      -0.01582495      -0.00093636       0.03139515
Pt       4.21082089       4.05186396      24.58417387        2       0.00000000       0.01015354       0.00717492       0.03430378
Pt       7.01803504       4.05186408      24.58417404        2       0.00000000       0.00000407      -0.00000680       0.04936830
Pt       2.80721273       6.48298349      24.58417384        2       0.00000000       0.00000864       0.00001226      -0.01373077
Pt       5.61442806       6.48298330      24.58417399        2       0.00000000       0.00886521      -0.01314885       0.03157806
Pt       8.42164222       6.48298344      24.58417375        2       0.00000000       0.00110352      -0.01220636       0.03430141
Pt      -0.00987136      -0.00479817      26.91485816        1       0.00000000       0.00794710       0.00299858      -0.00203986
Pt       2.80712391      -0.04002574      26.91117406        1       0.00000000      -0.00026836      -0.02037001      -0.00993842
Pt       5.62352220      -0.00615068      26.91485604        1       0.00000000      -0.00656844       0.00538154      -0.00204251
Pt       1.36896475       2.45121955      26.91110978        1       0.00000000      -0.01762730       0.01045978      -0.01030761
Pt       4.24553129       2.45105794      26.91115835        1       0.00000000       0.01777646       0.00994566      -0.01001658
Pt       7.01710896       2.43521777      26.92578656        1       0.00000000      -0.00124065      -0.02263970      -0.02765493
Pt       2.80799935       4.87318553      26.91484618        1       0.00000000      -0.00136160      -0.00838703      -0.00208638
Pt       5.61844226       4.86098695      26.92578285        1       0.00000000      -0.01900626       0.01239773      -0.02765794
Pt       8.41855033       4.85938979      26.92578344        1       0.00000000       0.02022343       0.01027852      -0.02764855
O        2.80734316       1.62064393      29.28750642        0       0.50000000       0.00072283      -0.00056410       0.04480005
H        2.80711048       1.62082430      28.29389107        0       0.50000000      -0.00057407       0.00046530      -0.00769374
