38
Lattice="8.421641763931781 0.0 0.0 4.2108208819658905 7.293355709136913 0.0 0.0 0.0 46.87624170604845" Properties=species:S:1:pos:R:3:tags:I:1:initial_magmoms:R:1:forces:R:3 charge=0 spin=0 energy=-194.69028994137608 free_energy=-194.69028994137608 stress="0.009694736450910568 -6.419843145977211e-08 6.923086459664773e-08 -6.419843145977211e-08 0.009694604203104973 -3.318181285294486e-08 6.923086459664773e-08 -3.318181285294486e-08 -8.107785106403753e-05" pbc="T T T"
Pt      -0.00000011      -0.00000005      19.95723442        4       0.00000000      -0.00438448      -0.00331828      -0.00029847
Pt       2.80721395      -0.00000019      19.95723450        4       0.00000000       0.00086074      -0.00285186       0.01082847
Pt       5.61442786      -0.00000007      19.95723452        4       0.00000000       0.00505625      -0.00215357      -0.00031287
Pt       1.40360721       2.43111839      19.95723434        4       0.00000000      -0.00291369       0.00068198       0.01086074
Pt       4.21082082       2.43111837      19.95723444        4       0.00000000       0.00205357       0.00217408       0.01084503
Pt       7.01803481       2.43111844      19.95723433        4       0.00000000      -0.00032866      -0.00062489       0.01473334
Pt       2.80721415       4.86223733      19.95723415        4       0.00000000      -0.00067577       0.00548025      -0.00028670
Pt       5.61442796       4.86223739      19.95723433        4       0.00000000      -0.00033979       0.00059214       0.01471518
Pt       8.42164143       4.86223725      19.95723439        4       0.00000000       0.00066949       0.00002287       0.01470053
Pt       1.40360728       0.81037261      22.29206792        3       0.00000000       0.00453208       0.00283399      -0.04383876
Pt       4.21082128       0.81037249      22.29206789        3       0.00000000      -0.00470738       0.00249666      -0.04389772
Pt       7.01803472       0.81037258      22.29206780        3       0.00000000       0.00094243       0.00351583      -0.00069688
Pt       2.80721447       3.24149123      22.29206774        3       0.00000000       0.00016416      -0.00531788      -0.04383320
Pt       5.61442762       3.24149120      22.29206786        3       0.00000000      -0.00138874       0.00151341      -0.04138507
Pt       8.42164156       3.24149131      22.29206806        3       0.00000000      -0.00062087      -0.00193393      -0.04132405
Pt       4.21082090       5.67260998      22.29206740        3       0.00000000       0.00256942      -0.00257391      -0.00069315
Pt       7.01803486       5.67261041      22.29206774        3       0.00000000       0.00200689       0.00042402      -0.04138377
Pt       9.82524817       5.67261060      22.29206803        3       0.00000000      -0.00350893      -0.00094249      -0.00070384
Pt      -0.00000054       1.62074568      24.58417374        2       0.00000000      -0.00331691       0.00256550       0.02252615
Pt       2.80721436       1.62074546      24.58417392        2       0.00000000      -0.00000450       0.00001617       0.04169740
Pt       5.61442782       1.62074536      24.58417379        2       0.00000000      -0.00090428       0.01130797       0.01926789
Pt       1.40360636       4.05186439      24.58417387        2       0.00000000      -0.00936546      -0.00646710       0.01920753
Pt       4.21082089       4.05186396      24.58417387        2       0.00000000       0.00403862       0.00156852       0.02239929
Pt       7.01803504       4.05186408      24.58417404        2       0.00000000      -0.00000266       0.00001549       0.03885171
Pt       2.80721273       6.48298349      24.58417384        2       0.00000000       0.00001622       0.00001055      -0.01024131
Pt       5.61442806       6.48298330      24.58417399        2       0.00000000       0.01018330      -0.00490132       0.01905596
Pt       8.42164222       6.48298344      24.58417375        2       0.00000000      -0.00062440      -0.00413807       0.02233752
Pt      -0.00820219      -0.00402581      26.91460918        1       0.00000000      -0.00056236      -0.00085141       0.00223634
Pt       2.80707092      -0.03993403      26.91254167        1       0.00000000       0.00026982      -0.00050433      -0.00396852
Pt       5.62201443      -0.00508974      26.91460935        1       0.00000000       0.00099721      -0.00007216       0.00224221
Pt       1.36911086       2.45119307      26.91257397        1       0.00000000      -0.00046247      -0.00004213      -0.00370686
Pt       4.24545871       2.45095614      26.91256312        1       0.00000000       0.00021550       0.00044896      -0.00377399
Pt       7.01695549       2.43104892      26.92007999        1       0.00000000      -0.00004591       0.00558138      -0.00408924
Pt       2.80783347       4.87135495      26.91459266        1       0.00000000      -0.00044370       0.00090809       0.00246435
Pt       5.61491193       4.86320331      26.92008291        1       0.00000000       0.00486013      -0.00275164      -0.00384967
Pt       8.42223986       4.86133413      26.92008165        1       0.00000000      -0.00479802      -0.00285985      -0.00385576
O        2.80718422       1.62087326      29.30751103        0       0.50000000      -0.00017050       0.00071043       0.01961886
H        2.80723854       1.62063927      28.31416477        0       0.50000000       0.00013367      -0.00056346      -0.01644839
