38
Lattice="8.421641763931781 0.0 0.0 4.2108208819658905 7.293355709136913 0.0 0.0 0.0 46.87624170604845" Properties=species:S:1:pos:R:3:tags:I:1:initial_magmoms:R:1:forces:R:3 charge=0 spin=0 energy=-194.68891665036045 free_energy=-194.68891665036045 stress="0.00977577269077301 3.5184285707146046e-08 4.748647342012191e-08 3.5184285707146046e-08 0.009775776416063309 1.4037928508514597e-07 4.748647342012191e-08 1.4037928508514597e-07 5.034219066146761e-05" pbc="T T T"
Pt      -0.00000011      -0.00000005      19.95723442        4       0.00000000      -0.00429972      -0.00317916      -0.00011474
Pt       2.80721395      -0.00000019      19.95723450        4       0.00000000       0.00091946      -0.00231287       0.01102363
Pt       5.61442786      -0.00000007      19.95723452        4       0.00000000       0.00489192      -0.00216700      -0.00012771
Pt       1.40360721       2.43111839      19.95723434        4       0.00000000      -0.00246941       0.00035990       0.01104295
Pt       4.21082082       2.43111837      19.95723444        4       0.00000000       0.00154700       0.00195768       0.01102921
Pt       7.01803481       2.43111844      19.95723433        4       0.00000000      -0.00039343      -0.00008994       0.01477759
Pt       2.80721415       4.86223733      19.95723415        4       0.00000000      -0.00058693       0.00533107      -0.00013980
Pt       5.61442796       4.86223739      19.95723433        4       0.00000000       0.00014491       0.00038963       0.01476455
Pt       8.42164143       4.86223725      19.95723439        4       0.00000000       0.00024719      -0.00029496       0.01474733
Pt       1.40360728       0.81037261      22.29206792        3       0.00000000       0.00414009       0.00260041      -0.04255749
Pt       4.21082128       0.81037249      22.29206789        3       0.00000000      -0.00427891       0.00231550      -0.04261910
Pt       7.01803472       0.81037258      22.29206780        3       0.00000000       0.00118288       0.00248279      -0.00466187
Pt       2.80721447       3.24149123      22.29206774        3       0.00000000       0.00011799      -0.00485046      -0.04267965
Pt       5.61442762       3.24149120      22.29206786        3       0.00000000      -0.00186008       0.00138309      -0.03925360
Pt       8.42164156       3.24149131      22.29206806        3       0.00000000      -0.00028381      -0.00228213      -0.03921079
Pt       4.21082090       5.67260998      22.29206740        3       0.00000000       0.00153410      -0.00227998      -0.00456050
Pt       7.01803486       5.67261041      22.29206774        3       0.00000000       0.00215928       0.00087367      -0.03909271
Pt       9.82524817       5.67261060      22.29206803        3       0.00000000      -0.00269160      -0.00023945      -0.00461878
Pt      -0.00000054       1.62074568      24.58417374        2       0.00000000       0.00254220       0.01338936       0.03081340
Pt       2.80721436       1.62074546      24.58417392        2       0.00000000      -0.00000037      -0.00028982       0.07656937
Pt       5.61442782       1.62074536      24.58417379        2       0.00000000      -0.00799451       0.01949810       0.02724412
Pt       1.40360636       4.05186439      24.58417387        2       0.00000000      -0.01310726      -0.01644581       0.02776028
Pt       4.21082089       4.05186396      24.58417387        2       0.00000000       0.01085402      -0.00866913       0.03137951
Pt       7.01803504       4.05186408      24.58417404        2       0.00000000      -0.00005340       0.00040020       0.06581201
Pt       2.80721273       6.48298349      24.58417384        2       0.00000000       0.00006983      -0.00011681       0.00390976
Pt       5.61442806       6.48298330      24.58417399        2       0.00000000       0.02119193      -0.00303805       0.02824992
Pt       8.42164222       6.48298344      24.58417375        2       0.00000000      -0.01350338      -0.00468987       0.03162827
Pt      -0.00381350       0.00006005      26.91286206        1       0.00000000      -0.02976340      -0.02361973       0.00915795
Pt       2.80666971      -0.04005263      26.92063329        1       0.00000000       0.00306201       0.01209919      -0.03252385
Pt       5.61620830      -0.00334698      26.91279651        1       0.00000000       0.03539941      -0.01417033       0.00944304
Pt       1.36916321       2.45157961      26.92036508        1       0.00000000       0.00916612      -0.00871288      -0.03172188
Pt       4.24575617       2.45074170      26.92035403        1       0.00000000      -0.01204455      -0.00357460      -0.03173323
Pt       7.01551731       2.42674243      26.92178670        1       0.00000000       0.00831059       0.03864360      -0.01650721
Pt       2.80920141       4.86546474      26.91290755        1       0.00000000      -0.00542494       0.03773667       0.00896628
Pt       5.61195799       4.86663265      26.92214178        1       0.00000000       0.02895623      -0.02652129      -0.01802120
Pt       8.42671347       4.86223240      26.92208717        1       0.00000000      -0.03768908      -0.01190340      -0.01774821
O        2.80721134       1.62066033      29.32965053        0       0.50000000      -0.00004992      -0.00079719      -0.02415159
H        2.80722399       1.62083847      28.33578333        0       0.50000000       0.00005777       0.00078410       0.00372446
