38
Lattice="8.421641763931781 0.0 0.0 4.2108208819658905 7.293355709136913 0.0 0.0 0.0 46.87624170604845" Properties=species:S:1:pos:R:3:tags:I:1:initial_magmoms:R:1:forces:R:3 charge=0 spin=0 energy=-194.68953272396885 free_energy=-194.68953272396885 stress="0.009699015878140926 5.1261167755001225e-08 -3.38959011969564e-07 5.1261167755001225e-08 0.009699149988591671 3.4638156876098947e-07 -3.38959011969564e-07 3.4638156876098947e-07 -5.138191772857681e-05" pbc="T T T"
Pt      -0.00000011      -0.00000005      19.95723442        4       0.00000000      -0.00436958      -0.00336229      -0.00048214
Pt       2.80721395      -0.00000019      19.95723450        4       0.00000000       0.00091638      -0.00339354       0.01069367
Pt       5.61442786      -0.00000007      19.95723452        4       0.00000000       0.00508989      -0.00212549      -0.00047587
Pt       1.40360721       2.43111839      19.95723434        4       0.00000000      -0.00341137       0.00090241       0.01072474
Pt       4.21082082       2.43111837      19.95723444        4       0.00000000       0.00249363       0.00249784       0.01071329
Pt       7.01803481       2.43111844      19.95723433        4       0.00000000      -0.00041631      -0.00067525       0.01486593
Pt       2.80721415       4.86223733      19.95723415        4       0.00000000      -0.00071667       0.00548586      -0.00048371
Pt       5.61442796       4.86223739      19.95723433        4       0.00000000      -0.00034098       0.00069579       0.01484381
Pt       8.42164143       4.86223725      19.95723439        4       0.00000000       0.00075816      -0.00002875       0.01483018
Pt       1.40360728       0.81037261      22.29206792        3       0.00000000       0.00513820       0.00327524      -0.04675268
Pt       4.21082128       0.81037249      22.29206789        3       0.00000000      -0.00539755       0.00280123      -0.04679370
Pt       7.01803472       0.81037258      22.29206780        3       0.00000000       0.00073701       0.00376597       0.00132635
Pt       2.80721447       3.24149123      22.29206774        3       0.00000000       0.00024147      -0.00606091      -0.04675487
Pt       5.61442762       3.24149120      22.29206786        3       0.00000000      -0.00181488       0.00128093      -0.04077428
Pt       8.42164156       3.24149131      22.29206806        3       0.00000000      -0.00020582      -0.00218845      -0.04072813
Pt       4.21082090       5.67260998      22.29206740        3       0.00000000       0.00289297      -0.00251715       0.00135478
Pt       7.01803486       5.67261041      22.29206774        3       0.00000000       0.00202624       0.00090922      -0.04076862
Pt       9.82524817       5.67261060      22.29206803        3       0.00000000      -0.00361224      -0.00125854       0.00132560
Pt      -0.00000054       1.62074568      24.58417374        2       0.00000000      -0.01136752       0.00495261       0.03416378
Pt       2.80721436       1.62074546      24.58417392        2       0.00000000       0.00002463      -0.00002498       0.03263588
Pt       5.61442782       1.62074536      24.58417379        2       0.00000000       0.00699982       0.01421164       0.03158667
Pt       1.40360636       4.05186439      24.58417387        2       0.00000000      -0.01582369      -0.00094096       0.03138086
Pt       4.21082089       4.05186396      24.58417387        2       0.00000000       0.01015098       0.00716492       0.03429254
Pt       7.01803504       4.05186408      24.58417404        2       0.00000000       0.00000616      -0.00000580       0.04936137
Pt       2.80721273       6.48298349      24.58417384        2       0.00000000       0.00000872       0.00001483      -0.01372827
Pt       5.61442806       6.48298330      24.58417399        2       0.00000000       0.00886589      -0.01314161       0.03156485
Pt       8.42164222       6.48298344      24.58417375        2       0.00000000       0.00110239      -0.01220168       0.03429103
Pt      -0.00986898      -0.00479710      26.91485761        1       0.00000000       0.00792683       0.00299330      -0.00203901
Pt       2.80712394      -0.04002604      26.91117499        1       0.00000000      -0.00026351      -0.02037495      -0.00994134
Pt       5.62352000      -0.00614934      26.91485592        1       0.00000000      -0.00655169       0.00537227      -0.00204255
Pt       1.36896442       2.45121981      26.91111057        1       0.00000000      -0.01763550       0.01046315      -0.01031407
Pt       4.24553099       2.45105774      26.91116001        1       0.00000000       0.01778126       0.00994645      -0.01002239
Pt       7.01710879       2.43521335      26.92578217        1       0.00000000      -0.00123926      -0.02260895      -0.02763006
Pt       2.80799916       4.87318306      26.91484540        1       0.00000000      -0.00136329      -0.00836681      -0.00207408
Pt       5.61843846       4.86098937      26.92577824        1       0.00000000      -0.01897743       0.01237901      -0.02763324
Pt       8.41855431       4.85939208      26.92577893        1       0.00000000       0.02019734       0.01026271      -0.02763481
O        2.80734522       1.62064537      29.28750035        0       0.50000000       0.00074546      -0.00056216       0.04487986
H        2.80710889       1.62082325      28.29388806        0       0.50000000      -0.00059617       0.00046264      -0.00776173
