38
Lattice="8.421641763931781 0.0 0.0 4.2108208819658905 7.293355709136913 0.0 0.0 0.0 46.87624170604845" Properties=species:S:1:pos:R:3:tags:I:1:initial_magmoms:R:1:forces:R:3 charge=0 spin=0 energy=-194.68953272396885 free_energy=-194.68953272396885 stress="0.009699016809463501 5.1010772494919365e-08 -3.346650032653997e-07 5.1010772494919365e-08 0.009699156507849693 3.3231455631721474e-07 -3.346650032653997e-07 3.3231455631721474e-07 -5.134934690431692e-05" pbc="T T T"
Pt      -0.00000011      -0.00000005      19.95723442        4       0.00000000      -0.00436944      -0.00336225      -0.00048214
Pt       2.80721395      -0.00000019      19.95723450        4       0.00000000       0.00091636      -0.00339322       0.01069357
Pt       5.61442786      -0.00000007      19.95723452        4       0.00000000       0.00508968      -0.00212552      -0.00047610
Pt       1.40360721       2.43111839      19.95723434        4       0.00000000      -0.00341104       0.00090240       0.01072505
Pt       4.21082082       2.43111837      19.95723444        4       0.00000000       0.00249349       0.00249774       0.01071358
Pt       7.01803481       2.43111844      19.95723433        4       0.00000000      -0.00041644      -0.00067538       0.01486597
Pt       2.80721415       4.86223733      19.95723415        4       0.00000000      -0.00071648       0.00548604      -0.00048293
Pt       5.61442796       4.86223739      19.95723433        4       0.00000000      -0.00034097       0.00069552       0.01484392
Pt       8.42164143       4.86223725      19.95723439        4       0.00000000       0.00075808      -0.00002862       0.01483011
Pt       1.40360728       0.81037261      22.29206792        3       0.00000000       0.00513732       0.00327441      -0.04675008
Pt       4.21082128       0.81037249      22.29206789        3       0.00000000      -0.00539675       0.00280116      -0.04679191
Pt       7.01803472       0.81037258      22.29206780        3       0.00000000       0.00073722       0.00376554       0.00132420
Pt       2.80721447       3.24149123      22.29206774        3       0.00000000       0.00024166      -0.00605980      -0.04675155
Pt       5.61442762       3.24149120      22.29206786        3       0.00000000      -0.00181508       0.00128142      -0.04077356
Pt       8.42164156       3.24149131      22.29206806        3       0.00000000      -0.00020614      -0.00218833      -0.04072778
Pt       4.21082090       5.67260998      22.29206740        3       0.00000000       0.00289244      -0.00251687       0.00135230
Pt       7.01803486       5.67261041      22.29206774        3       0.00000000       0.00202600       0.00090882      -0.04076988
Pt       9.82524817       5.67261060      22.29206803        3       0.00000000      -0.00361230      -0.00125795       0.00132283
Pt      -0.00000054       1.62074568      24.58417374        2       0.00000000      -0.01135690       0.00495455       0.03416268
Pt       2.80721436       1.62074546      24.58417392        2       0.00000000       0.00002480      -0.00002431       0.03264452
Pt       5.61442782       1.62074536      24.58417379        2       0.00000000       0.00699062       0.01421204       0.03158634
Pt       1.40360636       4.05186439      24.58417387        2       0.00000000      -0.01581783      -0.00095082       0.03137654
Pt       4.21082089       4.05186396      24.58417387        2       0.00000000       0.01014712       0.00715738       0.03428980
Pt       7.01803504       4.05186408      24.58417404        2       0.00000000       0.00000416      -0.00000670       0.04935173
Pt       2.80721273       6.48298349      24.58417384        2       0.00000000       0.00000929       0.00001439      -0.01372563
Pt       5.61442806       6.48298330      24.58417399        2       0.00000000       0.00886729      -0.01313543       0.03155836
Pt       8.42164222       6.48298344      24.58417375        2       0.00000000       0.00110076      -0.01219330       0.03428313
Pt      -0.00986764      -0.00479613      26.91485743        1       0.00000000       0.00792278       0.00298533      -0.00203890
Pt       2.80712406      -0.04002468      26.91117732        1       0.00000000      -0.00026324      -0.02038702      -0.00996183
Pt       5.62351879      -0.00614848      26.91485585        1       0.00000000      -0.00654829       0.00536767      -0.00204168
Pt       1.36896636       2.45121885      26.91111465        1       0.00000000      -0.01763578       0.01046426      -0.01031738
Pt       4.24552963       2.45105692      26.91116330        1       0.00000000       0.01778332       0.00994813      -0.01003333
Pt       7.01710880       2.43521059      26.92577709        1       0.00000000      -0.00123897      -0.02259059      -0.02761835
Pt       2.80799917       4.87318169      26.91484515        1       0.00000000      -0.00136080      -0.00835774      -0.00207022
Pt       5.61843597       4.86099067      26.92577328        1       0.00000000      -0.01896203       0.01237373      -0.02761945
Pt       8.41855692       4.85939334      26.92577360        1       0.00000000       0.02017652       0.01025612      -0.02760972
O        2.80734282       1.62065042      29.28751128        0       0.50000000       0.00073584      -0.00052747       0.04473855
H        2.80711082       1.62081846      28.29389585        0       0.50000000      -0.00058646       0.00043475      -0.00762093
