38
Lattice="8.421641763931781 0.0 0.0 4.2108208819658905 7.293355709136913 0.0 0.0 0.0 46.87624170604845" Properties=species:S:1:pos:R:3:tags:I:1:initial_magmoms:R:1:forces:R:3 charge=0 spin=0 energy=-194.69025751644932 free_energy=-194.69025751644932 stress="0.00966296810656786 -7.05757052799072e-09 1.7635686333505873e-07 -7.05757052799072e-09 0.009663211181759834 3.9544627838949964e-07 1.7635686333505873e-07 3.9544627838949964e-07 -0.00012534768029581755" pbc="T T T"
Pt      -0.00000011      -0.00000005      19.95723442        4       0.00000000      -0.00436475      -0.00337014      -0.00028393
Pt       2.80721395      -0.00000019      19.95723450        4       0.00000000       0.00079435      -0.00292837       0.01079575
Pt       5.61442786      -0.00000007      19.95723452        4       0.00000000       0.00509040      -0.00210814      -0.00030341
Pt       1.40360721       2.43111839      19.95723434        4       0.00000000      -0.00294479       0.00077662       0.01082671
Pt       4.21082082       2.43111837      19.95723444        4       0.00000000       0.00215243       0.00215543       0.01080992
Pt       7.01803481       2.43111844      19.95723433        4       0.00000000      -0.00036891      -0.00069368       0.01468480
Pt       2.80721415       4.86223733      19.95723415        4       0.00000000      -0.00073098       0.00547981      -0.00029629
Pt       5.61442796       4.86223739      19.95723433        4       0.00000000      -0.00038145       0.00066009       0.01466442
Pt       8.42164143       4.86223725      19.95723439        4       0.00000000       0.00075255       0.00002204       0.01465072
Pt       1.40360728       0.81037261      22.29206792        3       0.00000000       0.00452763       0.00278520      -0.04372853
Pt       4.21082128       0.81037249      22.29206789        3       0.00000000      -0.00466680       0.00250658      -0.04379180
Pt       7.01803472       0.81037258      22.29206780        3       0.00000000       0.00094280       0.00354778      -0.00035282
Pt       2.80721447       3.24149123      22.29206774        3       0.00000000       0.00012913      -0.00528881      -0.04372697
Pt       5.61442762       3.24149120      22.29206786        3       0.00000000      -0.00127660       0.00149470      -0.04153974
Pt       8.42164156       3.24149131      22.29206806        3       0.00000000      -0.00066193      -0.00183164      -0.04147259
Pt       4.21082090       5.67260998      22.29206740        3       0.00000000       0.00259606      -0.00259674      -0.00034233
Pt       7.01803486       5.67261041      22.29206774        3       0.00000000       0.00194077       0.00033543      -0.04153555
Pt       9.82524817       5.67261060      22.29206803        3       0.00000000      -0.00353594      -0.00096044      -0.00034711
Pt      -0.00000054       1.62074568      24.58417374        2       0.00000000      -0.00274496       0.00046743       0.01415956
Pt       2.80721436       1.62074546      24.58417392        2       0.00000000      -0.00001504       0.00004168       0.03614986
Pt       5.61442782       1.62074536      24.58417379        2       0.00000000      -0.00123032       0.00949878       0.01382320
Pt       1.40360636       4.05186439      24.58417387        2       0.00000000      -0.00756206      -0.00595191       0.01383246
Pt       4.21082089       4.05186396      24.58417387        2       0.00000000       0.00184755       0.00206537       0.01402665
Pt       7.01803504       4.05186408      24.58417404        2       0.00000000      -0.00000577      -0.00007063       0.02356569
Pt       2.80721273       6.48298349      24.58417384        2       0.00000000       0.00001864       0.00000362      -0.01666456
Pt       5.61442806       6.48298330      24.58417399        2       0.00000000       0.00892155      -0.00354287       0.01372528
Pt       8.42164222       6.48298344      24.58417375        2       0.00000000       0.00078913      -0.00243219       0.01407201
Pt      -0.00897635      -0.00409012      26.91386159        1       0.00000000       0.00496307      -0.00072512       0.00596837
Pt       2.80763950      -0.04006836      26.91114534        1       0.00000000      -0.00418648       0.00413639       0.00449208
Pt       5.62247109      -0.00571963      26.91386509        1       0.00000000      -0.00188625       0.00470386       0.00594988
Pt       1.36864962       2.45078355      26.91114976        1       0.00000000       0.00565078       0.00159325       0.00398360
Pt       4.24535304       2.45152293      26.91112897        1       0.00000000      -0.00150723      -0.00538384       0.00380330
Pt       7.01768943       2.43218739      26.91796842        1       0.00000000      -0.00573693      -0.00466187       0.00750905
Pt       2.80815719       4.87205183      26.91385779        1       0.00000000      -0.00311547      -0.00400949       0.00609434
Pt       5.61551931       4.86202898      26.91790524        1       0.00000000      -0.00114436       0.00726739       0.00822137
Pt       8.42089066       4.86143599      26.91790808        1       0.00000000       0.00703654      -0.00289237       0.00819728
O        2.80714986       1.62063583      29.30708341        0       0.50000000      -0.00038029      -0.00055616      -0.00606665
H        2.80727723       1.62082529      28.31310798        0       0.50000000       0.00029419       0.00046308       0.00644612
