38
Lattice="8.421641763931781 0.0 0.0 4.2108208819658905 7.293355709136913 0.0 0.0 0.0 46.87624170604845" Properties=species:S:1:pos:R:3:tags:I:1:initial_magmoms:R:1:forces:R:3 charge=0 spin=0 energy=-194.6902556091007 free_energy=-194.6902556091007 stress="0.009662982076406479 -4.7901997923816e-09 1.7958659270789212e-07 -4.7901997923816e-09 0.009663219563663006 3.944412299006217e-07 1.7958659270789212e-07 3.944412299006217e-07 -0.0001253044611075893" pbc="T T T"
Pt      -0.00000011      -0.00000005      19.95723442        4       0.00000000      -0.00436464      -0.00337009      -0.00028380
Pt       2.80721395      -0.00000019      19.95723450        4       0.00000000       0.00079438      -0.00292835       0.01079598
Pt       5.61442786      -0.00000007      19.95723452        4       0.00000000       0.00509028      -0.00210817      -0.00030341
Pt       1.40360721       2.43111839      19.95723434        4       0.00000000      -0.00294478       0.00077646       0.01082684
Pt       4.21082082       2.43111837      19.95723444        4       0.00000000       0.00215249       0.00215540       0.01081004
Pt       7.01803481       2.43111844      19.95723433        4       0.00000000      -0.00036897      -0.00069366       0.01468444
Pt       2.80721415       4.86223733      19.95723415        4       0.00000000      -0.00073087       0.00547973      -0.00029597
Pt       5.61442796       4.86223739      19.95723433        4       0.00000000      -0.00038159       0.00066004       0.01466429
Pt       8.42164143       4.86223725      19.95723439        4       0.00000000       0.00075252       0.00002213       0.01465057
Pt       1.40360728       0.81037261      22.29206792        3       0.00000000       0.00452793       0.00278518      -0.04372775
Pt       4.21082128       0.81037249      22.29206789        3       0.00000000      -0.00466663       0.00250688      -0.04379132
Pt       7.01803472       0.81037258      22.29206780        3       0.00000000       0.00094285       0.00354799      -0.00035323
Pt       2.80721447       3.24149123      22.29206774        3       0.00000000       0.00012913      -0.00528847      -0.04372669
Pt       5.61442762       3.24149120      22.29206786        3       0.00000000      -0.00127644       0.00149464      -0.04153904
Pt       8.42164156       3.24149131      22.29206806        3       0.00000000      -0.00066163      -0.00183142      -0.04147223
Pt       4.21082090       5.67260998      22.29206740        3       0.00000000       0.00259619      -0.00259669      -0.00034264
Pt       7.01803486       5.67261041      22.29206774        3       0.00000000       0.00194075       0.00033557      -0.04153580
Pt       9.82524817       5.67261060      22.29206803        3       0.00000000      -0.00353600      -0.00096055      -0.00034733
Pt      -0.00000054       1.62074568      24.58417374        2       0.00000000      -0.00274539       0.00046693       0.01415755
Pt       2.80721436       1.62074546      24.58417392        2       0.00000000      -0.00001539       0.00004375       0.03614730
Pt       5.61442782       1.62074536      24.58417379        2       0.00000000      -0.00122958       0.00949846       0.01382290
Pt       1.40360636       4.05186439      24.58417387        2       0.00000000      -0.00756168      -0.00595179       0.01383496
Pt       4.21082089       4.05186396      24.58417387        2       0.00000000       0.00184756       0.00206602       0.01402569
Pt       7.01803504       4.05186408      24.58417404        2       0.00000000      -0.00000665      -0.00007087       0.02356552
Pt       2.80721273       6.48298349      24.58417384        2       0.00000000       0.00001835       0.00000275      -0.01666239
Pt       5.61442806       6.48298330      24.58417399        2       0.00000000       0.00891852      -0.00354431       0.01372071
Pt       8.42164222       6.48298344      24.58417375        2       0.00000000       0.00079229      -0.00243340       0.01406785
Pt      -0.00897574      -0.00408992      26.91386202        1       0.00000000       0.00496179      -0.00072650       0.00596930
Pt       2.80763940      -0.04006775      26.91114428        1       0.00000000      -0.00418702       0.00414740       0.00451180
Pt       5.62247082      -0.00571964      26.91386574        1       0.00000000      -0.00188696       0.00470320       0.00594725
Pt       1.36865043       2.45078266      26.91114926        1       0.00000000       0.00565982       0.00159395       0.00399212
Pt       4.24535180       2.45152260      26.91112851        1       0.00000000      -0.00150749      -0.00538711       0.00381000
Pt       7.01768970       2.43218731      26.91796917        1       0.00000000      -0.00574467      -0.00466158       0.00750840
Pt       2.80815712       4.87205139      26.91385794        1       0.00000000      -0.00311833      -0.00400878       0.00609377
Pt       5.61551922       4.86202898      26.91790610        1       0.00000000      -0.00114503       0.00726415       0.00822298
Pt       8.42089031       4.86143589      26.91790741        1       0.00000000       0.00704248      -0.00289434       0.00819595
O        2.80714969       1.62063584      29.30709666        0       0.50000000      -0.00038220      -0.00055371      -0.00616394
H        2.80727763       1.62082566      28.31311898        0       0.50000000       0.00029472       0.00045909       0.00651915
