38
Lattice="8.421641763931781 0.0 0.0 4.2108208819658905 7.293355709136913 0.0 0.0 0.0 46.87624170604845" Properties=species:S:1:pos:R:3:tags:I:1:initial_magmoms:R:1:forces:R:3 charge=0 spin=0 energy=-194.68892046505772 free_energy=-194.68892046505772 stress="0.009775769896805286 3.9945490470927325e-08 4.521435670312712e-08 3.9945490470927325e-08 0.009775767102837563 1.4138799997454043e-07 4.521435670312712e-08 1.4138799997454043e-07 5.0342823669780046e-05" pbc="T T T"
Pt      -0.00000011      -0.00000005      19.95723442        4       0.00000000      -0.00429982      -0.00317926      -0.00011469
Pt       2.80721395      -0.00000019      19.95723450        4       0.00000000       0.00091940      -0.00231305       0.01102351
Pt       5.61442786      -0.00000007      19.95723452        4       0.00000000       0.00489193      -0.00216683      -0.00012782
Pt       1.40360721       2.43111839      19.95723434        4       0.00000000      -0.00246950       0.00035991       0.01104308
Pt       4.21082082       2.43111837      19.95723444        4       0.00000000       0.00154715       0.00195780       0.01102921
Pt       7.01803481       2.43111844      19.95723433        4       0.00000000      -0.00039332      -0.00008992       0.01477761
Pt       2.80721415       4.86223733      19.95723415        4       0.00000000      -0.00058702       0.00533095      -0.00013999
Pt       5.61442796       4.86223739      19.95723433        4       0.00000000       0.00014487       0.00038965       0.01476459
Pt       8.42164143       4.86223725      19.95723439        4       0.00000000       0.00024732      -0.00029494       0.01474737
Pt       1.40360728       0.81037261      22.29206792        3       0.00000000       0.00413990       0.00260039      -0.04255692
Pt       4.21082128       0.81037249      22.29206789        3       0.00000000      -0.00427880       0.00231533      -0.04261983
Pt       7.01803472       0.81037258      22.29206780        3       0.00000000       0.00118281       0.00248271      -0.00466116
Pt       2.80721447       3.24149123      22.29206774        3       0.00000000       0.00011796      -0.00485038      -0.04268000
Pt       5.61442762       3.24149120      22.29206786        3       0.00000000      -0.00186026       0.00138326      -0.03925309
Pt       8.42164156       3.24149131      22.29206806        3       0.00000000      -0.00028352      -0.00228220      -0.03921122
Pt       4.21082090       5.67260998      22.29206740        3       0.00000000       0.00153389      -0.00228006      -0.00456083
Pt       7.01803486       5.67261041      22.29206774        3       0.00000000       0.00215928       0.00087355      -0.03909188
Pt       9.82524817       5.67261060      22.29206803        3       0.00000000      -0.00269205      -0.00023998      -0.00461915
Pt      -0.00000054       1.62074568      24.58417374        2       0.00000000       0.00254369       0.01338730       0.03081086
Pt       2.80721436       1.62074546      24.58417392        2       0.00000000      -0.00000246      -0.00029083       0.07656389
Pt       5.61442782       1.62074536      24.58417379        2       0.00000000      -0.00799382       0.01949566       0.02723855
Pt       1.40360636       4.05186439      24.58417387        2       0.00000000      -0.01310761      -0.01644549       0.02776216
Pt       4.21082089       4.05186396      24.58417387        2       0.00000000       0.01085308      -0.00866622       0.03137572
Pt       7.01803504       4.05186408      24.58417404        2       0.00000000      -0.00005271       0.00040273       0.06580631
Pt       2.80721273       6.48298349      24.58417384        2       0.00000000       0.00007027      -0.00011619       0.00390883
Pt       5.61442806       6.48298330      24.58417399        2       0.00000000       0.02119312      -0.00303815       0.02825240
Pt       8.42164222       6.48298344      24.58417375        2       0.00000000      -0.01350402      -0.00469018       0.03162849
Pt      -0.00381351       0.00005940      26.91286295        1       0.00000000      -0.02976449      -0.02361819       0.00915763
Pt       2.80666989      -0.04005103      26.92063406        1       0.00000000       0.00305905       0.01208871      -0.03252512
Pt       5.61620881      -0.00334718      26.91279653        1       0.00000000       0.03540130      -0.01417206       0.00944287
Pt       1.36916323       2.45157873      26.92036369        1       0.00000000       0.00916271      -0.00870306      -0.03172655
Pt       4.24575551       2.45074147      26.92035267        1       0.00000000      -0.01204176      -0.00357233      -0.03172233
Pt       7.01551787       2.42674346      26.92178592        1       0.00000000       0.00830885       0.03863678      -0.01649743
Pt       2.80920111       4.86546565      26.91290757        1       0.00000000      -0.00542528       0.03773164       0.00896401
Pt       5.61195841       4.86663166      26.92214145        1       0.00000000       0.02895144      -0.02651201      -0.01802158
Pt       8.42671257       4.86223234      26.92208701        1       0.00000000      -0.03768123      -0.01190249      -0.01774842
O        2.80721264       1.62065987      29.32964933        0       0.50000000      -0.00004594      -0.00080080      -0.02421333
H        2.80722304       1.62083883      28.33577852        0       0.50000000       0.00005573       0.00078827       0.00379414
