38
Lattice="8.421641763931781 0.0 0.0 4.2108208819658905 7.293355709136913 0.0 0.0 0.0 46.87624170604845" Properties=species:S:1:pos:R:3:tags:I:1:initial_magmoms:R:1:forces:R:3 charge=0 spin=0 energy=-194.69025370175206 free_energy=-194.69025370175206 stress="0.009662983007729053 -5.796386037815182e-09 1.7840663701917947e-07 -5.796386037815182e-09 0.009663215838372707 3.9449233213417756e-07 1.7840663701917947e-07 3.9449233213417756e-07 -0.0001253480149898678" pbc="T T T"
Pt      -0.00000011      -0.00000005      19.95723442        4       0.00000000      -0.00436462      -0.00337014      -0.00028380
Pt       2.80721395      -0.00000019      19.95723450        4       0.00000000       0.00079450      -0.00292826       0.01079605
Pt       5.61442786      -0.00000007      19.95723452        4       0.00000000       0.00509040      -0.00210816      -0.00030331
Pt       1.40360721       2.43111839      19.95723434        4       0.00000000      -0.00294471       0.00077668       0.01082677
Pt       4.21082082       2.43111837      19.95723444        4       0.00000000       0.00215249       0.00215532       0.01081030
Pt       7.01803481       2.43111844      19.95723433        4       0.00000000      -0.00036910      -0.00069362       0.01468454
Pt       2.80721415       4.86223733      19.95723415        4       0.00000000      -0.00073085       0.00547960      -0.00029610
Pt       5.61442796       4.86223739      19.95723433        4       0.00000000      -0.00038151       0.00065982       0.01466436
Pt       8.42164143       4.86223725      19.95723439        4       0.00000000       0.00075240       0.00002198       0.01465055
Pt       1.40360728       0.81037261      22.29206792        3       0.00000000       0.00452801       0.00278502      -0.04372824
Pt       4.21082128       0.81037249      22.29206789        3       0.00000000      -0.00466671       0.00250703      -0.04379132
Pt       7.01803472       0.81037258      22.29206780        3       0.00000000       0.00094289       0.00354744      -0.00035213
Pt       2.80721447       3.24149123      22.29206774        3       0.00000000       0.00012927      -0.00528880      -0.04372654
Pt       5.61442762       3.24149120      22.29206786        3       0.00000000      -0.00127624       0.00149448      -0.04154002
Pt       8.42164156       3.24149131      22.29206806        3       0.00000000      -0.00066144      -0.00183119      -0.04147244
Pt       4.21082090       5.67260998      22.29206740        3       0.00000000       0.00259656      -0.00259698      -0.00034139
Pt       7.01803486       5.67261041      22.29206774        3       0.00000000       0.00194088       0.00033505      -0.04153593
Pt       9.82524817       5.67261060      22.29206803        3       0.00000000      -0.00353537      -0.00096044      -0.00034775
Pt      -0.00000054       1.62074568      24.58417374        2       0.00000000      -0.00274750       0.00046614       0.01415345
Pt       2.80721436       1.62074546      24.58417392        2       0.00000000      -0.00001509       0.00004242       0.03614020
Pt       5.61442782       1.62074536      24.58417379        2       0.00000000      -0.00122821       0.00949775       0.01381764
Pt       1.40360636       4.05186439      24.58417387        2       0.00000000      -0.00756615      -0.00594848       0.01383040
Pt       4.21082089       4.05186396      24.58417387        2       0.00000000       0.00184876       0.00206800       0.01401715
Pt       7.01803504       4.05186408      24.58417404        2       0.00000000      -0.00000463      -0.00006901       0.02357202
Pt       2.80721273       6.48298349      24.58417384        2       0.00000000       0.00001720       0.00000577      -0.01666894
Pt       5.61442806       6.48298330      24.58417399        2       0.00000000       0.00891918      -0.00354484       0.01372199
Pt       8.42164222       6.48298344      24.58417375        2       0.00000000       0.00079063      -0.00243553       0.01407498
Pt      -0.00897682      -0.00408972      26.91386198        1       0.00000000       0.00496810      -0.00072645       0.00596786
Pt       2.80763810      -0.04006621      26.91114337        1       0.00000000      -0.00418018       0.00413201       0.00451097
Pt       5.62247068      -0.00571844      26.91386572        1       0.00000000      -0.00189602       0.00470064       0.00595077
Pt       1.36865036       2.45078255      26.91114776        1       0.00000000       0.00565779       0.00159666       0.00400211
Pt       4.24535150       2.45152400      26.91112727        1       0.00000000      -0.00150735      -0.00539455       0.00382124
Pt       7.01768907       2.43218641      26.91796934        1       0.00000000      -0.00574204      -0.00465002       0.00750855
Pt       2.80815780       4.87205250      26.91385744        1       0.00000000      -0.00312147      -0.00401329       0.00610463
Pt       5.61551802       4.86202927      26.91790636        1       0.00000000      -0.00113176       0.00727044       0.00821932
Pt       8.42089096       4.86143597      26.91790891        1       0.00000000       0.00702860      -0.00288891       0.00818679
O        2.80715022       1.62063565      29.30709596        0       0.50000000      -0.00038080      -0.00055981      -0.00609252
H        2.80727757       1.62082622      28.31312167        0       0.50000000       0.00029423       0.00046642       0.00644795
