38
Lattice="8.421641763931781 0.0 0.0 4.2108208819658905 7.293355709136913 0.0 0.0 0.0 46.87624170604845" Properties=species:S:1:pos:R:3:tags:I:1:initial_magmoms:R:1:forces:R:3 charge=0 spin=0 energy=-194.68953272396885 free_energy=-194.68953272396885 stress="0.009698953479528427 5.1432394343464694e-08 -3.28408077621134e-07 5.1432394343464694e-08 0.00969910342246294 3.5236828921370034e-07 -3.28408077621134e-07 3.5236828921370034e-07 -5.1343569793971255e-05" pbc="T T T"
Pt      -0.00000011      -0.00000005      19.95723442        4       0.00000000      -0.00437010      -0.00336289      -0.00048202
Pt       2.80721395      -0.00000019      19.95723450        4       0.00000000       0.00091659      -0.00339381       0.01069327
Pt       5.61442786      -0.00000007      19.95723452        4       0.00000000       0.00509034      -0.00212582      -0.00047655
Pt       1.40360721       2.43111839      19.95723434        4       0.00000000      -0.00341153       0.00090257       0.01072455
Pt       4.21082082       2.43111837      19.95723444        4       0.00000000       0.00249383       0.00249831       0.01071288
Pt       7.01803481       2.43111844      19.95723433        4       0.00000000      -0.00041652      -0.00067501       0.01486582
Pt       2.80721415       4.86223733      19.95723415        4       0.00000000      -0.00071654       0.00548655      -0.00048363
Pt       5.61442796       4.86223739      19.95723433        4       0.00000000      -0.00034084       0.00069554       0.01484385
Pt       8.42164143       4.86223725      19.95723439        4       0.00000000       0.00075805      -0.00002881       0.01483018
Pt       1.40360728       0.81037261      22.29206792        3       0.00000000       0.00513892       0.00327614      -0.04675548
Pt       4.21082128       0.81037249      22.29206789        3       0.00000000      -0.00539856       0.00280160      -0.04679762
Pt       7.01803472       0.81037258      22.29206780        3       0.00000000       0.00073677       0.00376642       0.00133043
Pt       2.80721447       3.24149123      22.29206774        3       0.00000000       0.00024144      -0.00606181      -0.04675781
Pt       5.61442762       3.24149120      22.29206786        3       0.00000000      -0.00181526       0.00128079      -0.04077471
Pt       8.42164156       3.24149131      22.29206806        3       0.00000000      -0.00020567      -0.00218889      -0.04072880
Pt       4.21082090       5.67260998      22.29206740        3       0.00000000       0.00289297      -0.00251736       0.00135742
Pt       7.01803486       5.67261041      22.29206774        3       0.00000000       0.00202605       0.00090961      -0.04076921
Pt       9.82524817       5.67261060      22.29206803        3       0.00000000      -0.00361287      -0.00125880       0.00132849
Pt      -0.00000054       1.62074568      24.58417374        2       0.00000000      -0.01137504       0.00495132       0.03416183
Pt       2.80721436       1.62074546      24.58417392        2       0.00000000       0.00002344      -0.00002499       0.03263377
Pt       5.61442782       1.62074536      24.58417379        2       0.00000000       0.00701114       0.01421000       0.03157744
Pt       1.40360636       4.05186439      24.58417387        2       0.00000000      -0.01582528      -0.00093741       0.03137604
Pt       4.21082089       4.05186396      24.58417387        2       0.00000000       0.01015450       0.00717692       0.03428365
Pt       7.01803504       4.05186408      24.58417404        2       0.00000000       0.00000415      -0.00000720       0.04936852
Pt       2.80721273       6.48298349      24.58417384        2       0.00000000       0.00001050       0.00001381      -0.01373189
Pt       5.61442806       6.48298330      24.58417399        2       0.00000000       0.00885885      -0.01314898       0.03156300
Pt       8.42164222       6.48298344      24.58417375        2       0.00000000       0.00110772      -0.01220484       0.03428721
Pt      -0.00986992      -0.00479742      26.91485782        1       0.00000000       0.00793845       0.00299369      -0.00204270
Pt       2.80712409      -0.04003159      26.91117074        1       0.00000000      -0.00026078      -0.02034250      -0.00992415
Pt       5.62352078      -0.00614967      26.91485581        1       0.00000000      -0.00656091       0.00537084      -0.00204209
Pt       1.36895988       2.45122232      26.91110703        1       0.00000000      -0.01761306       0.01044670      -0.01029726
Pt       4.24553615       2.45106083      26.91115446        1       0.00000000       0.01776613       0.00992963      -0.01001706
Pt       7.01710895       2.43521380      26.92578551        1       0.00000000      -0.00123902      -0.02261088      -0.02764500
Pt       2.80799919       4.87318381      26.91484484        1       0.00000000      -0.00136299      -0.00836785      -0.00207487
Pt       5.61843903       4.86098904      26.92578199        1       0.00000000      -0.01898358       0.01238238      -0.02764742
Pt       8.41855392       4.85939164      26.92578215        1       0.00000000       0.02019879       0.01026613      -0.02763629
O        2.80733932       1.62064592      29.28748197        0       0.50000000       0.00072933      -0.00058820       0.04463016
H        2.80711392       1.62082266      28.29386169        0       0.50000000      -0.00058957       0.00048702      -0.00748382
