38
Lattice="8.421641763931781 0.0 0.0 4.2108208819658905 7.293355709136913 0.0 0.0 0.0 46.87624170604845" Properties=species:S:1:pos:R:3:tags:I:1:initial_magmoms:R:1:forces:R:3 charge=0 spin=0 energy=-194.69025370175206 free_energy=-194.69025370175206 stress="0.009662976488471031 -3.9980467825273536e-09 1.7594595647096867e-07 -3.9980467825273536e-09 0.009663213044404984 3.9715089883429755e-07 1.7594595647096867e-07 3.9715089883429755e-07 -0.00012532602704595774" pbc="T T T"
Pt      -0.00000011      -0.00000005      19.95723442        4       0.00000000      -0.00436454      -0.00336991      -0.00028363
Pt       2.80721395      -0.00000019      19.95723450        4       0.00000000       0.00079436      -0.00292841       0.01079592
Pt       5.61442786      -0.00000007      19.95723452        4       0.00000000       0.00509035      -0.00210830      -0.00030318
Pt       1.40360721       2.43111839      19.95723434        4       0.00000000      -0.00294500       0.00077644       0.01082665
Pt       4.21082082       2.43111837      19.95723444        4       0.00000000       0.00215263       0.00215535       0.01081004
Pt       7.01803481       2.43111844      19.95723433        4       0.00000000      -0.00036901      -0.00069361       0.01468452
Pt       2.80721415       4.86223733      19.95723415        4       0.00000000      -0.00073109       0.00547978      -0.00029612
Pt       5.61442796       4.86223739      19.95723433        4       0.00000000      -0.00038138       0.00065991       0.01466442
Pt       8.42164143       4.86223725      19.95723439        4       0.00000000       0.00075259       0.00002212       0.01465053
Pt       1.40360728       0.81037261      22.29206792        3       0.00000000       0.00452776       0.00278526      -0.04372844
Pt       4.21082128       0.81037249      22.29206789        3       0.00000000      -0.00466704       0.00250734      -0.04379192
Pt       7.01803472       0.81037258      22.29206780        3       0.00000000       0.00094250       0.00354809      -0.00035251
Pt       2.80721447       3.24149123      22.29206774        3       0.00000000       0.00012952      -0.00528907      -0.04372751
Pt       5.61442762       3.24149120      22.29206786        3       0.00000000      -0.00127636       0.00149471      -0.04153981
Pt       8.42164156       3.24149131      22.29206806        3       0.00000000      -0.00066203      -0.00183152      -0.04147209
Pt       4.21082090       5.67260998      22.29206740        3       0.00000000       0.00259642      -0.00259701      -0.00034137
Pt       7.01803486       5.67261041      22.29206774        3       0.00000000       0.00194079       0.00033545      -0.04153567
Pt       9.82524817       5.67261060      22.29206803        3       0.00000000      -0.00353595      -0.00096047      -0.00034694
Pt      -0.00000054       1.62074568      24.58417374        2       0.00000000      -0.00274781       0.00046551       0.01415343
Pt       2.80721436       1.62074546      24.58417392        2       0.00000000      -0.00001734       0.00004308       0.03613787
Pt       5.61442782       1.62074536      24.58417379        2       0.00000000      -0.00122466       0.00949556       0.01381527
Pt       1.40360636       4.05186439      24.58417387        2       0.00000000      -0.00756426      -0.00594705       0.01383292
Pt       4.21082089       4.05186396      24.58417387        2       0.00000000       0.00184704       0.00207147       0.01401818
Pt       7.01803504       4.05186408      24.58417404        2       0.00000000      -0.00000386      -0.00006987       0.02356752
Pt       2.80721273       6.48298349      24.58417384        2       0.00000000       0.00001825       0.00000338      -0.01666325
Pt       5.61442806       6.48298330      24.58417399        2       0.00000000       0.00891618      -0.00354544       0.01371716
Pt       8.42164222       6.48298344      24.58417375        2       0.00000000       0.00079483      -0.00243761       0.01406687
Pt      -0.00897601      -0.00409001      26.91386221        1       0.00000000       0.00496150      -0.00072602       0.00596966
Pt       2.80763951      -0.04006781      26.91114204        1       0.00000000      -0.00418630       0.00414983       0.00452522
Pt       5.62247128      -0.00571962      26.91386601        1       0.00000000      -0.00188707       0.00470263       0.00595039
Pt       1.36865008       2.45078279      26.91114778        1       0.00000000       0.00566129       0.00159313       0.00400156
Pt       4.24535229       2.45152277      26.91112588        1       0.00000000      -0.00151580      -0.00539098       0.00383551
Pt       7.01768962       2.43218735      26.91796927        1       0.00000000      -0.00574158      -0.00466057       0.00750918
Pt       2.80815707       4.87205150      26.91385791        1       0.00000000      -0.00311849      -0.00400973       0.00609502
Pt       5.61551931       4.86202888      26.91790651        1       0.00000000      -0.00114517       0.00726536       0.00822105
Pt       8.42089028       4.86143581      26.91790900        1       0.00000000       0.00704321      -0.00289444       0.00818719
O        2.80715087       1.62063538      29.30709802        0       0.50000000      -0.00037682      -0.00055741      -0.00617411
H        2.80727618       1.62082590      28.31312102        0       0.50000000       0.00029242       0.00046311       0.00652047
