38
Lattice="8.421641763931781 0.0 0.0 4.2108208819658905 7.293355709136913 0.0 0.0 0.0 46.87624170604845" Properties=species:S:1:pos:R:3:tags:I:1:initial_magmoms:R:1:forces:R:3 charge=0 spin=0 energy=-194.69029566342198 free_energy=-194.69029566342198 stress="0.00969473272562027 -6.855274392592037e-08 9.101966469415856e-08 -6.855274392592037e-08 0.009694602340459824 -1.665592108679448e-08 9.101966469415856e-08 -1.665592108679448e-08 -8.111310307867825e-05" pbc="T T T"
Pt      -0.00000011      -0.00000005      19.95723442        4       0.00000000      -0.00438457      -0.00331852      -0.00029771
Pt       2.80721395      -0.00000019      19.95723450        4       0.00000000       0.00086065      -0.00285199       0.01082862
Pt       5.61442786      -0.00000007      19.95723452        4       0.00000000       0.00505621      -0.00215359      -0.00031327
Pt       1.40360721       2.43111839      19.95723434        4       0.00000000      -0.00291356       0.00068211       0.01086061
Pt       4.21082082       2.43111837      19.95723444        4       0.00000000       0.00205368       0.00217428       0.01084478
Pt       7.01803481       2.43111844      19.95723433        4       0.00000000      -0.00032883      -0.00062465       0.01473327
Pt       2.80721415       4.86223733      19.95723415        4       0.00000000      -0.00067578       0.00548020      -0.00028698
Pt       5.61442796       4.86223739      19.95723433        4       0.00000000      -0.00033978       0.00059211       0.01471550
Pt       8.42164143       4.86223725      19.95723439        4       0.00000000       0.00066965       0.00002297       0.01470055
Pt       1.40360728       0.81037261      22.29206792        3       0.00000000       0.00453218       0.00283415      -0.04383881
Pt       4.21082128       0.81037249      22.29206789        3       0.00000000      -0.00470756       0.00249683      -0.04389885
Pt       7.01803472       0.81037258      22.29206780        3       0.00000000       0.00094213       0.00351611      -0.00069666
Pt       2.80721447       3.24149123      22.29206774        3       0.00000000       0.00016373      -0.00531818      -0.04383436
Pt       5.61442762       3.24149120      22.29206786        3       0.00000000      -0.00138860       0.00151321      -0.04138521
Pt       8.42164156       3.24149131      22.29206806        3       0.00000000      -0.00062106      -0.00193407      -0.04132384
Pt       4.21082090       5.67260998      22.29206740        3       0.00000000       0.00256958      -0.00257464      -0.00069229
Pt       7.01803486       5.67261041      22.29206774        3       0.00000000       0.00200665       0.00042390      -0.04138321
Pt       9.82524817       5.67261060      22.29206803        3       0.00000000      -0.00350893      -0.00094247      -0.00070227
Pt      -0.00000054       1.62074568      24.58417374        2       0.00000000      -0.00331666       0.00256528       0.02252644
Pt       2.80721436       1.62074546      24.58417392        2       0.00000000      -0.00000671       0.00001512       0.04169390
Pt       5.61442782       1.62074536      24.58417379        2       0.00000000      -0.00089812       0.01130415       0.01925881
Pt       1.40360636       4.05186439      24.58417387        2       0.00000000      -0.00936575      -0.00646877       0.01921025
Pt       4.21082089       4.05186396      24.58417387        2       0.00000000       0.00403982       0.00157729       0.02239207
Pt       7.01803504       4.05186408      24.58417404        2       0.00000000      -0.00000536       0.00001613       0.03884986
Pt       2.80721273       6.48298349      24.58417384        2       0.00000000       0.00001643       0.00001058      -0.01024210
Pt       5.61442806       6.48298330      24.58417399        2       0.00000000       0.01018336      -0.00490381       0.01905959
Pt       8.42164222       6.48298344      24.58417375        2       0.00000000      -0.00062590      -0.00413763       0.02234080
Pt      -0.00820271      -0.00402606      26.91460918        1       0.00000000      -0.00055880      -0.00085111       0.00223536
Pt       2.80707103      -0.03993399      26.91254314        1       0.00000000       0.00026612      -0.00050027      -0.00396432
Pt       5.62201444      -0.00508985      26.91460921        1       0.00000000       0.00099605      -0.00007110       0.00224151
Pt       1.36911073       2.45119308      26.91257499        1       0.00000000      -0.00045815      -0.00004537      -0.00369753
Pt       4.24545999       2.45095674      26.91256037        1       0.00000000       0.00021827       0.00045054      -0.00378186
Pt       7.01695562       2.43104975      26.92008049        1       0.00000000      -0.00004624       0.00557425      -0.00408097
Pt       2.80783369       4.87135522      26.91459241        1       0.00000000      -0.00044415       0.00090687       0.00246460
Pt       5.61491273       4.86320304      26.92008364        1       0.00000000       0.00485657      -0.00274564      -0.00385663
Pt       8.42223915       4.86133389      26.92008248        1       0.00000000      -0.00479166      -0.00285545      -0.00385487
O        2.80717524       1.62086797      29.30750729        0       0.50000000      -0.00021995       0.00068067       0.01969596
H        2.80724569       1.62064377      28.31416248        0       0.50000000       0.00017489      -0.00053918      -0.01652069
