38
Lattice="8.421641763931781 0.0 0.0 4.2108208819658905 7.293355709136913 0.0 0.0 0.0 46.87624170604845" Properties=species:S:1:pos:R:3:tags:I:1:initial_magmoms:R:1:forces:R:3 charge=0 spin=0 energy=-194.69028994137608 free_energy=-194.69028994137608 stress="0.009694727137684822 -6.862132551077593e-08 8.110274052341993e-08 -6.862132551077593e-08 0.0096945995464921 -1.0547461570808991e-08 8.110274052341993e-08 -1.0547461570808991e-08 -8.111018541967496e-05" pbc="T T T"
Pt      -0.00000011      -0.00000005      19.95723442        4       0.00000000      -0.00438453      -0.00331848      -0.00029769
Pt       2.80721395      -0.00000019      19.95723450        4       0.00000000       0.00086084      -0.00285188       0.01082841
Pt       5.61442786      -0.00000007      19.95723452        4       0.00000000       0.00505614      -0.00215360      -0.00031300
Pt       1.40360721       2.43111839      19.95723434        4       0.00000000      -0.00291372       0.00068215       0.01086068
Pt       4.21082082       2.43111837      19.95723444        4       0.00000000       0.00205365       0.00217431       0.01084494
Pt       7.01803481       2.43111844      19.95723433        4       0.00000000      -0.00032877      -0.00062466       0.01473325
Pt       2.80721415       4.86223733      19.95723415        4       0.00000000      -0.00067563       0.00548017      -0.00028743
Pt       5.61442796       4.86223739      19.95723433        4       0.00000000      -0.00033991       0.00059215       0.01471538
Pt       8.42164143       4.86223725      19.95723439        4       0.00000000       0.00066949       0.00002284       0.01470045
Pt       1.40360728       0.81037261      22.29206792        3       0.00000000       0.00453218       0.00283418      -0.04383878
Pt       4.21082128       0.81037249      22.29206789        3       0.00000000      -0.00470768       0.00249687      -0.04389813
Pt       7.01803472       0.81037258      22.29206780        3       0.00000000       0.00094231       0.00351578      -0.00069751
Pt       2.80721447       3.24149123      22.29206774        3       0.00000000       0.00016375      -0.00531842      -0.04383429
Pt       5.61442762       3.24149120      22.29206786        3       0.00000000      -0.00138872       0.00151298      -0.04138471
Pt       8.42164156       3.24149131      22.29206806        3       0.00000000      -0.00062101      -0.00193424      -0.04132392
Pt       4.21082090       5.67260998      22.29206740        3       0.00000000       0.00256935      -0.00257457      -0.00069311
Pt       7.01803486       5.67261041      22.29206774        3       0.00000000       0.00200659       0.00042410      -0.04138225
Pt       9.82524817       5.67261060      22.29206803        3       0.00000000      -0.00350911      -0.00094280      -0.00070311
Pt      -0.00000054       1.62074568      24.58417374        2       0.00000000      -0.00331697       0.00256763       0.02252294
Pt       2.80721436       1.62074546      24.58417392        2       0.00000000      -0.00000511       0.00001416       0.04169836
Pt       5.61442782       1.62074536      24.58417379        2       0.00000000      -0.00090024       0.01130574       0.01926217
Pt       1.40360636       4.05186439      24.58417387        2       0.00000000      -0.00936590      -0.00646783       0.01920970
Pt       4.21082089       4.05186396      24.58417387        2       0.00000000       0.00404034       0.00157368       0.02239779
Pt       7.01803504       4.05186408      24.58417404        2       0.00000000      -0.00000519       0.00001549       0.03885077
Pt       2.80721273       6.48298349      24.58417384        2       0.00000000       0.00001453       0.00000995      -0.01024420
Pt       5.61442806       6.48298330      24.58417399        2       0.00000000       0.01018895      -0.00490318       0.01905926
Pt       8.42164222       6.48298344      24.58417375        2       0.00000000      -0.00062845      -0.00413572       0.02234463
Pt      -0.00820219      -0.00402616      26.91460848        1       0.00000000      -0.00056452      -0.00085040       0.00224601
Pt       2.80707069      -0.03993394      26.91254338        1       0.00000000       0.00027232      -0.00049805      -0.00397007
Pt       5.62201442      -0.00508992      26.91460911        1       0.00000000       0.00099658      -0.00006969       0.00224037
Pt       1.36911046       2.45119305      26.91257482        1       0.00000000      -0.00046409      -0.00004035      -0.00370943
Pt       4.24545981       2.45095659      26.91256114        1       0.00000000       0.00022056       0.00045329      -0.00378879
Pt       7.01695592       2.43104959      26.92008028        1       0.00000000      -0.00004695       0.00557653      -0.00408201
Pt       2.80783343       4.87135509      26.91459227        1       0.00000000      -0.00044334       0.00090547       0.00246384
Pt       5.61491286       4.86320331      26.92008308        1       0.00000000       0.00485444      -0.00275283      -0.00385686
Pt       8.42223894       4.86133415      26.92008208        1       0.00000000      -0.00479068      -0.00285902      -0.00385491
O        2.80717856       1.62086584      29.30750473        0       0.50000000      -0.00020092       0.00066730       0.01970240
H        2.80724298       1.62064575      28.31416211        0       0.50000000       0.00015949      -0.00052878      -0.01652107
