38
Lattice="8.421641763931781 0.0 0.0 4.2108208819658905 7.293355709136913 0.0 0.0 0.0 46.87624170604845" Properties=species:S:1:pos:R:3:tags:I:1:initial_magmoms:R:1:forces:R:3 charge=0 spin=0 energy=-194.6902556091007 free_energy=-194.6902556091007 stress="0.009662976488471031 -4.5614374499791666e-09 1.7442424393721012e-07 -4.5614374499791666e-09 0.009663211181759834 3.9046594224600994e-07 1.7442424393721012e-07 3.9046594224600994e-07 -0.000125301128719002" pbc="T T T"
Pt      -0.00000011      -0.00000005      19.95723442        4       0.00000000      -0.00436445      -0.00337013      -0.00028407
Pt       2.80721395      -0.00000019      19.95723450        4       0.00000000       0.00079429      -0.00292821       0.01079590
Pt       5.61442786      -0.00000007      19.95723452        4       0.00000000       0.00509025      -0.00210796      -0.00030320
Pt       1.40360721       2.43111839      19.95723434        4       0.00000000      -0.00294474       0.00077661       0.01082692
Pt       4.21082082       2.43111837      19.95723444        4       0.00000000       0.00215245       0.00215526       0.01081006
Pt       7.01803481       2.43111844      19.95723433        4       0.00000000      -0.00036902      -0.00069375       0.01468465
Pt       2.80721415       4.86223733      19.95723415        4       0.00000000      -0.00073080       0.00547948      -0.00029580
Pt       5.61442796       4.86223739      19.95723433        4       0.00000000      -0.00038162       0.00066003       0.01466446
Pt       8.42164143       4.86223725      19.95723439        4       0.00000000       0.00075246       0.00002206       0.01465079
Pt       1.40360728       0.81037261      22.29206792        3       0.00000000       0.00452788       0.00278497      -0.04372843
Pt       4.21082128       0.81037249      22.29206789        3       0.00000000      -0.00466663       0.00250655      -0.04379142
Pt       7.01803472       0.81037258      22.29206780        3       0.00000000       0.00094323       0.00354710      -0.00035238
Pt       2.80721447       3.24149123      22.29206774        3       0.00000000       0.00012932      -0.00528887      -0.04372627
Pt       5.61442762       3.24149120      22.29206786        3       0.00000000      -0.00127628       0.00149451      -0.04153948
Pt       8.42164156       3.24149131      22.29206806        3       0.00000000      -0.00066135      -0.00183163      -0.04147189
Pt       4.21082090       5.67260998      22.29206740        3       0.00000000       0.00259644      -0.00259666      -0.00034168
Pt       7.01803486       5.67261041      22.29206774        3       0.00000000       0.00194076       0.00033498      -0.04153613
Pt       9.82524817       5.67261060      22.29206803        3       0.00000000      -0.00353519      -0.00096073      -0.00034790
Pt      -0.00000054       1.62074568      24.58417374        2       0.00000000      -0.00274558       0.00046997       0.01415290
Pt       2.80721436       1.62074546      24.58417392        2       0.00000000      -0.00001483       0.00004453       0.03614447
Pt       5.61442782       1.62074536      24.58417379        2       0.00000000      -0.00123151       0.00950008       0.01382247
Pt       1.40360636       4.05186439      24.58417387        2       0.00000000      -0.00756352      -0.00595237       0.01383088
Pt       4.21082089       4.05186396      24.58417387        2       0.00000000       0.00184885       0.00206410       0.01402200
Pt       7.01803504       4.05186408      24.58417404        2       0.00000000      -0.00000633      -0.00006977       0.02356899
Pt       2.80721273       6.48298349      24.58417384        2       0.00000000       0.00001510       0.00000448      -0.01667204
Pt       5.61442806       6.48298330      24.58417399        2       0.00000000       0.00892109      -0.00354587       0.01371891
Pt       8.42164222       6.48298344      24.58417375        2       0.00000000       0.00079119      -0.00243317       0.01407070
Pt      -0.00897681      -0.00408974      26.91386114        1       0.00000000       0.00496812      -0.00072599       0.00597954
Pt       2.80763795      -0.04006622      26.91114446        1       0.00000000      -0.00417954       0.00413114       0.00450544
Pt       5.62247102      -0.00571863      26.91386562        1       0.00000000      -0.00189530       0.00470095       0.00595083
Pt       1.36865025       2.45078257      26.91115041        1       0.00000000       0.00565659       0.00159845       0.00398979
Pt       4.24535143       2.45152382      26.91112973        1       0.00000000      -0.00150988      -0.00539468       0.00381888
Pt       7.01768925       2.43218676      26.91796874        1       0.00000000      -0.00574272      -0.00465162       0.00750895
Pt       2.80815775       4.87205259      26.91385709        1       0.00000000      -0.00312120      -0.00401395       0.00610369
Pt       5.61551814       4.86202920      26.91790522        1       0.00000000      -0.00113353       0.00726935       0.00821815
Pt       8.42089079       4.86143586      26.91790801        1       0.00000000       0.00702923      -0.00288869       0.00819485
O        2.80715262       1.62063798      29.30709640        0       0.50000000      -0.00036760      -0.00054496      -0.00623026
H        2.80727542       1.62082442      28.31311788        0       0.50000000       0.00028413       0.00045417       0.00658705
