38
Lattice="8.421641763931781 0.0 0.0 4.2108208819658905 7.293355709136913 0.0 0.0 0.0 46.87624170604845" Properties=species:S:1:pos:R:3:tags:I:1:initial_magmoms:R:1:forces:R:3 charge=0 spin=0 energy=-194.6895289092716 free_energy=-194.6895289092716 stress="0.009699000045657158 5.161835048284047e-08 -3.3815419442362327e-07 5.161835048284047e-08 0.009699135087430477 3.435050075495383e-07 -3.3815419442362327e-07 3.435050075495383e-07 -5.138572305440903e-05" pbc="T T T"
Pt      -0.00000011      -0.00000005      19.95723442        4       0.00000000      -0.00436967      -0.00336263      -0.00048227
Pt       2.80721395      -0.00000019      19.95723450        4       0.00000000       0.00091643      -0.00339383       0.01069335
Pt       5.61442786      -0.00000007      19.95723452        4       0.00000000       0.00508982      -0.00212546      -0.00047650
Pt       1.40360721       2.43111839      19.95723434        4       0.00000000      -0.00341163       0.00090263       0.01072469
Pt       4.21082082       2.43111837      19.95723444        4       0.00000000       0.00249402       0.00249794       0.01071310
Pt       7.01803481       2.43111844      19.95723433        4       0.00000000      -0.00041643      -0.00067533       0.01486603
Pt       2.80721415       4.86223733      19.95723415        4       0.00000000      -0.00071655       0.00548622      -0.00048329
Pt       5.61442796       4.86223739      19.95723433        4       0.00000000      -0.00034098       0.00069571       0.01484406
Pt       8.42164143       4.86223725      19.95723439        4       0.00000000       0.00075828      -0.00002875       0.01482998
Pt       1.40360728       0.81037261      22.29206792        3       0.00000000       0.00513847       0.00327551      -0.04675387
Pt       4.21082128       0.81037249      22.29206789        3       0.00000000      -0.00539752       0.00280160      -0.04679571
Pt       7.01803472       0.81037258      22.29206780        3       0.00000000       0.00073680       0.00376635       0.00132808
Pt       2.80721447       3.24149123      22.29206774        3       0.00000000       0.00024164      -0.00606119      -0.04675588
Pt       5.61442762       3.24149120      22.29206786        3       0.00000000      -0.00181544       0.00128083      -0.04077403
Pt       8.42164156       3.24149131      22.29206806        3       0.00000000      -0.00020577      -0.00218862      -0.04072754
Pt       4.21082090       5.67260998      22.29206740        3       0.00000000       0.00289286      -0.00251687       0.00135539
Pt       7.01803486       5.67261041      22.29206774        3       0.00000000       0.00202619       0.00090961      -0.04076875
Pt       9.82524817       5.67261060      22.29206803        3       0.00000000      -0.00361267      -0.00125833       0.00132562
Pt      -0.00000054       1.62074568      24.58417374        2       0.00000000      -0.01136601       0.00495618       0.03417309
Pt       2.80721436       1.62074546      24.58417392        2       0.00000000       0.00002216      -0.00002356       0.03263927
Pt       5.61442782       1.62074536      24.58417379        2       0.00000000       0.00700251       0.01421307       0.03159191
Pt       1.40360636       4.05186439      24.58417387        2       0.00000000      -0.01582625      -0.00094527       0.03139052
Pt       4.21082089       4.05186396      24.58417387        2       0.00000000       0.01015290       0.00716757       0.03429683
Pt       7.01803504       4.05186408      24.58417404        2       0.00000000       0.00000665      -0.00000569       0.04936134
Pt       2.80721273       6.48298349      24.58417384        2       0.00000000       0.00001088       0.00001350      -0.01373158
Pt       5.61442806       6.48298330      24.58417399        2       0.00000000       0.00886399      -0.01314382       0.03157059
Pt       8.42164222       6.48298344      24.58417375        2       0.00000000       0.00110301      -0.01220361       0.03429574
Pt      -0.00986996      -0.00479739      26.91485805        1       0.00000000       0.00793577       0.00299386      -0.00204418
Pt       2.80712393      -0.04002711      26.91117391        1       0.00000000      -0.00025835      -0.02038218      -0.00995934
Pt       5.62352096      -0.00614980      26.91485616        1       0.00000000      -0.00656244       0.00537133      -0.00204293
Pt       1.36896420       2.45121979      26.91111097        1       0.00000000      -0.01764352       0.01047081      -0.01033068
Pt       4.24553200       2.45105830      26.91115927        1       0.00000000       0.01778729       0.00994340      -0.01003335
Pt       7.01710898       2.43521521      26.92578355        1       0.00000000      -0.00123654      -0.02262255      -0.02764064
Pt       2.80799919       4.87318427      26.91484546        1       0.00000000      -0.00136729      -0.00837209      -0.00207283
Pt       5.61843995       4.86098818      26.92577989        1       0.00000000      -0.01899161       0.01239009      -0.02764102
Pt       8.41855278       4.85939103      26.92578034        1       0.00000000       0.02021260       0.01026859      -0.02763862
O        2.80734198       1.62065021      29.28748596        0       0.50000000       0.00075511      -0.00055801       0.04491710
H        2.80711187       1.62081893      28.29387303        0       0.50000000      -0.00060909       0.00046311      -0.00776376
