38
Lattice="8.421641763931781 0.0 0.0 4.2108208819658905 7.293355709136913 0.0 0.0 0.0 46.87624170604845" Properties=species:S:1:pos:R:3:tags:I:1:initial_magmoms:R:1:forces:R:3 charge=0 spin=0 energy=-194.6902918487247 free_energy=-194.6902918487247 stress="0.009694736450910568 -6.164292898347412e-08 5.223858678959914e-08 -6.164292898347412e-08 0.009694591164588928 -3.079223631630157e-08 5.223858678959914e-08 -3.079223631630157e-08 -8.108450856525451e-05" pbc="T T T"
Pt      -0.00000011      -0.00000005      19.95723442        4       0.00000000      -0.00438427      -0.00331832      -0.00029883
Pt       2.80721395      -0.00000019      19.95723450        4       0.00000000       0.00086062      -0.00285197       0.01082847
Pt       5.61442786      -0.00000007      19.95723452        4       0.00000000       0.00505636      -0.00215376      -0.00031266
Pt       1.40360721       2.43111839      19.95723434        4       0.00000000      -0.00291385       0.00068199       0.01086055
Pt       4.21082082       2.43111837      19.95723444        4       0.00000000       0.00205374       0.00217439       0.01084501
Pt       7.01803481       2.43111844      19.95723433        4       0.00000000      -0.00032873      -0.00062464       0.01473340
Pt       2.80721415       4.86223733      19.95723415        4       0.00000000      -0.00067565       0.00548052      -0.00028670
Pt       5.61442796       4.86223739      19.95723433        4       0.00000000      -0.00033990       0.00059210       0.01471525
Pt       8.42164143       4.86223725      19.95723439        4       0.00000000       0.00066948       0.00002285       0.01470055
Pt       1.40360728       0.81037261      22.29206792        3       0.00000000       0.00453253       0.00283402      -0.04384052
Pt       4.21082128       0.81037249      22.29206789        3       0.00000000      -0.00470783       0.00249696      -0.04389817
Pt       7.01803472       0.81037258      22.29206780        3       0.00000000       0.00094273       0.00351627      -0.00069574
Pt       2.80721447       3.24149123      22.29206774        3       0.00000000       0.00016362      -0.00531860      -0.04383418
Pt       5.61442762       3.24149120      22.29206786        3       0.00000000      -0.00138901       0.00151329      -0.04138386
Pt       8.42164156       3.24149131      22.29206806        3       0.00000000      -0.00062075      -0.00193385      -0.04132453
Pt       4.21082090       5.67260998      22.29206740        3       0.00000000       0.00256971      -0.00257380      -0.00069221
Pt       7.01803486       5.67261041      22.29206774        3       0.00000000       0.00200703       0.00042409      -0.04138381
Pt       9.82524817       5.67261060      22.29206803        3       0.00000000      -0.00350921      -0.00094239      -0.00070388
Pt      -0.00000054       1.62074568      24.58417374        2       0.00000000      -0.00332231       0.00256445       0.02252531
Pt       2.80721436       1.62074546      24.58417392        2       0.00000000      -0.00000319       0.00001679       0.04169310
Pt       5.61442782       1.62074536      24.58417379        2       0.00000000      -0.00090357       0.01131006       0.01927323
Pt       1.40360636       4.05186439      24.58417387        2       0.00000000      -0.00936563      -0.00646223       0.01920286
Pt       4.21082089       4.05186396      24.58417387        2       0.00000000       0.00404116       0.00156814       0.02240556
Pt       7.01803504       4.05186408      24.58417404        2       0.00000000      -0.00000473       0.00001343       0.03885166
Pt       2.80721273       6.48298349      24.58417384        2       0.00000000       0.00001595       0.00001050      -0.01024038
Pt       5.61442806       6.48298330      24.58417399        2       0.00000000       0.01018065      -0.00490542       0.01905488
Pt       8.42164222       6.48298344      24.58417375        2       0.00000000      -0.00062030      -0.00414006       0.02233195
Pt      -0.00820210      -0.00402609      26.91460928        1       0.00000000      -0.00056496      -0.00084919       0.00223649
Pt       2.80707094      -0.03993469      26.91254066        1       0.00000000       0.00026808      -0.00049884      -0.00396837
Pt       5.62201475      -0.00509002      26.91460967        1       0.00000000       0.00099981      -0.00007192       0.00224062
Pt       1.36911011       2.45119333      26.91257353        1       0.00000000      -0.00046585      -0.00003940      -0.00371042
Pt       4.24545868       2.45095581      26.91256393        1       0.00000000       0.00021267       0.00044727      -0.00376167
Pt       7.01695547       2.43105009      26.92008136        1       0.00000000      -0.00004604       0.00557114      -0.00409028
Pt       2.80783363       4.87135529      26.91459250        1       0.00000000      -0.00044415       0.00090795       0.00246265
Pt       5.61491291       4.86320289      26.92008383        1       0.00000000       0.00485042      -0.00275074      -0.00385692
Pt       8.42223874       4.86133386      26.92008274        1       0.00000000      -0.00478578      -0.00285908      -0.00385277
O        2.80719017       1.62087437      29.30750562        0       0.50000000      -0.00013502       0.00071750       0.01962336
H        2.80723293       1.62063857      28.31416164        0       0.50000000       0.00010612      -0.00056945      -0.01644885
