38
Lattice="8.421641763931781 0.0 0.0 4.2108208819658905 7.293355709136913 0.0 0.0 0.0 46.87624170604845" Properties=species:S:1:pos:R:3:tags:I:1:initial_magmoms:R:1:forces:R:3 charge=0 spin=0 energy=-194.6902918487247 free_energy=-194.6902918487247 stress="0.009694738313555717 -7.179362171427783e-08 8.81511610373309e-08 -7.179362171427783e-08 0.0096945995464921 -3.599623354944015e-08 8.81511610373309e-08 -3.599623354944015e-08 -8.113378135021776e-05" pbc="T T T"
Pt      -0.00000011      -0.00000005      19.95723442        4       0.00000000      -0.00438441      -0.00331824      -0.00029796
Pt       2.80721395      -0.00000019      19.95723450        4       0.00000000       0.00086076      -0.00285195       0.01082847
Pt       5.61442786      -0.00000007      19.95723452        4       0.00000000       0.00505617      -0.00215349      -0.00031349
Pt       1.40360721       2.43111839      19.95723434        4       0.00000000      -0.00291374       0.00068210       0.01086051
Pt       4.21082082       2.43111837      19.95723444        4       0.00000000       0.00205375       0.00217419       0.01084488
Pt       7.01803481       2.43111844      19.95723433        4       0.00000000      -0.00032883      -0.00062472       0.01473327
Pt       2.80721415       4.86223733      19.95723415        4       0.00000000      -0.00067585       0.00548036      -0.00028673
Pt       5.61442796       4.86223739      19.95723433        4       0.00000000      -0.00033962       0.00059196       0.01471533
Pt       8.42164143       4.86223725      19.95723439        4       0.00000000       0.00066951       0.00002293       0.01470028
Pt       1.40360728       0.81037261      22.29206792        3       0.00000000       0.00453226       0.00283404      -0.04383931
Pt       4.21082128       0.81037249      22.29206789        3       0.00000000      -0.00470766       0.00249693      -0.04389890
Pt       7.01803472       0.81037258      22.29206780        3       0.00000000       0.00094222       0.00351603      -0.00069656
Pt       2.80721447       3.24149123      22.29206774        3       0.00000000       0.00016414      -0.00531871      -0.04383427
Pt       5.61442762       3.24149120      22.29206786        3       0.00000000      -0.00138879       0.00151327      -0.04138473
Pt       8.42164156       3.24149131      22.29206806        3       0.00000000      -0.00062113      -0.00193436      -0.04132308
Pt       4.21082090       5.67260998      22.29206740        3       0.00000000       0.00256961      -0.00257420      -0.00069345
Pt       7.01803486       5.67261041      22.29206774        3       0.00000000       0.00200634       0.00042412      -0.04138342
Pt       9.82524817       5.67261060      22.29206803        3       0.00000000      -0.00350959      -0.00094242      -0.00070225
Pt      -0.00000054       1.62074568      24.58417374        2       0.00000000      -0.00331810       0.00256974       0.02252662
Pt       2.80721436       1.62074546      24.58417392        2       0.00000000      -0.00000539       0.00001785       0.04169404
Pt       5.61442782       1.62074536      24.58417379        2       0.00000000      -0.00089868       0.01130753       0.01926629
Pt       1.40360636       4.05186439      24.58417387        2       0.00000000      -0.00936795      -0.00646703       0.01921329
Pt       4.21082089       4.05186396      24.58417387        2       0.00000000       0.00404014       0.00157441       0.02239662
Pt       7.01803504       4.05186408      24.58417404        2       0.00000000      -0.00000326       0.00001520       0.03885705
Pt       2.80721273       6.48298349      24.58417384        2       0.00000000       0.00001447       0.00000894      -0.01024429
Pt       5.61442806       6.48298330      24.58417399        2       0.00000000       0.01018140      -0.00490690       0.01905094
Pt       8.42164222       6.48298344      24.58417375        2       0.00000000      -0.00062124      -0.00414226       0.02233662
Pt      -0.00820234      -0.00402583      26.91460852        1       0.00000000      -0.00055814      -0.00085332       0.00224552
Pt       2.80707100      -0.03993441      26.91254050        1       0.00000000       0.00026867      -0.00050295      -0.00396434
Pt       5.62201428      -0.00508964      26.91460927        1       0.00000000       0.00099398      -0.00007281       0.00224228
Pt       1.36911095       2.45119283      26.91257518        1       0.00000000      -0.00045482      -0.00004533      -0.00368960
Pt       4.24545950       2.45095645      26.91256072        1       0.00000000       0.00021861       0.00045151      -0.00378065
Pt       7.01695575       2.43104942      26.92008156        1       0.00000000      -0.00004937       0.00557996      -0.00409573
Pt       2.80783364       4.87135513      26.91459263        1       0.00000000      -0.00044480       0.00090630       0.00246395
Pt       5.61491258       4.86320317      26.92008469        1       0.00000000       0.00485705      -0.00274967      -0.00385692
Pt       8.42223904       4.86133381      26.92008357        1       0.00000000      -0.00479198      -0.00285803      -0.00386437
O        2.80717594       1.62087452      29.30750909        0       0.50000000      -0.00021504       0.00071919       0.01976330
H        2.80724535       1.62063801      28.31416666        0       0.50000000       0.00016930      -0.00057022      -0.01658901
