38
Lattice="8.421641763931781 0.0 0.0 4.2108208819658905 7.293355709136913 0.0 0.0 0.0 46.87624170604845" Properties=species:S:1:pos:R:3:tags:I:1:initial_magmoms:R:1:forces:R:3 charge=0 spin=0 energy=-194.6902918487247 free_energy=-194.6902918487247 stress="0.009694733656942844 -6.121624096522282e-08 5.3898379093197946e-08 -6.121624096522282e-08 0.00969459768384695 -2.6046452106243123e-08 5.3898379093197946e-08 -2.6046452106243123e-08 -8.111429633572698e-05" pbc="T T T"
Pt      -0.00000011      -0.00000005      19.95723442        4       0.00000000      -0.00438434      -0.00331838      -0.00029875
Pt       2.80721395      -0.00000019      19.95723450        4       0.00000000       0.00086058      -0.00285179       0.01082853
Pt       5.61442786      -0.00000007      19.95723452        4       0.00000000       0.00505647      -0.00215376      -0.00031264
Pt       1.40360721       2.43111839      19.95723434        4       0.00000000      -0.00291379       0.00068198       0.01086061
Pt       4.21082082       2.43111837      19.95723444        4       0.00000000       0.00205369       0.00217430       0.01084507
Pt       7.01803481       2.43111844      19.95723433        4       0.00000000      -0.00032869      -0.00062479       0.01473317
Pt       2.80721415       4.86223733      19.95723415        4       0.00000000      -0.00067577       0.00548031      -0.00028679
Pt       5.61442796       4.86223739      19.95723433        4       0.00000000      -0.00033980       0.00059206       0.01471533
Pt       8.42164143       4.86223725      19.95723439        4       0.00000000       0.00066945       0.00002267       0.01470051
Pt       1.40360728       0.81037261      22.29206792        3       0.00000000       0.00453211       0.00283431      -0.04383933
Pt       4.21082128       0.81037249      22.29206789        3       0.00000000      -0.00470773       0.00249711      -0.04389724
Pt       7.01803472       0.81037258      22.29206780        3       0.00000000       0.00094239       0.00351626      -0.00069647
Pt       2.80721447       3.24149123      22.29206774        3       0.00000000       0.00016362      -0.00531822      -0.04383435
Pt       5.61442762       3.24149120      22.29206786        3       0.00000000      -0.00138903       0.00151359      -0.04138415
Pt       8.42164156       3.24149131      22.29206806        3       0.00000000      -0.00062112      -0.00193397      -0.04132482
Pt       4.21082090       5.67260998      22.29206740        3       0.00000000       0.00256963      -0.00257373      -0.00069213
Pt       7.01803486       5.67261041      22.29206774        3       0.00000000       0.00200685       0.00042406      -0.04138334
Pt       9.82524817       5.67261060      22.29206803        3       0.00000000      -0.00350887      -0.00094234      -0.00070403
Pt      -0.00000054       1.62074568      24.58417374        2       0.00000000      -0.00332022       0.00256309       0.02252146
Pt       2.80721436       1.62074546      24.58417392        2       0.00000000      -0.00000329       0.00001562       0.04169470
Pt       5.61442782       1.62074536      24.58417379        2       0.00000000      -0.00090425       0.01130824       0.01926786
Pt       1.40360636       4.05186439      24.58417387        2       0.00000000      -0.00936538      -0.00646217       0.01920350
Pt       4.21082089       4.05186396      24.58417387        2       0.00000000       0.00404120       0.00156828       0.02240290
Pt       7.01803504       4.05186408      24.58417404        2       0.00000000      -0.00000439       0.00001565       0.03885119
Pt       2.80721273       6.48298349      24.58417384        2       0.00000000       0.00001595       0.00001082      -0.01024102
Pt       5.61442806       6.48298330      24.58417399        2       0.00000000       0.01018388      -0.00490408       0.01905904
Pt       8.42164222       6.48298344      24.58417375        2       0.00000000      -0.00062343      -0.00413855       0.02233602
Pt      -0.00820190      -0.00402616      26.91460899        1       0.00000000      -0.00056266      -0.00084921       0.00223608
Pt       2.80707100      -0.03993455      26.91254171        1       0.00000000       0.00026913      -0.00050191      -0.00396634
Pt       5.62201425      -0.00508971      26.91460919        1       0.00000000       0.00099898      -0.00007464       0.00224136
Pt       1.36911018       2.45119335      26.91257328        1       0.00000000      -0.00046914      -0.00003918      -0.00371318
Pt       4.24545902       2.45095602      26.91256334        1       0.00000000       0.00021411       0.00044675      -0.00376789
Pt       7.01695526       2.43104936      26.92008081        1       0.00000000      -0.00004368       0.00557792      -0.00408678
Pt       2.80783407       4.87135497      26.91459246        1       0.00000000      -0.00044893       0.00090780       0.00246424
Pt       5.61491245       4.86320319      26.92008327        1       0.00000000       0.00485701      -0.00274878      -0.00385682
Pt       8.42223894       4.86133432      26.92008256        1       0.00000000      -0.00479025      -0.00286049      -0.00385474
O        2.80718878       1.62087130      29.30750647        0       0.50000000      -0.00014286       0.00069972       0.01969952
H        2.80723428       1.62064102      28.31416343        0       0.50000000       0.00011284      -0.00055444      -0.01652010
