38
Lattice="8.421641763931781 0.0 0.0 4.2108208819658905 7.293355709136913 0.0 0.0 0.0 46.87624170604845" Properties=species:S:1:pos:R:3:tags:I:1:initial_magmoms:R:1:forces:R:3 charge=0 spin=0 energy=-194.6895289092716 free_energy=-194.6895289092716 stress="0.009699004702270031 4.836228839621981e-08 -3.273664503922191e-07 4.836228839621981e-08 0.009699120186269283 3.1847417858443805e-07 -3.273664503922191e-07 3.1847417858443805e-07 -5.1363211241550744e-05" pbc="T T T"
Pt      -0.00000011      -0.00000005      19.95723442        4       0.00000000      -0.00436975      -0.00336253      -0.00048263
Pt       2.80721395      -0.00000019      19.95723450        4       0.00000000       0.00091653      -0.00339336       0.01069333
Pt       5.61442786      -0.00000007      19.95723452        4       0.00000000       0.00508971      -0.00212553      -0.00047695
Pt       1.40360721       2.43111839      19.95723434        4       0.00000000      -0.00341140       0.00090236       0.01072463
Pt       4.21082082       2.43111837      19.95723444        4       0.00000000       0.00249359       0.00249788       0.01071318
Pt       7.01803481       2.43111844      19.95723433        4       0.00000000      -0.00041647      -0.00067522       0.01486601
Pt       2.80721415       4.86223733      19.95723415        4       0.00000000      -0.00071662       0.00548661      -0.00048301
Pt       5.61442796       4.86223739      19.95723433        4       0.00000000      -0.00034104       0.00069562       0.01484394
Pt       8.42164143       4.86223725      19.95723439        4       0.00000000       0.00075808      -0.00002879       0.01483005
Pt       1.40360728       0.81037261      22.29206792        3       0.00000000       0.00513831       0.00327523      -0.04675411
Pt       4.21082128       0.81037249      22.29206789        3       0.00000000      -0.00539749       0.00280136      -0.04679444
Pt       7.01803472       0.81037258      22.29206780        3       0.00000000       0.00073698       0.00376658       0.00132768
Pt       2.80721447       3.24149123      22.29206774        3       0.00000000       0.00024232      -0.00606136      -0.04675454
Pt       5.61442762       3.24149120      22.29206786        3       0.00000000      -0.00181473       0.00128120      -0.04077463
Pt       8.42164156       3.24149131      22.29206806        3       0.00000000      -0.00020599      -0.00218888      -0.04072699
Pt       4.21082090       5.67260998      22.29206740        3       0.00000000       0.00289335      -0.00251672       0.00135624
Pt       7.01803486       5.67261041      22.29206774        3       0.00000000       0.00202642       0.00090906      -0.04077005
Pt       9.82524817       5.67261060      22.29206803        3       0.00000000      -0.00361268      -0.00125840       0.00132667
Pt      -0.00000054       1.62074568      24.58417374        2       0.00000000      -0.01136256       0.00495689       0.03417049
Pt       2.80721436       1.62074546      24.58417392        2       0.00000000       0.00002332      -0.00002154       0.03263712
Pt       5.61442782       1.62074536      24.58417379        2       0.00000000       0.00699840       0.01421273       0.03158849
Pt       1.40360636       4.05186439      24.58417387        2       0.00000000      -0.01582171      -0.00094443       0.03138886
Pt       4.21082089       4.05186396      24.58417387        2       0.00000000       0.01014900       0.00716646       0.03429259
Pt       7.01803504       4.05186408      24.58417404        2       0.00000000       0.00000583      -0.00000510       0.04936289
Pt       2.80721273       6.48298349      24.58417384        2       0.00000000       0.00000945       0.00001139      -0.01372632
Pt       5.61442806       6.48298330      24.58417399        2       0.00000000       0.00885875      -0.01314478       0.03155404
Pt       8.42164222       6.48298344      24.58417375        2       0.00000000       0.00110861      -0.01220469       0.03428082
Pt      -0.00986877      -0.00479686      26.91485751        1       0.00000000       0.00792383       0.00298756      -0.00203954
Pt       2.80712386      -0.04002967      26.91117177        1       0.00000000      -0.00026180      -0.02037080      -0.00994800
Pt       5.62351996      -0.00614893      26.91485590        1       0.00000000      -0.00654829       0.00536589      -0.00204035
Pt       1.36896331       2.45122087      26.91111173        1       0.00000000      -0.01762769       0.01045605      -0.01030487
Pt       4.24553327       2.45105927      26.91115916        1       0.00000000       0.01777251       0.00994049      -0.01001948
Pt       7.01710878       2.43521234      26.92578178        1       0.00000000      -0.00123771      -0.02260249      -0.02763014
Pt       2.80799912       4.87318314      26.91484572        1       0.00000000      -0.00136516      -0.00836093      -0.00208254
Pt       5.61843746       4.86098960      26.92577809        1       0.00000000      -0.01897192       0.01237847      -0.02763220
Pt       8.41855533       4.85939224      26.92577873        1       0.00000000       0.02019222       0.01026012      -0.02763203
O        2.80734096       1.62065612      29.28748506        0       0.50000000       0.00072398      -0.00050672       0.04481515
H        2.80711240       1.62081376      28.29387149        0       0.50000000      -0.00057838       0.00042031      -0.00769926
