38
Lattice="8.421641763931781 0.0 0.0 4.2108208819658905 7.293355709136913 0.0 0.0 0.0 46.87624170604845" Properties=species:S:1:pos:R:3:tags:I:1:initial_magmoms:R:1:forces:R:3 charge=0 spin=0 energy=-194.68953272396885 free_energy=-194.68953272396885 stress="0.00969901867210865 5.5740674298476733e-08 -3.3659128462204535e-07 5.5740674298476733e-08 0.009699163027107716 3.508336874347151e-07 -3.3659128462204535e-07 3.508336874347151e-07 -5.1387651183176786e-05" pbc="T T T"
Pt      -0.00000011      -0.00000005      19.95723442        4       0.00000000      -0.00436923      -0.00336239      -0.00048214
Pt       2.80721395      -0.00000019      19.95723450        4       0.00000000       0.00091613      -0.00339364       0.01069357
Pt       5.61442786      -0.00000007      19.95723452        4       0.00000000       0.00508968      -0.00212532      -0.00047629
Pt       1.40360721       2.43111839      19.95723434        4       0.00000000      -0.00341116       0.00090266       0.01072497
Pt       4.21082082       2.43111837      19.95723444        4       0.00000000       0.00249381       0.00249803       0.01071333
Pt       7.01803481       2.43111844      19.95723433        4       0.00000000      -0.00041658      -0.00067539       0.01486599
Pt       2.80721415       4.86223733      19.95723415        4       0.00000000      -0.00071640       0.00548564      -0.00048335
Pt       5.61442796       4.86223739      19.95723433        4       0.00000000      -0.00034132       0.00069572       0.01484438
Pt       8.42164143       4.86223725      19.95723439        4       0.00000000       0.00075837      -0.00002873       0.01483026
Pt       1.40360728       0.81037261      22.29206792        3       0.00000000       0.00513733       0.00327489      -0.04675089
Pt       4.21082128       0.81037249      22.29206789        3       0.00000000      -0.00539651       0.00280132      -0.04679319
Pt       7.01803472       0.81037258      22.29206780        3       0.00000000       0.00073698       0.00376579       0.00132368
Pt       2.80721447       3.24149123      22.29206774        3       0.00000000       0.00024143      -0.00605998      -0.04675244
Pt       5.61442762       3.24149120      22.29206786        3       0.00000000      -0.00181417       0.00128093      -0.04077364
Pt       8.42164156       3.24149131      22.29206806        3       0.00000000      -0.00020593      -0.00218831      -0.04072728
Pt       4.21082090       5.67260998      22.29206740        3       0.00000000       0.00289260      -0.00251664       0.00135271
Pt       7.01803486       5.67261041      22.29206774        3       0.00000000       0.00202618       0.00090899      -0.04076921
Pt       9.82524817       5.67261060      22.29206803        3       0.00000000      -0.00361193      -0.00125801       0.00132333
Pt      -0.00000054       1.62074568      24.58417374        2       0.00000000      -0.01135760       0.00495715       0.03417388
Pt       2.80721436       1.62074546      24.58417392        2       0.00000000       0.00002224      -0.00002326       0.03263944
Pt       5.61442782       1.62074536      24.58417379        2       0.00000000       0.00699439       0.01421349       0.03159356
Pt       1.40360636       4.05186439      24.58417387        2       0.00000000      -0.01581866      -0.00095328       0.03139223
Pt       4.21082089       4.05186396      24.58417387        2       0.00000000       0.01014721       0.00715964       0.03430095
Pt       7.01803504       4.05186408      24.58417404        2       0.00000000       0.00000417      -0.00000714       0.04934981
Pt       2.80721273       6.48298349      24.58417384        2       0.00000000       0.00000934       0.00001197      -0.01372569
Pt       5.61442806       6.48298330      24.58417399        2       0.00000000       0.00886977      -0.01313686       0.03157110
Pt       8.42164222       6.48298344      24.58417375        2       0.00000000       0.00109813      -0.01219462       0.03429596
Pt      -0.00986900      -0.00479703      26.91485805        1       0.00000000       0.00792623       0.00299205      -0.00204278
Pt       2.80712410      -0.04002218      26.91117911        1       0.00000000      -0.00025905      -0.02040608      -0.00996585
Pt       5.62352026      -0.00614935      26.91485645        1       0.00000000      -0.00655496       0.00537090      -0.00204482
Pt       1.36896810       2.45121771      26.91111550        1       0.00000000      -0.01767331       0.01048483      -0.01035069
Pt       4.24552797       2.45105604      26.91116354        1       0.00000000       0.01781743       0.00996052      -0.01005627
Pt       7.01710909       2.43521391      26.92577898        1       0.00000000      -0.00123838      -0.02261370      -0.02762482
Pt       2.80799925       4.87318315      26.91484604        1       0.00000000      -0.00136605      -0.00836575      -0.00208606
Pt       5.61843881       4.86098907      26.92577501        1       0.00000000      -0.01898379       0.01238221      -0.02762764
Pt       8.41855377       4.85939173      26.92577603        1       0.00000000       0.02020573       0.01026449      -0.02761746
O        2.80734145       1.62064605      29.28749929        0       0.50000000       0.00074526      -0.00057552       0.04492006
H        2.80711186       1.62082247      28.29388633        0       0.50000000      -0.00059728       0.00047332      -0.00775846
