38
Lattice="8.421641763931781 0.0 0.0 4.2108208819658905 7.293355709136913 0.0 0.0 0.0 46.87624170604845" Properties=species:S:1:pos:R:3:tags:I:1:initial_magmoms:R:1:forces:R:3 charge=0 spin=0 energy=-194.6889185577091 free_energy=-194.6889185577091 stress="0.009775765240192413 3.812643711853525e-08 4.6790663787987796e-08 3.812643711853525e-08 0.00977576058357954 1.4034590378741996e-07 4.6790663787987796e-08 1.4034590378741996e-07 5.0371643737889826e-05" pbc="T T T"
Pt      -0.00000011      -0.00000005      19.95723442        4       0.00000000      -0.00429986      -0.00317908      -0.00011489
Pt       2.80721395      -0.00000019      19.95723450        4       0.00000000       0.00091944      -0.00231311       0.01102357
Pt       5.61442786      -0.00000007      19.95723452        4       0.00000000       0.00489202      -0.00216713      -0.00012778
Pt       1.40360721       2.43111839      19.95723434        4       0.00000000      -0.00246957       0.00035985       0.01104304
Pt       4.21082082       2.43111837      19.95723444        4       0.00000000       0.00154729       0.00195776       0.01102915
Pt       7.01803481       2.43111844      19.95723433        4       0.00000000      -0.00039342      -0.00009011       0.01477750
Pt       2.80721415       4.86223733      19.95723415        4       0.00000000      -0.00058705       0.00533092      -0.00013997
Pt       5.61442796       4.86223739      19.95723433        4       0.00000000       0.00014484       0.00038959       0.01476453
Pt       8.42164143       4.86223725      19.95723439        4       0.00000000       0.00024734      -0.00029465       0.01474722
Pt       1.40360728       0.81037261      22.29206792        3       0.00000000       0.00414019       0.00260031      -0.04255765
Pt       4.21082128       0.81037249      22.29206789        3       0.00000000      -0.00427897       0.00231563      -0.04261941
Pt       7.01803472       0.81037258      22.29206780        3       0.00000000       0.00118246       0.00248325      -0.00466114
Pt       2.80721447       3.24149123      22.29206774        3       0.00000000       0.00011785      -0.00485041      -0.04268015
Pt       5.61442762       3.24149120      22.29206786        3       0.00000000      -0.00186030       0.00138297      -0.03925336
Pt       8.42164156       3.24149131      22.29206806        3       0.00000000      -0.00028369      -0.00228202      -0.03921195
Pt       4.21082090       5.67260998      22.29206740        3       0.00000000       0.00153435      -0.00228041      -0.00456062
Pt       7.01803486       5.67261041      22.29206774        3       0.00000000       0.00215903       0.00087388      -0.03909291
Pt       9.82524817       5.67261060      22.29206803        3       0.00000000      -0.00269175      -0.00023986      -0.00461760
Pt      -0.00000054       1.62074568      24.58417374        2       0.00000000       0.00254038       0.01338700       0.03081187
Pt       2.80721436       1.62074546      24.58417392        2       0.00000000      -0.00000080      -0.00029165       0.07656147
Pt       5.61442782       1.62074536      24.58417379        2       0.00000000      -0.00799209       0.01949715       0.02724155
Pt       1.40360636       4.05186439      24.58417387        2       0.00000000      -0.01310570      -0.01644213       0.02776383
Pt       4.21082089       4.05186396      24.58417387        2       0.00000000       0.01085188      -0.00866552       0.03137943
Pt       7.01803504       4.05186408      24.58417404        2       0.00000000      -0.00005345       0.00040060       0.06580704
Pt       2.80721273       6.48298349      24.58417384        2       0.00000000       0.00006949      -0.00011911       0.00390761
Pt       5.61442806       6.48298330      24.58417399        2       0.00000000       0.02119287      -0.00303795       0.02825423
Pt       8.42164222       6.48298344      24.58417375        2       0.00000000      -0.01350382      -0.00468962       0.03163050
Pt      -0.00381479       0.00005887      26.91286282        1       0.00000000      -0.02975240      -0.02361357       0.00915778
Pt       2.80667011      -0.04005104      26.92063369        1       0.00000000       0.00305614       0.01208469      -0.03253030
Pt       5.61620898      -0.00334736      26.91279644        1       0.00000000       0.03539540      -0.01417144       0.00944412
Pt       1.36916344       2.45157884      26.92036323        1       0.00000000       0.00916125      -0.00870439      -0.03171696
Pt       4.24575593       2.45074127      26.92035212        1       0.00000000      -0.01204222      -0.00356825      -0.03172428
Pt       7.01551754       2.42674400      26.92178639        1       0.00000000       0.00830851       0.03863387      -0.01650595
Pt       2.80920140       4.86546630      26.91290763        1       0.00000000      -0.00542707       0.03772720       0.00895536
Pt       5.61195892       4.86663153      26.92214138        1       0.00000000       0.02894815      -0.02651157      -0.01802096
Pt       8.42671229       4.86223222      26.92208713        1       0.00000000      -0.03767556      -0.01190192      -0.01774811
O        2.80721214       1.62066056      29.32964607        0       0.50000000      -0.00004676      -0.00079732      -0.02428068
H        2.80722337       1.62083803      28.33577413        0       0.50000000       0.00005541       0.00078647       0.00386462
