38
Lattice="8.421641763931781 0.0 0.0 4.2108208819658905 7.293355709136913 0.0 0.0 0.0 46.87624170604845" Properties=species:S:1:pos:R:3:tags:I:1:initial_magmoms:R:1:forces:R:3 charge=0 spin=0 energy=-194.6902918487247 free_energy=-194.6902918487247 stress="0.009694729000329971 -6.449256062524e-08 6.750335046490363e-08 -6.449256062524e-08 0.009694591164588928 -3.167529527559054e-08 6.750335046490363e-08 -3.167529527559054e-08 -8.114227966871113e-05" pbc="T T T"
Pt      -0.00000011      -0.00000005      19.95723442        4       0.00000000      -0.00438430      -0.00331840      -0.00029847
Pt       2.80721395      -0.00000019      19.95723450        4       0.00000000       0.00086074      -0.00285202       0.01082845
Pt       5.61442786      -0.00000007      19.95723452        4       0.00000000       0.00505630      -0.00215351      -0.00031296
Pt       1.40360721       2.43111839      19.95723434        4       0.00000000      -0.00291386       0.00068200       0.01086074
Pt       4.21082082       2.43111837      19.95723444        4       0.00000000       0.00205375       0.00217420       0.01084492
Pt       7.01803481       2.43111844      19.95723433        4       0.00000000      -0.00032878      -0.00062483       0.01473331
Pt       2.80721415       4.86223733      19.95723415        4       0.00000000      -0.00067574       0.00548040      -0.00028673
Pt       5.61442796       4.86223739      19.95723433        4       0.00000000      -0.00033975       0.00059228       0.01471538
Pt       8.42164143       4.86223725      19.95723439        4       0.00000000       0.00066949       0.00002289       0.01470055
Pt       1.40360728       0.81037261      22.29206792        3       0.00000000       0.00453222       0.00283413      -0.04383969
Pt       4.21082128       0.81037249      22.29206789        3       0.00000000      -0.00470773       0.00249686      -0.04389842
Pt       7.01803472       0.81037258      22.29206780        3       0.00000000       0.00094243       0.00351615      -0.00069662
Pt       2.80721447       3.24149123      22.29206774        3       0.00000000       0.00016360      -0.00531838      -0.04383364
Pt       5.61442762       3.24149120      22.29206786        3       0.00000000      -0.00138883       0.00151322      -0.04138422
Pt       8.42164156       3.24149131      22.29206806        3       0.00000000      -0.00062107      -0.00193420      -0.04132427
Pt       4.21082090       5.67260998      22.29206740        3       0.00000000       0.00256961      -0.00257388      -0.00069315
Pt       7.01803486       5.67261041      22.29206774        3       0.00000000       0.00200658       0.00042409      -0.04138334
Pt       9.82524817       5.67261060      22.29206803        3       0.00000000      -0.00350899      -0.00094229      -0.00070259
Pt      -0.00000054       1.62074568      24.58417374        2       0.00000000      -0.00331687       0.00256784       0.02252398
Pt       2.80721436       1.62074546      24.58417392        2       0.00000000      -0.00000429       0.00001853       0.04169495
Pt       5.61442782       1.62074536      24.58417379        2       0.00000000      -0.00090483       0.01130845       0.01926829
Pt       1.40360636       4.05186439      24.58417387        2       0.00000000      -0.00936530      -0.00646693       0.01920819
Pt       4.21082089       4.05186396      24.58417387        2       0.00000000       0.00404071       0.00156938       0.02240334
Pt       7.01803504       4.05186408      24.58417404        2       0.00000000      -0.00000479       0.00001625       0.03885005
Pt       2.80721273       6.48298349      24.58417384        2       0.00000000       0.00001384       0.00000912      -0.01024584
Pt       5.61442806       6.48298330      24.58417399        2       0.00000000       0.01018235      -0.00490663       0.01905244
Pt       8.42164222       6.48298344      24.58417375        2       0.00000000      -0.00062131      -0.00413975       0.02233328
Pt      -0.00820239      -0.00402606      26.91460865        1       0.00000000      -0.00055752      -0.00084985       0.00224550
Pt       2.80707095      -0.03993429      26.91254133        1       0.00000000       0.00026741      -0.00050410      -0.00397007
Pt       5.62201463      -0.00508991      26.91460946        1       0.00000000       0.00099567      -0.00007020       0.00224181
Pt       1.36911070       2.45119302      26.91257419        1       0.00000000      -0.00046456      -0.00004045      -0.00371036
Pt       4.24545895       2.45095588      26.91256296        1       0.00000000       0.00021688       0.00045259      -0.00377675
Pt       7.01695544       2.43104981      26.92008097        1       0.00000000      -0.00004506       0.00557529      -0.00408107
Pt       2.80783368       4.87135548      26.91459226        1       0.00000000      -0.00044376       0.00090245       0.00246420
Pt       5.61491276       4.86320282      26.92008409        1       0.00000000       0.00485279      -0.00274996      -0.00385792
Pt       8.42223903       4.86133390      26.92008289        1       0.00000000      -0.00479134      -0.00285822      -0.00385391
O        2.80718390       1.62087408      29.30750558        0       0.50000000      -0.00017009       0.00071757       0.01977026
H        2.80723839       1.62063832      28.31416252        0       0.50000000       0.00013431      -0.00056996      -0.01658965
