38
Lattice="8.421641763931781 0.0 0.0 4.2108208819658905 7.293355709136913 0.0 0.0 0.0 46.87624170604845" Properties=species:S:1:pos:R:3:tags:I:1:initial_magmoms:R:1:forces:R:3 charge=0 spin=0 energy=-194.69025751644932 free_energy=-194.69025751644932 stress="0.009662958793342113 -4.246601736923594e-09 1.7571591115483898e-07 -4.246601736923594e-09 0.009663199074566364 3.946032620660844e-07 1.7571591115483898e-07 3.946032620660844e-07 -0.00012531709217000753" pbc="T T T"
Pt      -0.00000011      -0.00000005      19.95723442        4       0.00000000      -0.00436466      -0.00337015      -0.00028391
Pt       2.80721395      -0.00000019      19.95723450        4       0.00000000       0.00079433      -0.00292828       0.01079579
Pt       5.61442786      -0.00000007      19.95723452        4       0.00000000       0.00509044      -0.00210815      -0.00030314
Pt       1.40360721       2.43111839      19.95723434        4       0.00000000      -0.00294481       0.00077656       0.01082669
Pt       4.21082082       2.43111837      19.95723444        4       0.00000000       0.00215267       0.00215536       0.01081015
Pt       7.01803481       2.43111844      19.95723433        4       0.00000000      -0.00036910      -0.00069358       0.01468454
Pt       2.80721415       4.86223733      19.95723415        4       0.00000000      -0.00073102       0.00547975      -0.00029606
Pt       5.61442796       4.86223739      19.95723433        4       0.00000000      -0.00038153       0.00065991       0.01466431
Pt       8.42164143       4.86223725      19.95723439        4       0.00000000       0.00075250       0.00002190       0.01465070
Pt       1.40360728       0.81037261      22.29206792        3       0.00000000       0.00452790       0.00278526      -0.04372914
Pt       4.21082128       0.81037249      22.29206789        3       0.00000000      -0.00466709       0.00250695      -0.04379191
Pt       7.01803472       0.81037258      22.29206780        3       0.00000000       0.00094293       0.00354752      -0.00035215
Pt       2.80721447       3.24149123      22.29206774        3       0.00000000       0.00012919      -0.00528885      -0.04372703
Pt       5.61442762       3.24149120      22.29206786        3       0.00000000      -0.00127635       0.00149474      -0.04153937
Pt       8.42164156       3.24149131      22.29206806        3       0.00000000      -0.00066178      -0.00183141      -0.04147225
Pt       4.21082090       5.67260998      22.29206740        3       0.00000000       0.00259643      -0.00259669      -0.00034160
Pt       7.01803486       5.67261041      22.29206774        3       0.00000000       0.00194079       0.00033541      -0.04153607
Pt       9.82524817       5.67261060      22.29206803        3       0.00000000      -0.00353596      -0.00096045      -0.00034739
Pt      -0.00000054       1.62074568      24.58417374        2       0.00000000      -0.00274809       0.00046594       0.01415410
Pt       2.80721436       1.62074546      24.58417392        2       0.00000000      -0.00001521       0.00004400       0.03613897
Pt       5.61442782       1.62074536      24.58417379        2       0.00000000      -0.00122797       0.00949726       0.01382000
Pt       1.40360636       4.05186439      24.58417387        2       0.00000000      -0.00756399      -0.00594991       0.01382786
Pt       4.21082089       4.05186396      24.58417387        2       0.00000000       0.00184914       0.00206689       0.01401856
Pt       7.01803504       4.05186408      24.58417404        2       0.00000000      -0.00000633      -0.00007098       0.02356478
Pt       2.80721273       6.48298349      24.58417384        2       0.00000000       0.00001818       0.00000595      -0.01666680
Pt       5.61442806       6.48298330      24.58417399        2       0.00000000       0.00891648      -0.00354563       0.01371812
Pt       8.42164222       6.48298344      24.58417375        2       0.00000000       0.00079464      -0.00243476       0.01406396
Pt      -0.00897621      -0.00409007      26.91386192        1       0.00000000       0.00496110      -0.00072541       0.00596646
Pt       2.80763945      -0.04006797      26.91114319        1       0.00000000      -0.00418760       0.00414396       0.00451969
Pt       5.62247106      -0.00571949      26.91386536        1       0.00000000      -0.00188655       0.00470432       0.00595005
Pt       1.36864992       2.45078303      26.91114820        1       0.00000000       0.00565626       0.00159322       0.00399889
Pt       4.24535245       2.45152295      26.91112698        1       0.00000000      -0.00151114      -0.00539230       0.00382329
Pt       7.01768937       2.43218734      26.91796813        1       0.00000000      -0.00573930      -0.00466237       0.00750952
Pt       2.80815723       4.87205170      26.91385741        1       0.00000000      -0.00311827      -0.00400862       0.00610371
Pt       5.61551919       4.86202848      26.91790608        1       0.00000000      -0.00114257       0.00726972       0.00822069
Pt       8.42089032       4.86143588      26.91790807        1       0.00000000       0.00704100      -0.00289414       0.00819898
O        2.80715076       1.62063610      29.30709298        0       0.50000000      -0.00037462      -0.00055167      -0.00623069
H        2.80727658       1.62082501      28.31311477        0       0.50000000       0.00028984       0.00045841       0.00658760
