38
Lattice="8.421641763931781 0.0 0.0 4.2108208819658905 7.293355709136913 0.0 0.0 0.0 46.87624170604845" Properties=species:S:1:pos:R:3:tags:I:1:initial_magmoms:R:1:forces:R:3 charge=0 spin=0 energy=-194.69025751644932 free_energy=-194.69025751644932 stress="0.009662974625825882 -3.871468479133e-09 1.7549579922615521e-07 -3.871468479133e-09 0.00966322235763073 4.02289572321024e-07 1.7549579922615521e-07 4.02289572321024e-07 -0.00012528832303360105" pbc="T T T"
Pt      -0.00000011      -0.00000005      19.95723442        4       0.00000000      -0.00436480      -0.00337028      -0.00028359
Pt       2.80721395      -0.00000019      19.95723450        4       0.00000000       0.00079452      -0.00292853       0.01079586
Pt       5.61442786      -0.00000007      19.95723452        4       0.00000000       0.00509046      -0.00210840      -0.00030316
Pt       1.40360721       2.43111839      19.95723434        4       0.00000000      -0.00294485       0.00077654       0.01082658
Pt       4.21082082       2.43111837      19.95723444        4       0.00000000       0.00215249       0.00215550       0.01081004
Pt       7.01803481       2.43111844      19.95723433        4       0.00000000      -0.00036905      -0.00069354       0.01468437
Pt       2.80721415       4.86223733      19.95723415        4       0.00000000      -0.00073086       0.00547971      -0.00029606
Pt       5.61442796       4.86223739      19.95723433        4       0.00000000      -0.00038151       0.00066008       0.01466434
Pt       8.42164143       4.86223725      19.95723439        4       0.00000000       0.00075244       0.00002209       0.01465062
Pt       1.40360728       0.81037261      22.29206792        3       0.00000000       0.00452787       0.00278531      -0.04372852
Pt       4.21082128       0.81037249      22.29206789        3       0.00000000      -0.00466693       0.00250701      -0.04379127
Pt       7.01803472       0.81037258      22.29206780        3       0.00000000       0.00094291       0.00354799      -0.00035346
Pt       2.80721447       3.24149123      22.29206774        3       0.00000000       0.00012935      -0.00528834      -0.04372697
Pt       5.61442762       3.24149120      22.29206786        3       0.00000000      -0.00127654       0.00149469      -0.04153980
Pt       8.42164156       3.24149131      22.29206806        3       0.00000000      -0.00066186      -0.00183132      -0.04147210
Pt       4.21082090       5.67260998      22.29206740        3       0.00000000       0.00259635      -0.00259669      -0.00034171
Pt       7.01803486       5.67261041      22.29206774        3       0.00000000       0.00194070       0.00033558      -0.04153492
Pt       9.82524817       5.67261060      22.29206803        3       0.00000000      -0.00353583      -0.00096036      -0.00034799
Pt      -0.00000054       1.62074568      24.58417374        2       0.00000000      -0.00274905       0.00046515       0.01415269
Pt       2.80721436       1.62074546      24.58417392        2       0.00000000      -0.00001529       0.00004188       0.03614321
Pt       5.61442782       1.62074536      24.58417379        2       0.00000000      -0.00122660       0.00949617       0.01381825
Pt       1.40360636       4.05186439      24.58417387        2       0.00000000      -0.00756152      -0.00594842       0.01382891
Pt       4.21082089       4.05186396      24.58417387        2       0.00000000       0.00184698       0.00206897       0.01402048
Pt       7.01803504       4.05186408      24.58417404        2       0.00000000      -0.00000602      -0.00007070       0.02356633
Pt       2.80721273       6.48298349      24.58417384        2       0.00000000       0.00001813       0.00000393      -0.01665938
Pt       5.61442806       6.48298330      24.58417399        2       0.00000000       0.00891905      -0.00354489       0.01372000
Pt       8.42164222       6.48298344      24.58417375        2       0.00000000       0.00079084      -0.00243365       0.01406807
Pt      -0.00897554      -0.00408987      26.91386256        1       0.00000000       0.00495442      -0.00072711       0.00596637
Pt       2.80763907      -0.04006720      26.91114422        1       0.00000000      -0.00418499       0.00414984       0.00452181
Pt       5.62247058      -0.00571932      26.91386571        1       0.00000000      -0.00187907       0.00470289       0.00594971
Pt       1.36865033       2.45078245      26.91114862        1       0.00000000       0.00566296       0.00159108       0.00400232
Pt       4.24535210       2.45152263      26.91112734        1       0.00000000      -0.00151540      -0.00539075       0.00382342
Pt       7.01768924       2.43218724      26.91796924        1       0.00000000      -0.00573944      -0.00466309       0.00750838
Pt       2.80815743       4.87205123      26.91385826        1       0.00000000      -0.00311728      -0.00400681       0.00609409
Pt       5.61551908       4.86202883      26.91790560        1       0.00000000      -0.00114277       0.00726872       0.00822036
Pt       8.42089038       4.86143588      26.91790805        1       0.00000000       0.00703598      -0.00289346       0.00819866
O        2.80715006       1.62063315      29.30710264        0       0.50000000      -0.00037850      -0.00057004      -0.00624511
H        2.80727723       1.62082772      28.31312424        0       0.50000000       0.00029296       0.00047330       0.00658887
