38
Lattice="8.421641763931781 0.0 0.0 4.2108208819658905 7.293355709136913 0.0 0.0 0.0 46.87624170604845" Properties=species:S:1:pos:R:3:tags:I:1:initial_magmoms:R:1:forces:R:3 charge=0 spin=0 energy=-194.68892046505772 free_energy=-194.68892046505772 stress="0.009775767102837563 3.685972771449997e-08 4.6901941885835186e-08 3.685972771449997e-08 0.009775756858289242 1.3892108086110966e-07 4.6901941885835186e-08 1.3892108086110966e-07 5.034619971411303e-05" pbc="T T T"
Pt      -0.00000011      -0.00000005      19.95723442        4       0.00000000      -0.00429963      -0.00317917      -0.00011484
Pt       2.80721395      -0.00000019      19.95723450        4       0.00000000       0.00091958      -0.00231293       0.01102351
Pt       5.61442786      -0.00000007      19.95723452        4       0.00000000       0.00489185      -0.00216712      -0.00012780
Pt       1.40360721       2.43111839      19.95723434        4       0.00000000      -0.00246959       0.00035983       0.01104306
Pt       4.21082082       2.43111837      19.95723444        4       0.00000000       0.00154706       0.00195786       0.01102919
Pt       7.01803481       2.43111844      19.95723433        4       0.00000000      -0.00039329      -0.00009000       0.01477767
Pt       2.80721415       4.86223733      19.95723415        4       0.00000000      -0.00058700       0.00533096      -0.00013986
Pt       5.61442796       4.86223739      19.95723433        4       0.00000000       0.00014490       0.00038958       0.01476459
Pt       8.42164143       4.86223725      19.95723439        4       0.00000000       0.00024711      -0.00029481       0.01474727
Pt       1.40360728       0.81037261      22.29206792        3       0.00000000       0.00413995       0.00260044      -0.04255714
Pt       4.21082128       0.81037249      22.29206789        3       0.00000000      -0.00427879       0.00231541      -0.04261989
Pt       7.01803472       0.81037258      22.29206780        3       0.00000000       0.00118284       0.00248281      -0.00466133
Pt       2.80721447       3.24149123      22.29206774        3       0.00000000       0.00011817      -0.00485042      -0.04267974
Pt       5.61442762       3.24149120      22.29206786        3       0.00000000      -0.00186010       0.00138323      -0.03925390
Pt       8.42164156       3.24149131      22.29206806        3       0.00000000      -0.00028391      -0.00228223      -0.03921105
Pt       4.21082090       5.67260998      22.29206740        3       0.00000000       0.00153420      -0.00227998      -0.00456004
Pt       7.01803486       5.67261041      22.29206774        3       0.00000000       0.00215924       0.00087357      -0.03909252
Pt       9.82524817       5.67261060      22.29206803        3       0.00000000      -0.00269202      -0.00023974      -0.00461924
Pt      -0.00000054       1.62074568      24.58417374        2       0.00000000       0.00254229       0.01338937       0.03081367
Pt       2.80721436       1.62074546      24.58417392        2       0.00000000      -0.00000206      -0.00029090       0.07656656
Pt       5.61442782       1.62074536      24.58417379        2       0.00000000      -0.00799280       0.01949714       0.02724137
Pt       1.40360636       4.05186439      24.58417387        2       0.00000000      -0.01310776      -0.01644601       0.02775984
Pt       4.21082089       4.05186396      24.58417387        2       0.00000000       0.01085419      -0.00866670       0.03137503
Pt       7.01803504       4.05186408      24.58417404        2       0.00000000      -0.00005309       0.00040014       0.06581244
Pt       2.80721273       6.48298349      24.58417384        2       0.00000000       0.00006995      -0.00011653       0.00390930
Pt       5.61442806       6.48298330      24.58417399        2       0.00000000       0.02119226      -0.00303737       0.02824817
Pt       8.42164222       6.48298344      24.58417375        2       0.00000000      -0.01350320      -0.00469008       0.03162780
Pt      -0.00381328       0.00005981      26.91286232        1       0.00000000      -0.02976428      -0.02361630       0.00915882
Pt       2.80666942      -0.04005280      26.92063284        1       0.00000000       0.00306385       0.01209651      -0.03252745
Pt       5.61620801      -0.00334706      26.91279657        1       0.00000000       0.03540049      -0.01417103       0.00944264
Pt       1.36916317       2.45157980      26.92036419        1       0.00000000       0.00916144      -0.00871084      -0.03172462
Pt       4.24575640       2.45074191      26.92035377        1       0.00000000      -0.01204604      -0.00357459      -0.03172318
Pt       7.01551710       2.42674241      26.92178682        1       0.00000000       0.00831242       0.03864428      -0.01650771
Pt       2.80920145       4.86546474      26.91290735        1       0.00000000      -0.00542597       0.03773758       0.00896635
Pt       5.61195809       4.86663326      26.92214227        1       0.00000000       0.02895701      -0.02652680      -0.01802029
Pt       8.42671353       4.86223216      26.92208752        1       0.00000000      -0.03768918      -0.01190352      -0.01774813
O        2.80721205       1.62066086      29.32964744        0       0.50000000      -0.00004790      -0.00079494      -0.02421266
H        2.80722347       1.62083793      28.33577750        0       0.50000000       0.00005779       0.00078338       0.00379401
