38
Lattice="8.421641763931781 0.0 0.0 4.2108208819658905 7.293355709136913 0.0 0.0 0.0 46.87624170604845" Properties=species:S:1:pos:R:3:tags:I:1:initial_magmoms:R:1:forces:R:3 charge=0 spin=0 energy=-194.6889185577091 free_energy=-194.6889185577091 stress="0.009775777347385883 3.8848163796956214e-08 4.576019918545171e-08 3.8848163796956214e-08 0.009775769896805286 1.4041863494185236e-07 4.576019918545171e-08 1.4041863494185236e-07 5.0348342483630404e-05" pbc="T T T"
Pt      -0.00000011      -0.00000005      19.95723442        4       0.00000000      -0.00429976      -0.00317900      -0.00011459
Pt       2.80721395      -0.00000019      19.95723450        4       0.00000000       0.00091952      -0.00231307       0.01102387
Pt       5.61442786      -0.00000007      19.95723452        4       0.00000000       0.00489171      -0.00216688      -0.00012761
Pt       1.40360721       2.43111839      19.95723434        4       0.00000000      -0.00246944       0.00036006       0.01104310
Pt       4.21082082       2.43111837      19.95723444        4       0.00000000       0.00154710       0.00195766       0.01102923
Pt       7.01803481       2.43111844      19.95723433        4       0.00000000      -0.00039342      -0.00009018       0.01477746
Pt       2.80721415       4.86223733      19.95723415        4       0.00000000      -0.00058697       0.00533082      -0.00013986
Pt       5.61442796       4.86223739      19.95723433        4       0.00000000       0.00014488       0.00038959       0.01476444
Pt       8.42164143       4.86223725      19.95723439        4       0.00000000       0.00024726      -0.00029474       0.01474729
Pt       1.40360728       0.81037261      22.29206792        3       0.00000000       0.00413970       0.00260039      -0.04255571
Pt       4.21082128       0.81037249      22.29206789        3       0.00000000      -0.00427871       0.00231544      -0.04261950
Pt       7.01803472       0.81037258      22.29206780        3       0.00000000       0.00118261       0.00248294      -0.00466179
Pt       2.80721447       3.24149123      22.29206774        3       0.00000000       0.00011798      -0.00485012      -0.04267906
Pt       5.61442762       3.24149120      22.29206786        3       0.00000000      -0.00186030       0.00138291      -0.03925408
Pt       8.42164156       3.24149131      22.29206806        3       0.00000000      -0.00028380      -0.00228189      -0.03921156
Pt       4.21082090       5.67260998      22.29206740        3       0.00000000       0.00153387      -0.00228053      -0.00456143
Pt       7.01803486       5.67261041      22.29206774        3       0.00000000       0.00215921       0.00087385      -0.03909312
Pt       9.82524817       5.67261060      22.29206803        3       0.00000000      -0.00269137      -0.00024009      -0.00461863
Pt      -0.00000054       1.62074568      24.58417374        2       0.00000000       0.00254422       0.01338726       0.03081148
Pt       2.80721436       1.62074546      24.58417392        2       0.00000000      -0.00000249      -0.00029249       0.07656435
Pt       5.61442782       1.62074536      24.58417379        2       0.00000000      -0.00799352       0.01949543       0.02723841
Pt       1.40360636       4.05186439      24.58417387        2       0.00000000      -0.01310571      -0.01644407       0.02776707
Pt       4.21082089       4.05186396      24.58417387        2       0.00000000       0.01084893      -0.00866663       0.03137688
Pt       7.01803504       4.05186408      24.58417404        2       0.00000000      -0.00005108       0.00040161       0.06580199
Pt       2.80721273       6.48298349      24.58417384        2       0.00000000       0.00006945      -0.00011911       0.00390850
Pt       5.61442806       6.48298330      24.58417399        2       0.00000000       0.02119488      -0.00303461       0.02825302
Pt       8.42164222       6.48298344      24.58417375        2       0.00000000      -0.01350582      -0.00468854       0.03163348
Pt      -0.00381440       0.00005889      26.91286295        1       0.00000000      -0.02975684      -0.02361283       0.00915880
Pt       2.80667004      -0.04005026      26.92063433        1       0.00000000       0.00305813       0.01208411      -0.03253526
Pt       5.61620886      -0.00334726      26.91279682        1       0.00000000       0.03539488      -0.01417282       0.00944421
Pt       1.36916391       2.45157849      26.92036394        1       0.00000000       0.00915998      -0.00870166      -0.03172389
Pt       4.24575521       2.45074083      26.92035286        1       0.00000000      -0.01204195      -0.00356853      -0.03172125
Pt       7.01551767       2.42674391      26.92178615        1       0.00000000       0.00830964       0.03863308      -0.01649764
Pt       2.80920128       4.86546621      26.91290803        1       0.00000000      -0.00542761       0.03772601       0.00895517
Pt       5.61195889       4.86663156      26.92214096        1       0.00000000       0.02894805      -0.02651143      -0.01801202
Pt       8.42671239       4.86223228      26.92208679        1       0.00000000      -0.03767328      -0.01190195      -0.01774910
O        2.80721216       1.62066052      29.32965332        0       0.50000000      -0.00004769      -0.00079825      -0.02421766
H        2.80722334       1.62083809      28.33578288        0       0.50000000       0.00005761       0.00078811       0.00379528
