38
Lattice="8.421641763931781 0.0 0.0 4.2108208819658905 7.293355709136913 0.0 0.0 0.0 46.87624170604845" Properties=species:S:1:pos:R:3:tags:I:1:initial_magmoms:R:1:forces:R:3 charge=0 spin=0 energy=-194.6902918487247 free_energy=-194.6902918487247 stress="0.00969473272562027 -6.979919930927281e-08 9.064406469860842e-08 -6.979919930927281e-08 0.009694589301943779 -4.21228740776769e-08 9.064406469860842e-08 -4.21228740776769e-08 -8.113778312690556e-05" pbc="T T T"
Pt      -0.00000011      -0.00000005      19.95723442        4       0.00000000      -0.00438446      -0.00331821      -0.00029794
Pt       2.80721395      -0.00000019      19.95723450        4       0.00000000       0.00086073      -0.00285207       0.01082845
Pt       5.61442786      -0.00000007      19.95723452        4       0.00000000       0.00505614      -0.00215352      -0.00031368
Pt       1.40360721       2.43111839      19.95723434        4       0.00000000      -0.00291391       0.00068214       0.01086074
Pt       4.21082082       2.43111837      19.95723444        4       0.00000000       0.00205388       0.00217411       0.01084488
Pt       7.01803481       2.43111844      19.95723433        4       0.00000000      -0.00032874      -0.00062496       0.01473329
Pt       2.80721415       4.86223733      19.95723415        4       0.00000000      -0.00067589       0.00548041      -0.00028645
Pt       5.61442796       4.86223739      19.95723433        4       0.00000000      -0.00033978       0.00059222       0.01471535
Pt       8.42164143       4.86223725      19.95723439        4       0.00000000       0.00066962       0.00002306       0.01470057
Pt       1.40360728       0.81037261      22.29206792        3       0.00000000       0.00453211       0.00283387      -0.04383877
Pt       4.21082128       0.81037249      22.29206789        3       0.00000000      -0.00470757       0.00249680      -0.04389897
Pt       7.01803472       0.81037258      22.29206780        3       0.00000000       0.00094199       0.00351592      -0.00069681
Pt       2.80721447       3.24149123      22.29206774        3       0.00000000       0.00016365      -0.00531854      -0.04383346
Pt       5.61442762       3.24149120      22.29206786        3       0.00000000      -0.00138887       0.00151305      -0.04138451
Pt       8.42164156       3.24149131      22.29206806        3       0.00000000      -0.00062125      -0.00193426      -0.04132346
Pt       4.21082090       5.67260998      22.29206740        3       0.00000000       0.00256940      -0.00257416      -0.00069379
Pt       7.01803486       5.67261041      22.29206774        3       0.00000000       0.00200641       0.00042397      -0.04138378
Pt       9.82524817       5.67261060      22.29206803        3       0.00000000      -0.00350933      -0.00094223      -0.00070239
Pt      -0.00000054       1.62074568      24.58417374        2       0.00000000      -0.00331260       0.00257041       0.02253080
Pt       2.80721436       1.62074546      24.58417392        2       0.00000000      -0.00000647       0.00001824       0.04169472
Pt       5.61442782       1.62074536      24.58417379        2       0.00000000      -0.00090144       0.01130667       0.01926483
Pt       1.40360636       4.05186439      24.58417387        2       0.00000000      -0.00936586      -0.00647147       0.01921455
Pt       4.21082089       4.05186396      24.58417387        2       0.00000000       0.00404012       0.00157413       0.02239697
Pt       7.01803504       4.05186408      24.58417404        2       0.00000000      -0.00000489       0.00001647       0.03884972
Pt       2.80721273       6.48298349      24.58417384        2       0.00000000       0.00001461       0.00000897      -0.01024556
Pt       5.61442806       6.48298330      24.58417399        2       0.00000000       0.01018071      -0.00490720       0.01905051
Pt       8.42164222       6.48298344      24.58417375        2       0.00000000      -0.00062086      -0.00413996       0.02233298
Pt      -0.00820261      -0.00402602      26.91460859        1       0.00000000      -0.00055654      -0.00084970       0.00224484
Pt       2.80707104      -0.03993456      26.91254102        1       0.00000000       0.00026622      -0.00050788      -0.00397762
Pt       5.62201457      -0.00509013      26.91460923        1       0.00000000       0.00099497      -0.00007009       0.00224170
Pt       1.36911157       2.45119261      26.91257713        1       0.00000000      -0.00046031      -0.00004389      -0.00369694
Pt       4.24545941       2.45095644      26.91256206        1       0.00000000       0.00021750       0.00045260      -0.00377948
Pt       7.01695569       2.43104989      26.92008081        1       0.00000000      -0.00004484       0.00557396      -0.00408180
Pt       2.80783360       4.87135556      26.91459235        1       0.00000000      -0.00044382       0.00090365       0.00246452
Pt       5.61491297       4.86320272      26.92008368        1       0.00000000       0.00485424      -0.00274594      -0.00385786
Pt       8.42223897       4.86133369      26.92008263        1       0.00000000      -0.00478973      -0.00285886      -0.00385427
O        2.80717545       1.62087772      29.30750643        0       0.50000000      -0.00021995       0.00073675       0.01976670
H        2.80724545       1.62063562      28.31416467        0       0.50000000       0.00017461      -0.00058430      -0.01658876
