38
Lattice="8.421641763931781 0.0 0.0 4.2108208819658905 7.293355709136913 0.0 0.0 0.0 46.87624170604845" Properties=species:S:1:pos:R:3:tags:I:1:initial_magmoms:R:1:forces:R:3 charge=0 spin=0 energy=-194.68953081662022 free_energy=-194.68953081662022 stress="0.009698979556560516 4.496537187037575e-08 -3.1542384704152937e-07 4.496537187037575e-08 0.009699122980237007 3.4359612754997215e-07 -3.1542384704152937e-07 3.4359612754997215e-07 -5.136595427757129e-05" pbc="T T T"
Pt      -0.00000011      -0.00000005      19.95723442        4       0.00000000      -0.00437010      -0.00336300      -0.00048178
Pt       2.80721395      -0.00000019      19.95723450        4       0.00000000       0.00091658      -0.00339415       0.01069344
Pt       5.61442786      -0.00000007      19.95723452        4       0.00000000       0.00509028      -0.00212565      -0.00047693
Pt       1.40360721       2.43111839      19.95723434        4       0.00000000      -0.00341183       0.00090251       0.01072472
Pt       4.21082082       2.43111837      19.95723444        4       0.00000000       0.00249400       0.00249841       0.01071305
Pt       7.01803481       2.43111844      19.95723433        4       0.00000000      -0.00041649      -0.00067498       0.01486595
Pt       2.80721415       4.86223733      19.95723415        4       0.00000000      -0.00071666       0.00548675      -0.00048359
Pt       5.61442796       4.86223739      19.95723433        4       0.00000000      -0.00034111       0.00069565       0.01484419
Pt       8.42164143       4.86223725      19.95723439        4       0.00000000       0.00075825      -0.00002885       0.01483013
Pt       1.40360728       0.81037261      22.29206792        3       0.00000000       0.00513937       0.00327576      -0.04675650
Pt       4.21082128       0.81037249      22.29206789        3       0.00000000      -0.00539875       0.00280204      -0.04679969
Pt       7.01803472       0.81037258      22.29206780        3       0.00000000       0.00073681       0.00376650       0.00133076
Pt       2.80721447       3.24149123      22.29206774        3       0.00000000       0.00024194      -0.00606283      -0.04675880
Pt       5.61442762       3.24149120      22.29206786        3       0.00000000      -0.00181554       0.00128091      -0.04077373
Pt       8.42164156       3.24149131      22.29206806        3       0.00000000      -0.00020516      -0.00218911      -0.04072681
Pt       4.21082090       5.67260998      22.29206740        3       0.00000000       0.00289378      -0.00251729       0.00135819
Pt       7.01803486       5.67261041      22.29206774        3       0.00000000       0.00202619       0.00091010      -0.04077011
Pt       9.82524817       5.67261060      22.29206803        3       0.00000000      -0.00361296      -0.00125906       0.00133057
Pt      -0.00000054       1.62074568      24.58417374        2       0.00000000      -0.01137650       0.00495583       0.03417524
Pt       2.80721436       1.62074546      24.58417392        2       0.00000000       0.00002207      -0.00002239       0.03263400
Pt       5.61442782       1.62074536      24.58417379        2       0.00000000       0.00701566       0.01421161       0.03158679
Pt       1.40360636       4.05186439      24.58417387        2       0.00000000      -0.01582952      -0.00093796       0.03139125
Pt       4.21082089       4.05186396      24.58417387        2       0.00000000       0.01015763       0.00718046       0.03429175
Pt       7.01803504       4.05186408      24.58417404        2       0.00000000       0.00000375      -0.00000702       0.04937637
Pt       2.80721273       6.48298349      24.58417384        2       0.00000000       0.00000998       0.00001390      -0.01373689
Pt       5.61442806       6.48298330      24.58417399        2       0.00000000       0.00885667      -0.01315481       0.03156776
Pt       8.42164222       6.48298344      24.58417375        2       0.00000000       0.00111047      -0.01221158       0.03429229
Pt      -0.00987124      -0.00479812      26.91485783        1       0.00000000       0.00794740       0.00299817      -0.00204143
Pt       2.80712386      -0.04003183      26.91116979        1       0.00000000      -0.00026410      -0.02035217      -0.00992949
Pt       5.62352201      -0.00615048      26.91485588        1       0.00000000      -0.00657018       0.00537839      -0.00204245
Pt       1.36896028       2.45122193      26.91110786        1       0.00000000      -0.01761257       0.01045190      -0.01029957
Pt       4.24553660       2.45106113      26.91115365        1       0.00000000       0.01776650       0.00993415      -0.01002652
Pt       7.01710898       2.43521645      26.92578804        1       0.00000000      -0.00123868      -0.02262948      -0.02765889
Pt       2.80799915       4.87318538      26.91484511        1       0.00000000      -0.00136379      -0.00837999      -0.00207612
Pt       5.61844114       4.86098751      26.92578430        1       0.00000000      -0.01899734       0.01239360      -0.02766383
Pt       8.41855160       4.85939040      26.92578426        1       0.00000000       0.02021696       0.01027361      -0.02765402
O        2.80733529       1.62064794      29.28747441        0       0.50000000       0.00070052      -0.00055897       0.04484780
H        2.80711756       1.62082130      28.29385990        0       0.50000000      -0.00056353       0.00045880      -0.00769722
