38
Lattice="8.421641763931781 0.0 0.0 4.2108208819658905 7.293355709136913 0.0 0.0 0.0 46.87624170604845" Properties=species:S:1:pos:R:3:tags:I:1:initial_magmoms:R:1:forces:R:3 charge=0 spin=0 energy=-194.68892046505772 free_energy=-194.68892046505772 stress="0.00977577455341816 3.8708240168716657e-08 4.610374659819172e-08 3.8708240168716657e-08 0.009775765240192413 1.3990288039167353e-07 4.610374659819172e-08 1.3990288039167353e-07 5.03446972288657e-05" pbc="T T T"
Pt      -0.00000011      -0.00000005      19.95723442        4       0.00000000      -0.00429969      -0.00317894      -0.00011472
Pt       2.80721395      -0.00000019      19.95723450        4       0.00000000       0.00091943      -0.00231294       0.01102353
Pt       5.61442786      -0.00000007      19.95723452        4       0.00000000       0.00489164      -0.00216695      -0.00012771
Pt       1.40360721       2.43111839      19.95723434        4       0.00000000      -0.00246945       0.00035997       0.01104301
Pt       4.21082082       2.43111837      19.95723444        4       0.00000000       0.00154712       0.00195767       0.01102921
Pt       7.01803481       2.43111844      19.95723433        4       0.00000000      -0.00039331      -0.00009020       0.01477746
Pt       2.80721415       4.86223733      19.95723415        4       0.00000000      -0.00058705       0.00533067      -0.00013974
Pt       5.61442796       4.86223739      19.95723433        4       0.00000000       0.00014480       0.00038951       0.01476434
Pt       8.42164143       4.86223725      19.95723439        4       0.00000000       0.00024733      -0.00029471       0.01474727
Pt       1.40360728       0.81037261      22.29206792        3       0.00000000       0.00413968       0.00260039      -0.04255598
Pt       4.21082128       0.81037249      22.29206789        3       0.00000000      -0.00427869       0.00231542      -0.04261976
Pt       7.01803472       0.81037258      22.29206780        3       0.00000000       0.00118250       0.00248306      -0.00466173
Pt       2.80721447       3.24149123      22.29206774        3       0.00000000       0.00011815      -0.00484998      -0.04267931
Pt       5.61442762       3.24149120      22.29206786        3       0.00000000      -0.00186015       0.00138304      -0.03925403
Pt       8.42164156       3.24149131      22.29206806        3       0.00000000      -0.00028375      -0.00228197      -0.03921146
Pt       4.21082090       5.67260998      22.29206740        3       0.00000000       0.00153420      -0.00228029      -0.00456084
Pt       7.01803486       5.67261041      22.29206774        3       0.00000000       0.00215919       0.00087385      -0.03909337
Pt       9.82524817       5.67261060      22.29206803        3       0.00000000      -0.00269162      -0.00023973      -0.00461817
Pt      -0.00000054       1.62074568      24.58417374        2       0.00000000       0.00254402       0.01338735       0.03081137
Pt       2.80721436       1.62074546      24.58417392        2       0.00000000      -0.00000256      -0.00029059       0.07656220
Pt       5.61442782       1.62074536      24.58417379        2       0.00000000      -0.00799341       0.01949557       0.02723845
Pt       1.40360636       4.05186439      24.58417387        2       0.00000000      -0.01310557      -0.01644417       0.02776697
Pt       4.21082089       4.05186396      24.58417387        2       0.00000000       0.01084871      -0.00866673       0.03137700
Pt       7.01803504       4.05186408      24.58417404        2       0.00000000      -0.00005105       0.00040142       0.06580184
Pt       2.80721273       6.48298349      24.58417384        2       0.00000000       0.00006948      -0.00011920       0.00390839
Pt       5.61442806       6.48298330      24.58417399        2       0.00000000       0.02119259      -0.00303594       0.02824944
Pt       8.42164222       6.48298344      24.58417375        2       0.00000000      -0.01350330      -0.00468984       0.03162966
Pt      -0.00381462       0.00005882      26.91286291        1       0.00000000      -0.02975772      -0.02361260       0.00915865
Pt       2.80667013      -0.04005012      26.92063422        1       0.00000000       0.00305792       0.01208543      -0.03252555
Pt       5.61620891      -0.00334736      26.91279686        1       0.00000000       0.03539545      -0.01417281       0.00944455
Pt       1.36916404       2.45157846      26.92036397        1       0.00000000       0.00916000      -0.00870120      -0.03172345
Pt       4.24575535       2.45074082      26.92035292        1       0.00000000      -0.01204181      -0.00356808      -0.03172074
Pt       7.01551769       2.42674400      26.92178614        1       0.00000000       0.00830957       0.03863308      -0.01649745
Pt       2.80920132       4.86546616      26.91290807        1       0.00000000      -0.00542747       0.03772606       0.00895534
Pt       5.61195895       4.86663152      26.92214094        1       0.00000000       0.02894779      -0.02651220      -0.01801206
Pt       8.42671195       4.86223231      26.92208663        1       0.00000000      -0.03767300      -0.01190252      -0.01774895
O        2.80721223       1.62066059      29.32965362        0       0.50000000      -0.00004770      -0.00079556      -0.02421919
H        2.80722327       1.62083795      28.33578338        0       0.50000000       0.00005767       0.00078464       0.00379532
