38
Lattice="8.421641763931781 0.0 0.0 4.2108208819658905 7.293355709136913 0.0 0.0 0.0 46.87624170604845" Properties=species:S:1:pos:R:3:tags:I:1:initial_magmoms:R:1:forces:R:3 charge=0 spin=0 energy=-194.41437288815342 free_energy=-194.41437288815342 stress="0.010243505239486694 2.9708720816756795e-08 5.651866752387491e-10 2.9708720816756795e-08 0.010243497788906097 6.729609314248819e-09 5.651866752387491e-10 6.729609314248819e-09 -6.927955837454647e-05" pbc="T T T"
Pt      -0.00000011      -0.00000005      19.95723442        4       0.00000000       0.00108393      -0.00102770       0.01196954
Pt       2.80721395      -0.00000019      19.95723450        4       0.00000000       0.00007452      -0.00063898       0.01171706
Pt       5.61442786      -0.00000007      19.95723452        4       0.00000000       0.00000066       0.00000248       0.01165962
Pt       1.40360721       2.43111839      19.95723434        4       0.00000000      -0.00000191       0.00000326       0.01213529
Pt       4.21082082       2.43111837      19.95723444        4       0.00000000       0.00034823       0.00146425       0.01196973
Pt       7.01803481       2.43111844      19.95723433        4       0.00000000      -0.00059290       0.00025822       0.01170372
Pt       2.80721415       4.86223733      19.95723415        4       0.00000000       0.00051417       0.00037996       0.01170894
Pt       5.61442796       4.86223739      19.95723433        4       0.00000000       0.00000167      -0.00000591       0.00949501
Pt       8.42164143       4.86223725      19.95723439        4       0.00000000      -0.00142786      -0.00043671       0.01196400
Pt       1.40360728       0.81037261      22.29206792        3       0.00000000      -0.00115536       0.00399174      -0.03782451
Pt       4.21082128       0.81037249      22.29206789        3       0.00000000       0.00161500       0.00083518      -0.03884511
Pt       7.01803472       0.81037258      22.29206780        3       0.00000000      -0.00009828      -0.00179284      -0.03883078
Pt       2.80721447       3.24149123      22.29206774        3       0.00000000      -0.00287444      -0.00300533      -0.03777732
Pt       5.61442762       3.24149120      22.29206786        3       0.00000000      -0.00165647       0.00235109      -0.03411058
Pt       8.42164156       3.24149131      22.29206806        3       0.00000000       0.00402916      -0.00099024      -0.03775712
Pt       4.21082090       5.67260998      22.29206740        3       0.00000000       0.00286062       0.00026117      -0.03409630
Pt       7.01803486       5.67261041      22.29206774        3       0.00000000      -0.00120378      -0.00261682      -0.03410541
Pt       9.82524817       5.67261060      22.29206803        3       0.00000000      -0.00151597       0.00096364      -0.03878043
Pt      -0.00000054       1.62074568      24.58417374        2       0.00000000      -0.00342292       0.00034881       0.05153465
Pt       2.80721436       1.62074546      24.58417392        2       0.00000000       0.00138133      -0.00312306       0.05157355
Pt       5.61442782       1.62074536      24.58417379        2       0.00000000      -0.00188754       0.03256764      -0.01068548
Pt       1.40360636       4.05186439      24.58417387        2       0.00000000       0.00200126       0.00278153       0.05151801
Pt       4.21082089       4.05186396      24.58417387        2       0.00000000       0.00002415       0.00138884       0.05378894
Pt       7.01803504       4.05186408      24.58417404        2       0.00000000      -0.00117945      -0.00066008       0.05380186
Pt       2.80721273       6.48298349      24.58417384        2       0.00000000       0.02919913      -0.01467168      -0.01068865
Pt       5.61442806       6.48298330      24.58417399        2       0.00000000       0.00116611      -0.00066169       0.05385798
Pt       8.42164222       6.48298344      24.58417375        2       0.00000000      -0.02728211      -0.01796589      -0.01064546
Pt       0.00026327      -0.00067629      26.91773682        1       0.00000000       0.01229115       0.00126325      -0.00134995
Pt       2.80536780       0.00121731      26.91812551        1       0.00000000      -0.00895155       0.00087008      -0.00164989
Pt       5.61442589      -0.00000584      26.90410109        1       0.00000000      -0.00003283       0.00004425       0.00068477
Pt       1.40361117       2.43113238      26.91920995        1       0.00000000       0.00002243      -0.00018800      -0.03347069
Pt       4.21129346       2.43174867      26.91773064        1       0.00000000      -0.00718223       0.01052459      -0.00105714
Pt       7.02003317       2.43214671      26.91814305        1       0.00000000       0.00517580       0.00801580      -0.00133329
Pt       2.80706600       4.85999309      26.91811542        1       0.00000000       0.00374267      -0.00887551      -0.00139357
Pt       5.61442386       4.86223263      26.91888573        1       0.00000000       0.00001645       0.00015187      -0.03535709
Pt       8.42090217       4.86229005      26.91776974        1       0.00000000      -0.00508258      -0.01180338      -0.00111569
O        5.61442837       0.00000040      30.19491975        0       0.50000000       0.00000461      -0.00000878       0.00709023
H        5.61442379       0.00000339      29.20276150        0       0.50000000      -0.00000490       0.00000469       0.01270166
