38
Lattice="8.421641763931781 0.0 0.0 4.2108208819658905 7.293355709136913 0.0 0.0 0.0 46.87624170604845" Properties=species:S:1:pos:R:3:tags:I:1:initial_magmoms:R:1:forces:R:3 charge=0 spin=0 energy=-194.41481539303624 free_energy=-194.41481539303624 stress="0.010233831591904163 3.8862435047803956e-08 1.2433714502435578e-08 3.8862435047803956e-08 0.01023387536406517 5.36117397587077e-07 1.2433714502435578e-08 5.36117397587077e-07 -6.959323218325153e-05" pbc="T T T"
Pt      -0.00000011      -0.00000005      19.95723442        4       0.00000000       0.00002004      -0.00061470       0.01174503
Pt       2.80721395      -0.00000019      19.95723450        4       0.00000000      -0.00000137      -0.00000315       0.01178606
Pt       5.61442786      -0.00000007      19.95723452        4       0.00000000       0.00095332      -0.00102883       0.01199696
Pt       1.40360721       2.43111839      19.95723434        4       0.00000000       0.00042423       0.00134652       0.01200879
Pt       4.21082082       2.43111837      19.95723444        4       0.00000000      -0.00055116       0.00028865       0.01172346
Pt       7.01803481       2.43111844      19.95723433        4       0.00000000      -0.00000193       0.00000091       0.01206761
Pt       2.80721415       4.86223733      19.95723415        4       0.00000000      -0.00000139       0.00000135       0.00967682
Pt       5.61442796       4.86223739      19.95723433        4       0.00000000      -0.00137457      -0.00031878       0.01199763
Pt       8.42164143       4.86223725      19.95723439        4       0.00000000       0.00053206       0.00032762       0.01173235
Pt       1.40360728       0.81037261      22.29206792        3       0.00000000       0.00159941       0.00072976      -0.03810171
Pt       4.21082128       0.81037249      22.29206789        3       0.00000000      -0.00017340      -0.00173707      -0.03808619
Pt       7.01803472       0.81037258      22.29206780        3       0.00000000      -0.00114397       0.00365873      -0.03777390
Pt       2.80721447       3.24149123      22.29206774        3       0.00000000      -0.00166291       0.00269173      -0.03523762
Pt       5.61442762       3.24149120      22.29206786        3       0.00000000       0.00371464      -0.00080625      -0.03776816
Pt       8.42164156       3.24149131      22.29206806        3       0.00000000      -0.00256107      -0.00281352      -0.03778790
Pt       4.21082090       5.67260998      22.29206740        3       0.00000000      -0.00148420      -0.00276376      -0.03523696
Pt       7.01803486       5.67261041      22.29206774        3       0.00000000      -0.00143973       0.00096969      -0.03809538
Pt       9.82524817       5.67261060      22.29206803        3       0.00000000       0.00314611       0.00008116      -0.03524702
Pt      -0.00000054       1.62074568      24.58417374        2       0.00000000       0.00464502      -0.00414980       0.04307365
Pt       2.80721436       1.62074546      24.58417392        2       0.00000000      -0.00108042       0.02518707      -0.00296101
Pt       5.61442782       1.62074536      24.58417379        2       0.00000000      -0.00578838      -0.00221554       0.04307341
Pt       1.40360636       4.05186439      24.58417387        2       0.00000000      -0.00305109      -0.00023064       0.04316683
Pt       4.21082089       4.05186396      24.58417387        2       0.00000000       0.00169803      -0.00262697       0.04317760
Pt       7.01803504       4.05186408      24.58417404        2       0.00000000       0.00110735       0.00618656       0.04299023
Pt       2.80721273       6.48298349      24.58417384        2       0.00000000       0.00135771       0.00281948       0.04346380
Pt       5.61442806       6.48298330      24.58417399        2       0.00000000      -0.02141182      -0.01344154      -0.00282753
Pt       8.42164222       6.48298344      24.58417375        2       0.00000000       0.02253029      -0.01151545      -0.00281141
Pt      -0.00299417       0.00243655      26.91752815        1       0.00000000       0.00367127      -0.00457386       0.00082864
Pt       2.80721620      -0.00000859      26.90854969        1       0.00000000      -0.00004466       0.00002669      -0.01244542
Pt       5.61524214      -0.00157747      26.91698635        1       0.00000000       0.00198197       0.00375451       0.00190945
Pt       1.40458598       2.43250377      26.91683754        1       0.00000000      -0.00421026       0.00106756       0.00274520
Pt       4.21445739       2.43234424      26.91743512        1       0.00000000      -0.00590009       0.00058949       0.00157207
Pt       7.01804081       2.43123579      26.91570965        1       0.00000000       0.00001509      -0.00050460      -0.01395363
Pt       2.80721189       4.86213203      26.91445606        1       0.00000000       0.00001406       0.00043531      -0.01245264
Pt       5.61261070       4.86243803      26.91686890        1       0.00000000       0.00237134      -0.00487762       0.00272101
Pt       8.42101893       4.85856747      26.91740040        1       0.00000000       0.00211368       0.00403579       0.00151683
O        2.80721085       0.00000208      30.21779369        0       0.50000000      -0.00001945       0.00001773      -0.04220548
H        2.80721851       0.00001093      29.22495392        0       0.50000000       0.00000621       0.00000569       0.04801844
