38
Lattice="8.421641763931781 0.0 0.0 4.2108208819658905 7.293355709136913 0.0 0.0 0.0 46.87624170604845" Properties=species:S:1:pos:R:3:tags:I:1:initial_magmoms:R:1:forces:R:3 charge=0 spin=0 energy=-194.41469523007237 free_energy=-194.41469523007237 stress="0.010195499286055565 3.807659609833536e-08 -2.4445614421608752e-09 3.807659609833536e-08 0.010195448994636536 1.959372752935451e-08 -2.4445614421608752e-09 1.959372752935451e-08 -0.00015398862888105214" pbc="T T T"
Pt      -0.00000011      -0.00000005      19.95723442        4       0.00000000       0.00009270      -0.00054776       0.01179392
Pt       2.80721395      -0.00000019      19.95723450        4       0.00000000      -0.00000058       0.00000457       0.01153924
Pt       5.61442786      -0.00000007      19.95723452        4       0.00000000       0.00094817      -0.00102551       0.01207160
Pt       1.40360721       2.43111839      19.95723434        4       0.00000000       0.00040376       0.00134897       0.01207187
Pt       4.21082082       2.43111837      19.95723444        4       0.00000000      -0.00051446       0.00020360       0.01177403
Pt       7.01803481       2.43111844      19.95723433        4       0.00000000      -0.00000230       0.00000504       0.01175302
Pt       2.80721415       4.86223733      19.95723415        4       0.00000000      -0.00000083      -0.00001071       0.00972608
Pt       5.61442796       4.86223739      19.95723433        4       0.00000000      -0.00135197      -0.00032396       0.01206820
Pt       8.42164143       4.86223725      19.95723439        4       0.00000000       0.00042581       0.00034346       0.01177906
Pt       1.40360728       0.81037261      22.29206792        3       0.00000000       0.00163788       0.00079133      -0.03805370
Pt       4.21082128       0.81037249      22.29206789        3       0.00000000      -0.00014901      -0.00179118      -0.03803547
Pt       7.01803472       0.81037258      22.29206780        3       0.00000000      -0.00088820       0.00346047      -0.03771884
Pt       2.80721447       3.24149123      22.29206774        3       0.00000000      -0.00157724       0.00252733      -0.03534662
Pt       5.61442762       3.24149120      22.29206786        3       0.00000000       0.00345732      -0.00096375      -0.03758571
Pt       8.42164156       3.24149131      22.29206806        3       0.00000000      -0.00255030      -0.00252891      -0.03761511
Pt       4.21082090       5.67260998      22.29206740        3       0.00000000      -0.00140497      -0.00261878      -0.03532824
Pt       7.01803486       5.67261041      22.29206774        3       0.00000000      -0.00150565       0.00104099      -0.03792910
Pt       9.82524817       5.67261060      22.29206803        3       0.00000000       0.00298165       0.00007908      -0.03535699
Pt      -0.00000054       1.62074568      24.58417374        2       0.00000000       0.01041726      -0.00814751       0.03226608
Pt       2.80721436       1.62074546      24.58417392        2       0.00000000      -0.00207797       0.03185588      -0.01248130
Pt       5.61442782       1.62074536      24.58417379        2       0.00000000      -0.01239234      -0.00480768       0.03224534
Pt       1.40360636       4.05186439      24.58417387        2       0.00000000      -0.01026999      -0.00444488       0.02956830
Pt       4.21082089       4.05186396      24.58417387        2       0.00000000       0.00904256      -0.00661148       0.02954458
Pt       7.01803504       4.05186408      24.58417404        2       0.00000000       0.00191819       0.01306726       0.03207731
Pt       2.80721273       6.48298349      24.58417384        2       0.00000000       0.00126382       0.01119197       0.02968531
Pt       5.61442806       6.48298330      24.58417399        2       0.00000000      -0.02648438      -0.01785508      -0.01251972
Pt       8.42164222       6.48298344      24.58417375        2       0.00000000       0.02857954      -0.01424139      -0.01252533
Pt      -0.00223368       0.00116971      26.91750893        1       0.00000000       0.00273118       0.00135755       0.00014654
Pt       2.80721410       0.00000337      26.90206819        1       0.00000000      -0.00000185      -0.00000952       0.03030259
Pt       5.61596457      -0.00062982      26.91696714        1       0.00000000      -0.00275580       0.00129009       0.00114955
Pt       1.40340666       2.43296794      26.91704572        1       0.00000000       0.00027944      -0.00324937       0.00121866
Pt       4.21296031       2.43268033      26.91760386        1       0.00000000      -0.00019037      -0.00329112       0.00024902
Pt       7.01803496       2.43108898      26.90866205        1       0.00000000       0.00001600      -0.00025139       0.02218327
Pt       2.80721370       4.86226771      26.90630147        1       0.00000000      -0.00001673       0.00026968       0.03122050
Pt       5.61309204       4.86101753      26.91706083        1       0.00000000       0.00249187       0.00199232       0.00126791
Pt       8.42173562       4.85951399      26.91756251        1       0.00000000      -0.00255451       0.00190512       0.00025303
O        2.80721130      -0.00000693      30.23256318        0       0.50000000       0.00000139      -0.00003084      -0.00556877
H        2.80721324       0.00000636      29.24129573        0       0.50000000       0.00000095       0.00001592      -0.00189016
