38
Lattice="8.421641763931781 0.0 0.0 4.2108208819658905 7.293355709136913 0.0 0.0 0.0 46.87624170604845" Properties=species:S:1:pos:R:3:tags:I:1:initial_magmoms:R:1:forces:R:3 charge=0 spin=0 energy=-194.41437861019932 free_energy=-194.41437861019932 stress="0.010243503376841545 5.7191495983488494e-08 -2.2205629335303456e-08 5.7191495983488494e-08 0.010243457742035389 1.2061724063983092e-08 -2.2205629335303456e-08 1.2061724063983092e-08 -6.928298535058275e-05" pbc="T T T"
Pt      -0.00000011      -0.00000005      19.95723442        4       0.00000000       0.00007462      -0.00063824       0.01171526
Pt       2.80721395      -0.00000019      19.95723450        4       0.00000000      -0.00000074       0.00000219       0.01165883
Pt       5.61442786      -0.00000007      19.95723452        4       0.00000000       0.00108516      -0.00102796       0.01197221
Pt       1.40360721       2.43111839      19.95723434        4       0.00000000       0.00034516       0.00146488       0.01197942
Pt       4.21082082       2.43111837      19.95723444        4       0.00000000      -0.00058981       0.00025905       0.01169462
Pt       7.01803481       2.43111844      19.95723433        4       0.00000000      -0.00000179       0.00000196       0.01213495
Pt       2.80721415       4.86223733      19.95723415        4       0.00000000      -0.00000091      -0.00000508       0.00949637
Pt       5.61442796       4.86223739      19.95723433        4       0.00000000      -0.00142966      -0.00043754       0.01197032
Pt       8.42164143       4.86223725      19.95723439        4       0.00000000       0.00051870       0.00037986       0.01170181
Pt       1.40360728       0.81037261      22.29206792        3       0.00000000       0.00161483       0.00083367      -0.03884652
Pt       4.21082128       0.81037249      22.29206789        3       0.00000000      -0.00009907      -0.00179085      -0.03882872
Pt       7.01803472       0.81037258      22.29206780        3       0.00000000      -0.00115341       0.00399106      -0.03782589
Pt       2.80721447       3.24149123      22.29206774        3       0.00000000      -0.00166911       0.00235280      -0.03410830
Pt       5.61442762       3.24149120      22.29206786        3       0.00000000       0.00403009      -0.00098721      -0.03775560
Pt       8.42164156       3.24149131      22.29206806        3       0.00000000      -0.00286234      -0.00300916      -0.03778031
Pt       4.21082090       5.67260998      22.29206740        3       0.00000000      -0.00119816      -0.00261097      -0.03409212
Pt       7.01803486       5.67261041      22.29206774        3       0.00000000      -0.00153029       0.00096852      -0.03877721
Pt       9.82524817       5.67261060      22.29206803        3       0.00000000       0.00286900       0.00025014      -0.03411454
Pt      -0.00000054       1.62074568      24.58417374        2       0.00000000       0.00138736      -0.00312760       0.05157351
Pt       2.80721436       1.62074546      24.58417392        2       0.00000000      -0.00189051       0.03256297      -0.01068652
Pt       5.61442782       1.62074536      24.58417379        2       0.00000000      -0.00342955       0.00035513       0.05153580
Pt       1.40360636       4.05186439      24.58417387        2       0.00000000       0.00002933       0.00137822       0.05378855
Pt       4.21082089       4.05186396      24.58417387        2       0.00000000      -0.00117529      -0.00066025       0.05379253
Pt       7.01803504       4.05186408      24.58417404        2       0.00000000       0.00199160       0.00278745       0.05151755
Pt       2.80721273       6.48298349      24.58417384        2       0.00000000       0.00118458      -0.00066413       0.05385840
Pt       5.61442806       6.48298330      24.58417399        2       0.00000000      -0.02727853      -0.01796381      -0.01065501
Pt       8.42164222       6.48298344      24.58417375        2       0.00000000       0.02917659      -0.01466580      -0.01068143
Pt      -0.00184628       0.00121714      26.91812508        1       0.00000000      -0.00895254       0.00087336      -0.00165150
Pt       2.80721220      -0.00000642      26.90410122        1       0.00000000      -0.00003329       0.00004480       0.00068103
Pt       5.61469009      -0.00067626      26.91773849        1       0.00000000       0.01229283       0.00126238      -0.00135430
Pt       1.40407858       2.43174866      26.91773020        1       0.00000000      -0.00718165       0.01052460      -0.00105952
Pt       4.21281798       2.43214578      26.91814226        1       0.00000000       0.00517826       0.00802032      -0.00133443
Pt       7.01803762       2.43113200      26.91920982        1       0.00000000       0.00000199      -0.00019620      -0.03348066
Pt       2.80720953       4.86223237      26.91888477        1       0.00000000       0.00002146       0.00016737      -0.03534971
Pt       5.61368789       4.86228984      26.91776899        1       0.00000000      -0.00508110      -0.01180590      -0.00110786
Pt       8.42149341       4.85999344      26.91811614        1       0.00000000       0.00374017      -0.00888136      -0.00139253
O        2.80722141      -0.00000349      30.19491835        0       0.50000000       0.00002803      -0.00002178       0.00703187
H        2.80720906       0.00000823      29.20275637        0       0.50000000      -0.00001199       0.00001327       0.01277952
