38
Lattice="8.421641763931781 0.0 0.0 4.2108208819658905 7.293355709136913 0.0 0.0 0.0 46.87624170604845" Properties=species:S:1:pos:R:3:tags:I:1:initial_magmoms:R:1:forces:R:3 charge=0 spin=0 energy=-194.41468378598057 free_energy=-194.41468378598057 stress="0.010195502080023289 5.708062644771417e-08 6.3630811730774894e-09 5.708062644771417e-08 0.01019545178860426 3.824488459258646e-08 6.3630811730774894e-09 3.824488459258646e-08 -0.00015396082017105073" pbc="T T T"
Pt      -0.00000011      -0.00000005      19.95723442        4       0.00000000       0.00094715      -0.00102534       0.01206935
Pt       2.80721395      -0.00000019      19.95723450        4       0.00000000       0.00009251      -0.00054859       0.01179545
Pt       5.61442786      -0.00000007      19.95723452        4       0.00000000       0.00000107       0.00000482       0.01153915
Pt       1.40360721       2.43111839      19.95723434        4       0.00000000      -0.00000229       0.00000655       0.01175334
Pt       4.21082082       2.43111837      19.95723444        4       0.00000000       0.00040666       0.00134885       0.01206188
Pt       7.01803481       2.43111844      19.95723433        4       0.00000000      -0.00051756       0.00020302       0.01178349
Pt       2.80721415       4.86223733      19.95723415        4       0.00000000       0.00042174       0.00034372       0.01178629
Pt       5.61442796       4.86223739      19.95723433        4       0.00000000       0.00000146      -0.00001154       0.00972516
Pt       8.42164143       4.86223725      19.95723439        4       0.00000000      -0.00135031      -0.00032336       0.01206214
Pt       1.40360728       0.81037261      22.29206792        3       0.00000000      -0.00089034       0.00346074      -0.03771602
Pt       4.21082128       0.81037249      22.29206789        3       0.00000000       0.00163906       0.00079262      -0.03805585
Pt       7.01803472       0.81037258      22.29206780        3       0.00000000      -0.00014778      -0.00179277      -0.03803938
Pt       2.80721447       3.24149123      22.29206774        3       0.00000000      -0.00256243      -0.00252587      -0.03761271
Pt       5.61442762       3.24149120      22.29206786        3       0.00000000      -0.00156479       0.00252521      -0.03534699
Pt       8.42164156       3.24149131      22.29206806        3       0.00000000       0.00345725      -0.00096635      -0.03758601
Pt       4.21082090       5.67260998      22.29206740        3       0.00000000       0.00297246       0.00008973      -0.03533765
Pt       7.01803486       5.67261041      22.29206774        3       0.00000000      -0.00141006      -0.00262389      -0.03534035
Pt       9.82524817       5.67261060      22.29206803        3       0.00000000      -0.00149175       0.00103593      -0.03793400
Pt      -0.00000054       1.62074568      24.58417374        2       0.00000000      -0.01238887      -0.00481573       0.03224029
Pt       2.80721436       1.62074546      24.58417392        2       0.00000000       0.01040985      -0.00814229       0.03226684
Pt       5.61442782       1.62074536      24.58417379        2       0.00000000      -0.00207709       0.03187117      -0.01248881
Pt       1.40360636       4.05186439      24.58417387        2       0.00000000       0.00192931       0.01306101       0.03207171
Pt       4.21082089       4.05186396      24.58417387        2       0.00000000      -0.01027286      -0.00443315       0.02957119
Pt       7.01803504       4.05186408      24.58417404        2       0.00000000       0.00903496      -0.00661446       0.02954666
Pt       2.80721273       6.48298349      24.58417384        2       0.00000000       0.02861375      -0.01425224      -0.01254304
Pt       5.61442806       6.48298330      24.58417399        2       0.00000000       0.00124360       0.01119297       0.02968610
Pt       8.42164222       6.48298344      24.58417375        2       0.00000000      -0.02649748      -0.01785994      -0.01252133
Pt       0.00153739      -0.00063010      26.91696673        1       0.00000000      -0.00276307       0.00128678       0.00114682
Pt       2.80497906       0.00117011      26.91750923        1       0.00000000       0.00273821       0.00135821       0.00014877
Pt       5.61442785       0.00000361      26.90206117        1       0.00000000      -0.00000758      -0.00000879       0.03034562
Pt       1.40360511       2.43108841      26.90866306        1       0.00000000       0.00002079      -0.00024231       0.02218503
Pt       4.21061893       2.43296948      26.91704563        1       0.00000000       0.00028882      -0.00325592       0.00121997
Pt       7.02017447       2.43268164      26.91760377        1       0.00000000      -0.00020058      -0.00329677       0.00025153
Pt       2.80730831       4.85951238      26.91756275        1       0.00000000      -0.00255233       0.00191332       0.00025078
Pt       5.61442875       4.86226766      26.90630333        1       0.00000000      -0.00001174       0.00027656       0.03122697
Pt       8.42030538       4.86101676      26.91706130        1       0.00000000       0.00249445       0.00200204       0.00127179
O        5.61442706      -0.00000161      30.23255726        0       0.50000000      -0.00000680      -0.00004307      -0.00566920
H        5.61442940       0.00000127      29.24128717        0       0.50000000       0.00000244       0.00000909      -0.00181484
