38
Lattice="8.421641763931781 0.0 0.0 4.2108208819658905 7.293355709136913 0.0 0.0 0.0 46.87624170604845" Properties=species:S:1:pos:R:3:tags:I:1:initial_magmoms:R:1:forces:R:3 charge=0 spin=0 energy=-194.41481157833897 free_energy=-194.41481157833897 stress="0.010233894921839237 5.577151185320872e-08 -5.131775449029874e-09 5.577151185320872e-08 0.01023389957845211 5.655396080328501e-07 -5.131775449029874e-09 5.655396080328501e-07 -6.946823850739747e-05" pbc="T T T"
Pt      -0.00000011      -0.00000005      19.95723442        4       0.00000000       0.00001989      -0.00061441       0.01174518
Pt       2.80721395      -0.00000019      19.95723450        4       0.00000000      -0.00000151      -0.00000301       0.01178608
Pt       5.61442786      -0.00000007      19.95723452        4       0.00000000       0.00095325      -0.00102893       0.01199700
Pt       1.40360721       2.43111839      19.95723434        4       0.00000000       0.00042413       0.00134634       0.01200866
Pt       4.21082082       2.43111837      19.95723444        4       0.00000000      -0.00055120       0.00028881       0.01172355
Pt       7.01803481       2.43111844      19.95723433        4       0.00000000      -0.00000192       0.00000102       0.01206801
Pt       2.80721415       4.86223733      19.95723415        4       0.00000000      -0.00000148       0.00000129       0.00967699
Pt       5.61442796       4.86223739      19.95723433        4       0.00000000      -0.00137429      -0.00031874       0.01199753
Pt       8.42164143       4.86223725      19.95723439        4       0.00000000       0.00053195       0.00032755       0.01173233
Pt       1.40360728       0.81037261      22.29206792        3       0.00000000       0.00159935       0.00072992      -0.03810072
Pt       4.21082128       0.81037249      22.29206789        3       0.00000000      -0.00017432      -0.00173668      -0.03808428
Pt       7.01803472       0.81037258      22.29206780        3       0.00000000      -0.00114335       0.00365743      -0.03777275
Pt       2.80721447       3.24149123      22.29206774        3       0.00000000      -0.00166333       0.00269174      -0.03523910
Pt       5.61442762       3.24149120      22.29206786        3       0.00000000       0.00371411      -0.00080642      -0.03776776
Pt       8.42164156       3.24149131      22.29206806        3       0.00000000      -0.00256064      -0.00281365      -0.03778886
Pt       4.21082090       5.67260998      22.29206740        3       0.00000000      -0.00148497      -0.00276394      -0.03523853
Pt       7.01803486       5.67261041      22.29206774        3       0.00000000      -0.00143977       0.00096953      -0.03809411
Pt       9.82524817       5.67261060      22.29206803        3       0.00000000       0.00314604       0.00008076      -0.03524877
Pt      -0.00000054       1.62074568      24.58417374        2       0.00000000       0.00464616      -0.00414857       0.04307642
Pt       2.80721436       1.62074546      24.58417392        2       0.00000000      -0.00107712       0.02517937      -0.00294786
Pt       5.61442782       1.62074536      24.58417379        2       0.00000000      -0.00578866      -0.00221145       0.04307348
Pt       1.40360636       4.05186439      24.58417387        2       0.00000000      -0.00305045      -0.00023112       0.04317032
Pt       4.21082089       4.05186396      24.58417387        2       0.00000000       0.00170076      -0.00262843       0.04318363
Pt       7.01803504       4.05186408      24.58417404        2       0.00000000       0.00110476       0.00618728       0.04299420
Pt       2.80721273       6.48298349      24.58417384        2       0.00000000       0.00135982       0.00282032       0.04346165
Pt       5.61442806       6.48298330      24.58417399        2       0.00000000      -0.02140602      -0.01343907      -0.00281212
Pt       8.42164222       6.48298344      24.58417375        2       0.00000000       0.02252078      -0.01151259      -0.00280314
Pt      -0.00299373       0.00243759      26.91752775        1       0.00000000       0.00367645      -0.00457326       0.00082884
Pt       2.80721552      -0.00000874      26.90855518        1       0.00000000      -0.00004268       0.00002810      -0.01245094
Pt       5.61524030      -0.00157712      26.91698478        1       0.00000000       0.00198904       0.00375712       0.00191728
Pt       1.40458920       2.43250382      26.91683723        1       0.00000000      -0.00422210       0.00107005       0.00274431
Pt       4.21445845       2.43234420      26.91743578        1       0.00000000      -0.00590474       0.00059152       0.00156329
Pt       7.01804223       2.43123568      26.91571021        1       0.00000000      -0.00000265      -0.00049848      -0.01394663
Pt       2.80721246       4.86213349      26.91445494        1       0.00000000       0.00001435       0.00045017      -0.01244647
Pt       5.61261053       4.86243854      26.91687017        1       0.00000000       0.00237449      -0.00487790       0.00271212
Pt       8.42101858       4.85856749      26.91740044        1       0.00000000       0.00211219       0.00403231       0.00151488
O        2.80720388       0.00000470      30.21783569        0       0.50000000      -0.00000984      -0.00000527      -0.04234305
H        2.80722170       0.00000552      29.22499437        0       0.50000000       0.00001334       0.00000124       0.04810954
