38
Lattice="8.421641763931781 0.0 0.0 4.2108208819658905 7.293355709136913 0.0 0.0 0.0 46.87624170604845" Properties=species:S:1:pos:R:3:tags:I:1:initial_magmoms:R:1:forces:R:3 charge=0 spin=0 energy=-194.41469332272374 free_energy=-194.41469332272374 stress="0.010195552371442318 5.297949101645827e-08 1.856173170722286e-08 5.297949101645827e-08 0.010195508599281311 -1.3923306951824088e-08 1.856173170722286e-08 -1.3923306951824088e-08 -0.0001538675423944369" pbc="T T T"
Pt      -0.00000011      -0.00000005      19.95723442        4       0.00000000       0.00009265      -0.00054786       0.01179363
Pt       2.80721395      -0.00000019      19.95723450        4       0.00000000      -0.00000046       0.00000421       0.01153920
Pt       5.61442786      -0.00000007      19.95723452        4       0.00000000       0.00094833      -0.00102561       0.01207149
Pt       1.40360721       2.43111839      19.95723434        4       0.00000000       0.00040388       0.00134911       0.01207155
Pt       4.21082082       2.43111837      19.95723444        4       0.00000000      -0.00051448       0.00020379       0.01177412
Pt       7.01803481       2.43111844      19.95723433        4       0.00000000      -0.00000203       0.00000510       0.01175311
Pt       2.80721415       4.86223733      19.95723415        4       0.00000000      -0.00000087      -0.00001094       0.00972688
Pt       5.61442796       4.86223739      19.95723433        4       0.00000000      -0.00135200      -0.00032392       0.01206835
Pt       8.42164143       4.86223725      19.95723439        4       0.00000000       0.00042594       0.00034327       0.01177906
Pt       1.40360728       0.81037261      22.29206792        3       0.00000000       0.00163809       0.00079158      -0.03805455
Pt       4.21082128       0.81037249      22.29206789        3       0.00000000      -0.00014910      -0.00179123      -0.03803518
Pt       7.01803472       0.81037258      22.29206780        3       0.00000000      -0.00088811       0.00346053      -0.03771845
Pt       2.80721447       3.24149123      22.29206774        3       0.00000000      -0.00157784       0.00252849      -0.03534801
Pt       5.61442762       3.24149120      22.29206786        3       0.00000000       0.00345687      -0.00096332      -0.03758619
Pt       8.42164156       3.24149131      22.29206806        3       0.00000000      -0.00255056      -0.00252781      -0.03761492
Pt       4.21082090       5.67260998      22.29206740        3       0.00000000      -0.00140502      -0.00261874      -0.03532904
Pt       7.01803486       5.67261041      22.29206774        3       0.00000000      -0.00150560       0.00104111      -0.03792895
Pt       9.82524817       5.67261060      22.29206803        3       0.00000000       0.00298123       0.00007899      -0.03535824
Pt      -0.00000054       1.62074568      24.58417374        2       0.00000000       0.01041467      -0.00814634       0.03226759
Pt       2.80721436       1.62074546      24.58417392        2       0.00000000      -0.00207702       0.03184361      -0.01245890
Pt       5.61442782       1.62074536      24.58417379        2       0.00000000      -0.01239191      -0.00480831       0.03224561
Pt       1.40360636       4.05186439      24.58417387        2       0.00000000      -0.01026587      -0.00444377       0.02957434
Pt       4.21082089       4.05186396      24.58417387        2       0.00000000       0.00903875      -0.00661043       0.02954837
Pt       7.01803504       4.05186408      24.58417404        2       0.00000000       0.00191827       0.01306553       0.03208032
Pt       2.80721273       6.48298349      24.58417384        2       0.00000000       0.00126338       0.01118601       0.02969049
Pt       5.61442806       6.48298330      24.58417399        2       0.00000000      -0.02647199      -0.01784866      -0.01249814
Pt       8.42164222       6.48298344      24.58417375        2       0.00000000       0.02856845      -0.01423517      -0.01250132
Pt      -0.00223437       0.00116956      26.91750862        1       0.00000000       0.00273823       0.00135178       0.00014570
Pt       2.80721374       0.00000295      26.90207906        1       0.00000000       0.00000024      -0.00000742       0.03027455
Pt       5.61596535      -0.00063006      26.91696732        1       0.00000000      -0.00276994       0.00128344       0.00115057
Pt       1.40340556       2.43296807      26.91704609        1       0.00000000       0.00029057      -0.00325283       0.00121692
Pt       4.21296117       2.43268073      26.91760393        1       0.00000000      -0.00020093      -0.00330185       0.00024902
Pt       7.01803334       2.43108794      26.90866491        1       0.00000000       0.00002634      -0.00025897       0.02217965
Pt       2.80721420       4.86226739      26.90630585        1       0.00000000      -0.00000909       0.00025710       0.03120693
Pt       5.61309184       4.86101657      26.91706082        1       0.00000000       0.00249759       0.00200163       0.00126806
Pt       8.42173538       4.85951220      26.91756268        1       0.00000000      -0.00255332       0.00191687       0.00025097
O        2.80721684       0.00000061      30.23262368        0       0.50000000      -0.00001362       0.00000502      -0.00562984
H        2.80721042       0.00000363      29.24135577        0       0.50000000      -0.00000372       0.00000588      -0.00186530
