38
Lattice="8.421641763931781 0.0 0.0 4.2108208819658905 7.293355709136913 0.0 0.0 0.0 46.87624170604845" Properties=species:S:1:pos:R:3:tags:I:1:initial_magmoms:R:1:forces:R:3 charge=0 spin=0 energy=-194.41491457516514 free_energy=-194.41491457516514 stress="0.010227111168205738 5.7983186252386076e-08 -2.1656328286212556e-08 5.7983186252386076e-08 0.010227012448012829 -6.7735732578455554e-09 -2.1656328286212556e-08 -6.7735732578455554e-09 -0.0001116126513807103" pbc="T T T"
Pt      -0.00000011      -0.00000005      19.95723442        4       0.00000000       0.00096236      -0.00104710       0.01203385
Pt       2.80721395      -0.00000019      19.95723450        4       0.00000000       0.00010261      -0.00057757       0.01176229
Pt       5.61442786      -0.00000007      19.95723452        4       0.00000000      -0.00000121       0.00000201       0.01172989
Pt       1.40360721       2.43111839      19.95723434        4       0.00000000      -0.00000213       0.00000891       0.01196945
Pt       4.21082082       2.43111837      19.95723444        4       0.00000000       0.00041328       0.00137073       0.01202289
Pt       7.01803481       2.43111844      19.95723433        4       0.00000000      -0.00054303       0.00021251       0.01175096
Pt       2.80721415       4.86223733      19.95723415        4       0.00000000       0.00043753       0.00036369       0.01175196
Pt       5.61442796       4.86223739      19.95723433        4       0.00000000       0.00000308      -0.00001097       0.00978335
Pt       8.42164143       4.86223725      19.95723439        4       0.00000000      -0.00137113      -0.00032472       0.01202448
Pt       1.40360728       0.81037261      22.29206792        3       0.00000000      -0.00095120       0.00355667      -0.03788049
Pt       4.21082128       0.81037249      22.29206789        3       0.00000000       0.00163844       0.00086630      -0.03803876
Pt       7.01803472       0.81037258      22.29206780        3       0.00000000      -0.00008711      -0.00182593      -0.03803455
Pt       2.80721447       3.24149123      22.29206774        3       0.00000000      -0.00261589      -0.00262934      -0.03776578
Pt       5.61442762       3.24149120      22.29206786        3       0.00000000      -0.00161949       0.00261699      -0.03540905
Pt       8.42164156       3.24149131      22.29206806        3       0.00000000       0.00356798      -0.00096915      -0.03773311
Pt       4.21082090       5.67260998      22.29206740        3       0.00000000       0.00307855       0.00008808      -0.03537933
Pt       7.01803486       5.67261041      22.29206774        3       0.00000000      -0.00146406      -0.00271884      -0.03537001
Pt       9.82524817       5.67261060      22.29206803        3       0.00000000      -0.00155188       0.00100446      -0.03789612
Pt      -0.00000054       1.62074568      24.58417374        2       0.00000000      -0.00832377      -0.00264386       0.04072804
Pt       2.80721436       1.62074546      24.58417392        2       0.00000000       0.00646940      -0.00571872       0.04055405
Pt       5.61442782       1.62074536      24.58417379        2       0.00000000      -0.00216529       0.02626766      -0.00393748
Pt       1.40360636       4.05186439      24.58417387        2       0.00000000       0.00174166       0.00843357       0.04022433
Pt       4.21082089       4.05186396      24.58417387        2       0.00000000      -0.00538965      -0.00180985       0.03917637
Pt       7.01803504       4.05186408      24.58417404        2       0.00000000       0.00437504      -0.00368301       0.03923804
Pt       2.80721273       6.48298349      24.58417384        2       0.00000000       0.02380892      -0.01133367      -0.00392354
Pt       5.61442806       6.48298330      24.58417399        2       0.00000000       0.00104666       0.00571378       0.03952686
Pt       8.42164222       6.48298344      24.58417375        2       0.00000000      -0.02156951      -0.01518525      -0.00404532
Pt       0.00128979      -0.00063403      26.91716247        1       0.00000000      -0.00071147       0.00117328       0.00052655
Pt       2.80510255       0.00116639      26.91746632        1       0.00000000       0.00101868       0.00108737       0.00075589
Pt       5.61440095      -0.00000497      26.90732928        1       0.00000000       0.00025009       0.00013849      -0.00255225
Pt       1.40363855       2.43112152      26.91351599        1       0.00000000      -0.00028587      -0.00063926      -0.00332018
Pt       4.21071918       2.43281523      26.91722496        1       0.00000000      -0.00036292      -0.00175607       0.00084497
Pt       7.02010878       2.43268053      26.91758585        1       0.00000000       0.00044561      -0.00241897       0.00076115
Pt       2.80725278       4.85951752      26.91751897        1       0.00000000      -0.00149582       0.00135512       0.00095437
Pt       5.61442640       4.86225681      26.91183149        1       0.00000000       0.00000570       0.00053957       0.00178002
Pt       8.42045273       4.86118880      26.91724726        1       0.00000000       0.00112125       0.00057530       0.00085789
O        5.61440452       0.00015216      30.22603115        0       0.50000000      -0.00002497       0.00024291       0.03842212
H        5.61445989      -0.00021954      29.23546487        0       0.50000000       0.00004980      -0.00032499      -0.03789387
