38
Lattice="8.421641763931781 0.0 0.0 4.2108208819658905 7.293355709136913 0.0 0.0 0.0 46.87624170604845" Properties=species:S:1:pos:R:3:tags:I:1:initial_magmoms:R:1:forces:R:3 charge=0 spin=0 energy=-194.41469523007237 free_energy=-194.41469523007237 stress="0.010195497423410416 3.7812494468880686e-08 -1.4504565548634218e-08 3.7812494468880686e-08 0.01019548624753952 -7.650218236676665e-09 -1.4504565548634218e-08 -7.650218236676665e-09 -0.00015391962369903922" pbc="T T T"
Pt      -0.00000011      -0.00000005      19.95723442        4       0.00000000       0.00094708      -0.00102513       0.01206935
Pt       2.80721395      -0.00000019      19.95723450        4       0.00000000       0.00009271      -0.00054840       0.01179556
Pt       5.61442786      -0.00000007      19.95723452        4       0.00000000       0.00000091       0.00000466       0.01153983
Pt       1.40360721       2.43111839      19.95723434        4       0.00000000      -0.00000218       0.00000640       0.01175328
Pt       4.21082082       2.43111837      19.95723444        4       0.00000000       0.00040700       0.00134829       0.01206235
Pt       7.01803481       2.43111844      19.95723433        4       0.00000000      -0.00051742       0.00020270       0.01178351
Pt       2.80721415       4.86223733      19.95723415        4       0.00000000       0.00042132       0.00034358       0.01178654
Pt       5.61442796       4.86223739      19.95723433        4       0.00000000       0.00000169      -0.00001172       0.00972567
Pt       8.42164143       4.86223725      19.95723439        4       0.00000000      -0.00135009      -0.00032303       0.01206244
Pt       1.40360728       0.81037261      22.29206792        3       0.00000000      -0.00089062       0.00346120      -0.03771634
Pt       4.21082128       0.81037249      22.29206789        3       0.00000000       0.00163871       0.00079277      -0.03805432
Pt       7.01803472       0.81037258      22.29206780        3       0.00000000      -0.00014767      -0.00179293      -0.03803797
Pt       2.80721447       3.24149123      22.29206774        3       0.00000000      -0.00256233      -0.00252515      -0.03761238
Pt       5.61442762       3.24149120      22.29206786        3       0.00000000      -0.00156542       0.00252707      -0.03534926
Pt       8.42164156       3.24149131      22.29206806        3       0.00000000       0.00345707      -0.00096655      -0.03758745
Pt       4.21082090       5.67260998      22.29206740        3       0.00000000       0.00297323       0.00008938      -0.03533973
Pt       7.01803486       5.67261041      22.29206774        3       0.00000000      -0.00141072      -0.00262455      -0.03534260
Pt       9.82524817       5.67261060      22.29206803        3       0.00000000      -0.00149210       0.00103559      -0.03793294
Pt      -0.00000054       1.62074568      24.58417374        2       0.00000000      -0.01238543      -0.00481503       0.03224447
Pt       2.80721436       1.62074546      24.58417392        2       0.00000000       0.01040861      -0.00814136       0.03226849
Pt       5.61442782       1.62074536      24.58417379        2       0.00000000      -0.00207711       0.03185342      -0.01246853
Pt       1.40360636       4.05186439      24.58417387        2       0.00000000       0.00192812       0.01305936       0.03207614
Pt       4.21082089       4.05186396      24.58417387        2       0.00000000      -0.01027501      -0.00443526       0.02956893
Pt       7.01803504       4.05186408      24.58417404        2       0.00000000       0.00903490      -0.00661286       0.02954978
Pt       2.80721273       6.48298349      24.58417384        2       0.00000000       0.02859869      -0.01424283      -0.01252145
Pt       5.61442806       6.48298330      24.58417399        2       0.00000000       0.00124215       0.01119335       0.02968641
Pt       8.42164222       6.48298344      24.58417375        2       0.00000000      -0.02648082      -0.01785131      -0.01250006
Pt       0.00153701      -0.00062960      26.91696721        1       0.00000000      -0.00276456       0.00128461       0.00114677
Pt       2.80497924       0.00116986      26.91750932        1       0.00000000       0.00273971       0.00135378       0.00014805
Pt       5.61442788       0.00000321      26.90207396        1       0.00000000      -0.00000664      -0.00000557       0.03028422
Pt       1.40360594       2.43108876      26.90866380        1       0.00000000       0.00001803      -0.00024999       0.02217301
Pt       4.21061915       2.43296849      26.91704594        1       0.00000000       0.00028982      -0.00325696       0.00121878
Pt       7.02017452       2.43268098      26.91760396        1       0.00000000      -0.00020084      -0.00329882       0.00024928
Pt       2.80730744       4.85951273      26.91756279        1       0.00000000      -0.00255352       0.00191446       0.00025189
Pt       5.61442700       4.86226753      26.90630414        1       0.00000000      -0.00002016       0.00025166       0.03121372
Pt       8.42030528       4.86101700      26.91706153        1       0.00000000       0.00249236       0.00200112       0.00127006
O        5.61442900       0.00000055      30.23258814        0       0.50000000       0.00001070       0.00000114      -0.00566258
H        5.61442947       0.00000028      29.24131749        0       0.50000000      -0.00000020       0.00000291      -0.00180271
