38
Lattice="8.421641763931781 0.0 0.0 4.2108208819658905 7.293355709136913 0.0 0.0 0.0 46.87624170604845" Properties=species:S:1:pos:R:3:tags:I:1:initial_magmoms:R:1:forces:R:3 charge=0 spin=0 energy=-194.41480585629307 free_energy=-194.41480585629307 stress="0.010233870707452297 5.564033145333269e-08 4.348418514155128e-09 5.564033145333269e-08 0.010233897715806961 5.684516395376704e-07 4.348418514155128e-09 5.684516395376704e-07 -6.95272465236485e-05" pbc="T T T"
Pt      -0.00000011      -0.00000005      19.95723442        4       0.00000000       0.00001969      -0.00061435       0.01174526
Pt       2.80721395      -0.00000019      19.95723450        4       0.00000000      -0.00000133      -0.00000272       0.01178559
Pt       5.61442786      -0.00000007      19.95723452        4       0.00000000       0.00095328      -0.00102835       0.01199702
Pt       1.40360721       2.43111839      19.95723434        4       0.00000000       0.00042382       0.00134637       0.01200855
Pt       4.21082082       2.43111837      19.95723444        4       0.00000000      -0.00055077       0.00028850       0.01172331
Pt       7.01803481       2.43111844      19.95723433        4       0.00000000      -0.00000194       0.00000081       0.01206808
Pt       2.80721415       4.86223733      19.95723415        4       0.00000000      -0.00000161       0.00000099       0.00967767
Pt       5.61442796       4.86223739      19.95723433        4       0.00000000      -0.00137401      -0.00031931       0.01199732
Pt       8.42164143       4.86223725      19.95723439        4       0.00000000       0.00053210       0.00032743       0.01173207
Pt       1.40360728       0.81037261      22.29206792        3       0.00000000       0.00160009       0.00072872      -0.03810487
Pt       4.21082128       0.81037249      22.29206789        3       0.00000000      -0.00017465      -0.00173669      -0.03808868
Pt       7.01803472       0.81037258      22.29206780        3       0.00000000      -0.00114355       0.00365721      -0.03776912
Pt       2.80721447       3.24149123      22.29206774        3       0.00000000      -0.00166233       0.00269012      -0.03523642
Pt       5.61442762       3.24149120      22.29206786        3       0.00000000       0.00371446      -0.00080563      -0.03776699
Pt       8.42164156       3.24149131      22.29206806        3       0.00000000      -0.00256105      -0.00281327      -0.03778575
Pt       4.21082090       5.67260998      22.29206740        3       0.00000000      -0.00148265      -0.00276299      -0.03523777
Pt       7.01803486       5.67261041      22.29206774        3       0.00000000      -0.00144005       0.00097083      -0.03809921
Pt       9.82524817       5.67261060      22.29206803        3       0.00000000       0.00314347       0.00008136      -0.03524494
Pt      -0.00000054       1.62074568      24.58417374        2       0.00000000       0.00462629      -0.00413969       0.04309506
Pt       2.80721436       1.62074546      24.58417392        2       0.00000000      -0.00107813       0.02520943      -0.00299767
Pt       5.61442782       1.62074536      24.58417379        2       0.00000000      -0.00577050      -0.00220834       0.04309924
Pt       1.40360636       4.05186439      24.58417387        2       0.00000000      -0.00305627      -0.00022825       0.04316964
Pt       4.21082089       4.05186396      24.58417387        2       0.00000000       0.00169925      -0.00262873       0.04317647
Pt       7.01803504       4.05186408      24.58417404        2       0.00000000       0.00111152       0.00616447       0.04301437
Pt       2.80721273       6.48298349      24.58417384        2       0.00000000       0.00135338       0.00282830       0.04346900
Pt       5.61442806       6.48298330      24.58417399        2       0.00000000      -0.02143273      -0.01345215      -0.00285959
Pt       8.42164222       6.48298344      24.58417375        2       0.00000000       0.02255581      -0.01152855      -0.00283734
Pt      -0.00299123       0.00243702      26.91752742        1       0.00000000       0.00364217      -0.00456149       0.00082869
Pt       2.80721715      -0.00000822      26.90852872        1       0.00000000      -0.00004824       0.00002429      -0.01229805
Pt       5.61523815      -0.00157657      26.91698965        1       0.00000000       0.00201775       0.00376325       0.00189334
Pt       1.40458960       2.43250321      26.91683647        1       0.00000000      -0.00424362       0.00108655       0.00275139
Pt       4.21445616       2.43234363      26.91743496        1       0.00000000      -0.00587487       0.00060882       0.00157165
Pt       7.01804131       2.43123382      26.91572546        1       0.00000000       0.00000734      -0.00048931      -0.01401294
Pt       2.80721127       4.86213595      26.91445317        1       0.00000000       0.00002080       0.00043705      -0.01243593
Pt       5.61261192       4.86243909      26.91686643        1       0.00000000       0.00236567      -0.00489985       0.00272811
Pt       8.42101739       4.85856916      26.91740137        1       0.00000000       0.00211838       0.00400491       0.00150674
O        2.80720930      -0.00000447      30.21785967        0       0.50000000      -0.00001350      -0.00001244      -0.04225417
H        2.80721821       0.00001151      29.22502160        0       0.50000000       0.00000664       0.00001270       0.04799088
