38
Lattice="8.421641763931781 0.0 0.0 4.2108208819658905 7.293355709136913 0.0 0.0 0.0 46.87624170604845" Properties=species:S:1:pos:R:3:tags:I:1:initial_magmoms:R:1:forces:R:3 charge=0 spin=0 energy=-194.41469332272374 free_energy=-194.41469332272374 stress="0.010195576585829258 4.666449981982623e-08 -4.837156453163516e-09 4.666449981982623e-08 0.010195517912507057 1.0582726694963185e-08 -4.837156453163516e-09 1.0582726694963185e-08 -0.00015389361942652613" pbc="T T T"
Pt      -0.00000011      -0.00000005      19.95723442        4       0.00000000       0.00009265      -0.00054758       0.01179407
Pt       2.80721395      -0.00000019      19.95723450        4       0.00000000      -0.00000053       0.00000438       0.01153975
Pt       5.61442786      -0.00000007      19.95723452        4       0.00000000       0.00094821      -0.00102526       0.01207189
Pt       1.40360721       2.43111839      19.95723434        4       0.00000000       0.00040361       0.00134867       0.01207198
Pt       4.21082082       2.43111837      19.95723444        4       0.00000000      -0.00051433       0.00020360       0.01177429
Pt       7.01803481       2.43111844      19.95723433        4       0.00000000      -0.00000246       0.00000516       0.01175294
Pt       2.80721415       4.86223733      19.95723415        4       0.00000000      -0.00000087      -0.00001077       0.00972756
Pt       5.61442796       4.86223739      19.95723433        4       0.00000000      -0.00135193      -0.00032367       0.01206871
Pt       8.42164143       4.86223725      19.95723439        4       0.00000000       0.00042574       0.00034333       0.01177929
Pt       1.40360728       0.81037261      22.29206792        3       0.00000000       0.00163781       0.00079202      -0.03805480
Pt       4.21082128       0.81037249      22.29206789        3       0.00000000      -0.00014881      -0.00179083      -0.03803564
Pt       7.01803472       0.81037258      22.29206780        3       0.00000000      -0.00088820       0.00346001      -0.03771861
Pt       2.80721447       3.24149123      22.29206774        3       0.00000000      -0.00157718       0.00252790      -0.03534815
Pt       5.61442762       3.24149120      22.29206786        3       0.00000000       0.00345732      -0.00096416      -0.03758656
Pt       8.42164156       3.24149131      22.29206806        3       0.00000000      -0.00255075      -0.00252885      -0.03761618
Pt       4.21082090       5.67260998      22.29206740        3       0.00000000      -0.00140551      -0.00261914      -0.03532927
Pt       7.01803486       5.67261041      22.29206774        3       0.00000000      -0.00150604       0.00104082      -0.03792899
Pt       9.82524817       5.67261060      22.29206803        3       0.00000000       0.00298163       0.00007896      -0.03535782
Pt      -0.00000054       1.62074568      24.58417374        2       0.00000000       0.01041336      -0.00814591       0.03227022
Pt       2.80721436       1.62074546      24.58417392        2       0.00000000      -0.00207779       0.03184192      -0.01245493
Pt       5.61442782       1.62074536      24.58417379        2       0.00000000      -0.01238916      -0.00480622       0.03224945
Pt       1.40360636       4.05186439      24.58417387        2       0.00000000      -0.01026313      -0.00444207       0.02957552
Pt       4.21082089       4.05186396      24.58417387        2       0.00000000       0.00903660      -0.00660877       0.02955006
Pt       7.01803504       4.05186408      24.58417404        2       0.00000000       0.00191844       0.01306412       0.03208016
Pt       2.80721273       6.48298349      24.58417384        2       0.00000000       0.00126427       0.01118455       0.02969111
Pt       5.61442806       6.48298330      24.58417399        2       0.00000000      -0.02647149      -0.01784868      -0.01249625
Pt       8.42164222       6.48298344      24.58417375        2       0.00000000       0.02856833      -0.01423430      -0.01249817
Pt      -0.00223511       0.00116993      26.91750916        1       0.00000000       0.00274778       0.00135005       0.00014635
Pt       2.80721386       0.00000300      26.90208137        1       0.00000000       0.00000279      -0.00000712       0.03025564
Pt       5.61596685      -0.00062954      26.91696730        1       0.00000000      -0.00278043       0.00128409       0.00114839
Pt       1.40340524       2.43296889      26.91704609        1       0.00000000       0.00030033      -0.00325941       0.00121825
Pt       4.21296223       2.43268133      26.91760456        1       0.00000000      -0.00020800      -0.00330546       0.00024849
Pt       7.01803481       2.43108930      26.90866646        1       0.00000000       0.00001348      -0.00026112       0.02217549
Pt       2.80721427       4.86226719      26.90630656        1       0.00000000      -0.00001876       0.00027119       0.03119563
Pt       5.61309189       4.86101577      26.91706061        1       0.00000000       0.00249662       0.00201072       0.00127027
Pt       8.42173644       4.85951158      26.91756271        1       0.00000000      -0.00255816       0.00192845       0.00025227
O        2.80720861      -0.00000283      30.23261737        0       0.50000000       0.00000174      -0.00002146      -0.00553637
H        2.80721387       0.00000490      29.24135004        0       0.50000000       0.00000294       0.00001086      -0.00194631
