38
Lattice="8.421641763931781 0.0 0.0 4.2108208819658905 7.293355709136913 0.0 0.0 0.0 46.87624170604845" Properties=species:S:1:pos:R:3:tags:I:1:initial_magmoms:R:1:forces:R:3 charge=0 spin=0 energy=-194.41491076046788 free_energy=-194.41491076046788 stress="0.01022712979465723 4.7289354654367344e-08 3.8173846306222e-09 4.7289354654367344e-08 0.010227076709270477 -2.781544949925774e-08 3.8173846306222e-09 -2.781544949925774e-08 -0.00011155961692566052" pbc="T T T"
Pt      -0.00000011      -0.00000005      19.95723442        4       0.00000000       0.00096226      -0.00104708       0.01203345
Pt       2.80721395      -0.00000019      19.95723450        4       0.00000000       0.00010243      -0.00057782       0.01176203
Pt       5.61442786      -0.00000007      19.95723452        4       0.00000000      -0.00000089       0.00000196       0.01172972
Pt       1.40360721       2.43111839      19.95723434        4       0.00000000      -0.00000217       0.00000867       0.01196952
Pt       4.21082082       2.43111837      19.95723444        4       0.00000000       0.00041320       0.00137111       0.01202263
Pt       7.01803481       2.43111844      19.95723433        4       0.00000000      -0.00054313       0.00021249       0.01175092
Pt       2.80721415       4.86223733      19.95723415        4       0.00000000       0.00043752       0.00036375       0.01175183
Pt       5.61442796       4.86223739      19.95723433        4       0.00000000       0.00000332      -0.00001113       0.00978299
Pt       8.42164143       4.86223725      19.95723439        4       0.00000000      -0.00137129      -0.00032485       0.01202439
Pt       1.40360728       0.81037261      22.29206792        3       0.00000000      -0.00095098       0.00355590      -0.03788097
Pt       4.21082128       0.81037249      22.29206789        3       0.00000000       0.00163866       0.00086566      -0.03803869
Pt       7.01803472       0.81037258      22.29206780        3       0.00000000      -0.00008755      -0.00182643      -0.03803340
Pt       2.80721447       3.24149123      22.29206774        3       0.00000000      -0.00261519      -0.00262933      -0.03776444
Pt       5.61442762       3.24149120      22.29206786        3       0.00000000      -0.00161852       0.00261672      -0.03540964
Pt       8.42164156       3.24149131      22.29206806        3       0.00000000       0.00356791      -0.00096910      -0.03773404
Pt       4.21082090       5.67260998      22.29206740        3       0.00000000       0.00307851       0.00008832      -0.03538044
Pt       7.01803486       5.67261041      22.29206774        3       0.00000000      -0.00146320      -0.00271889      -0.03536994
Pt       9.82524817       5.67261060      22.29206803        3       0.00000000      -0.00155151       0.00100461      -0.03789592
Pt      -0.00000054       1.62074568      24.58417374        2       0.00000000      -0.00832340      -0.00264449       0.04073119
Pt       2.80721436       1.62074546      24.58417392        2       0.00000000       0.00646998      -0.00571564       0.04055924
Pt       5.61442782       1.62074536      24.58417379        2       0.00000000      -0.00216645       0.02626418      -0.00392479
Pt       1.40360636       4.05186439      24.58417387        2       0.00000000       0.00174412       0.00843325       0.04023265
Pt       4.21082089       4.05186396      24.58417387        2       0.00000000      -0.00539475      -0.00181246       0.03917640
Pt       7.01803504       4.05186408      24.58417404        2       0.00000000       0.00437392      -0.00368349       0.03923771
Pt       2.80721273       6.48298349      24.58417384        2       0.00000000       0.02380557      -0.01133152      -0.00390676
Pt       5.61442806       6.48298330      24.58417399        2       0.00000000       0.00104485       0.00571705       0.03952676
Pt       8.42164222       6.48298344      24.58417375        2       0.00000000      -0.02156503      -0.01518291      -0.00403313
Pt       0.00129027      -0.00063278      26.91716339        1       0.00000000      -0.00072234       0.00116913       0.00051974
Pt       2.80510192       0.00116664      26.91746724        1       0.00000000       0.00102479       0.00108763       0.00075487
Pt       5.61440140      -0.00000488      26.90733252        1       0.00000000       0.00025025       0.00013640      -0.00256475
Pt       1.40363719       2.43112119      26.91351674        1       0.00000000      -0.00026503      -0.00062963      -0.00332609
Pt       4.21071962       2.43281590      26.91722623        1       0.00000000      -0.00036643      -0.00176115       0.00083651
Pt       7.02010864       2.43268130      26.91758557        1       0.00000000       0.00044272      -0.00242480       0.00076264
Pt       2.80725350       4.85951756      26.91751970        1       0.00000000      -0.00150869       0.00135803       0.00094565
Pt       5.61442364       4.86225873      26.91182986        1       0.00000000       0.00002062       0.00051414       0.00180129
Pt       8.42045144       4.86118812      26.91724854        1       0.00000000       0.00113233       0.00058515       0.00085532
O        5.61440869       0.00015075      30.22605099        0       0.50000000      -0.00004423       0.00026269       0.03846266
H        5.61445957      -0.00022124      29.23548755        0       0.50000000       0.00004783      -0.00032638      -0.03796699
