38
Lattice="8.421641763931781 0.0 0.0 4.2108208819658905 7.293355709136913 0.0 0.0 0.0 46.87624170604845" Properties=species:S:1:pos:R:3:tags:I:1:initial_magmoms:R:1:forces:R:3 charge=0 spin=0 energy=-194.41436907345616 free_energy=-194.41436907345616 stress="0.01024347823113203 4.3572544683456726e-08 2.630994799801556e-08 4.3572544683456726e-08 0.01024346612393856 3.3070672866841733e-09 2.630994799801556e-08 3.3070672866841733e-09 -6.93589827278629e-05" pbc="T T T"
Pt      -0.00000011      -0.00000005      19.95723442        4       0.00000000       0.00108388      -0.00102777       0.01196981
Pt       2.80721395      -0.00000019      19.95723450        4       0.00000000       0.00007423      -0.00063894       0.01171708
Pt       5.61442786      -0.00000007      19.95723452        4       0.00000000       0.00000054       0.00000260       0.01165936
Pt       1.40360721       2.43111839      19.95723434        4       0.00000000      -0.00000204       0.00000319       0.01213521
Pt       4.21082082       2.43111837      19.95723444        4       0.00000000       0.00034826       0.00146437       0.01196967
Pt       7.01803481       2.43111844      19.95723433        4       0.00000000      -0.00059286       0.00025811       0.01170389
Pt       2.80721415       4.86223733      19.95723415        4       0.00000000       0.00051426       0.00038002       0.01170902
Pt       5.61442796       4.86223739      19.95723433        4       0.00000000       0.00000136      -0.00000565       0.00949514
Pt       8.42164143       4.86223725      19.95723439        4       0.00000000      -0.00142773      -0.00043657       0.01196420
Pt       1.40360728       0.81037261      22.29206792        3       0.00000000      -0.00115526       0.00399160      -0.03782390
Pt       4.21082128       0.81037249      22.29206789        3       0.00000000       0.00161495       0.00083564      -0.03884619
Pt       7.01803472       0.81037258      22.29206780        3       0.00000000      -0.00009764      -0.00179280      -0.03883103
Pt       2.80721447       3.24149123      22.29206774        3       0.00000000      -0.00287478      -0.00300570      -0.03777751
Pt       5.61442762       3.24149120      22.29206786        3       0.00000000      -0.00165669       0.00235073      -0.03410964
Pt       8.42164156       3.24149131      22.29206806        3       0.00000000       0.00402927      -0.00099069      -0.03775686
Pt       4.21082090       5.67260998      22.29206740        3       0.00000000       0.00286052       0.00026070      -0.03409519
Pt       7.01803486       5.67261041      22.29206774        3       0.00000000      -0.00120337      -0.00261668      -0.03410459
Pt       9.82524817       5.67261060      22.29206803        3       0.00000000      -0.00151581       0.00096352      -0.03878141
Pt      -0.00000054       1.62074568      24.58417374        2       0.00000000      -0.00342820       0.00034673       0.05152759
Pt       2.80721436       1.62074546      24.58417392        2       0.00000000       0.00138677      -0.00312617       0.05156283
Pt       5.61442782       1.62074536      24.58417379        2       0.00000000      -0.00188748       0.03257713      -0.01069622
Pt       1.40360636       4.05186439      24.58417387        2       0.00000000       0.00200113       0.00278664       0.05151020
Pt       4.21082089       4.05186396      24.58417387        2       0.00000000       0.00002256       0.00138779       0.05378189
Pt       7.01803504       4.05186408      24.58417404        2       0.00000000      -0.00117635      -0.00066356       0.05379122
Pt       2.80721273       6.48298349      24.58417384        2       0.00000000       0.02920649      -0.01467576      -0.01070040
Pt       5.61442806       6.48298330      24.58417399        2       0.00000000       0.00116552      -0.00065852       0.05384952
Pt       8.42164222       6.48298344      24.58417375        2       0.00000000      -0.02728992      -0.01797139      -0.01065903
Pt       0.00026410      -0.00067637      26.91773671        1       0.00000000       0.01228763       0.00126339      -0.00135106
Pt       2.80536742       0.00121684      26.91812596        1       0.00000000      -0.00894636       0.00087524      -0.00164887
Pt       5.61442580      -0.00000593      26.90409206        1       0.00000000      -0.00003147       0.00004158       0.00072734
Pt       1.40361253       2.43113147      26.91920566        1       0.00000000       0.00001495      -0.00018316      -0.03343916
Pt       4.21129360       2.43175009      26.91773064        1       0.00000000      -0.00717788       0.01051972      -0.00105702
Pt       7.02003343       2.43214749      26.91814244        1       0.00000000       0.00517824       0.00800928      -0.00133344
Pt       2.80706693       4.85999232      26.91811497        1       0.00000000       0.00374055      -0.00886993      -0.00139459
Pt       5.61442500       4.86223375      26.91888183        1       0.00000000       0.00002417       0.00014833      -0.03533438
Pt       8.42090149       4.86228844      26.91776967        1       0.00000000      -0.00507059      -0.01179842      -0.00111471
O        5.61442434       0.00000076      30.19492135        0       0.50000000      -0.00002114      -0.00001007       0.00714926
H        5.61442423       0.00000408      29.20276467        0       0.50000000       0.00000023       0.00000559       0.01263203
