38
Lattice="8.421641763931781 0.0 0.0 4.2108208819658905 7.293355709136913 0.0 0.0 0.0 46.87624170604845" Properties=species:S:1:pos:R:3:tags:I:1:initial_magmoms:R:1:forces:R:3 charge=0 spin=0 energy=-194.41490503842198 free_energy=-194.41490503842198 stress="0.010227138176560402 3.758168887202373e-08 -1.697271301281944e-08 3.758168887202373e-08 0.010227056220173836 -1.9693466413173155e-08 -1.697271301281944e-08 -1.9693466413173155e-08 -0.00011162045120727271" pbc="T T T"
Pt      -0.00000011      -0.00000005      19.95723442        4       0.00000000       0.00096190      -0.00104705       0.01203353
Pt       2.80721395      -0.00000019      19.95723450        4       0.00000000       0.00010256      -0.00057791       0.01176210
Pt       5.61442786      -0.00000007      19.95723452        4       0.00000000      -0.00000094       0.00000209       0.01172921
Pt       1.40360721       2.43111839      19.95723434        4       0.00000000      -0.00000229       0.00000911       0.01196954
Pt       4.21082082       2.43111837      19.95723444        4       0.00000000       0.00041324       0.00137110       0.01202253
Pt       7.01803481       2.43111844      19.95723433        4       0.00000000      -0.00054312       0.00021255       0.01175094
Pt       2.80721415       4.86223733      19.95723415        4       0.00000000       0.00043752       0.00036366       0.01175164
Pt       5.61442796       4.86223739      19.95723433        4       0.00000000       0.00000307      -0.00001156       0.00978297
Pt       8.42164143       4.86223725      19.95723439        4       0.00000000      -0.00137131      -0.00032499       0.01202416
Pt       1.40360728       0.81037261      22.29206792        3       0.00000000      -0.00095088       0.00355570      -0.03788017
Pt       4.21082128       0.81037249      22.29206789        3       0.00000000       0.00163832       0.00086521      -0.03803846
Pt       7.01803472       0.81037258      22.29206780        3       0.00000000      -0.00008767      -0.00182576      -0.03803346
Pt       2.80721447       3.24149123      22.29206774        3       0.00000000      -0.00261563      -0.00262837      -0.03776398
Pt       5.61442762       3.24149120      22.29206786        3       0.00000000      -0.00161854       0.00261717      -0.03541010
Pt       8.42164156       3.24149131      22.29206806        3       0.00000000       0.00356799      -0.00096834      -0.03773428
Pt       4.21082090       5.67260998      22.29206740        3       0.00000000       0.00307838       0.00008861      -0.03537878
Pt       7.01803486       5.67261041      22.29206774        3       0.00000000      -0.00146296      -0.00271862      -0.03537062
Pt       9.82524817       5.67261060      22.29206803        3       0.00000000      -0.00155262       0.00100475      -0.03789473
Pt      -0.00000054       1.62074568      24.58417374        2       0.00000000      -0.00832436      -0.00264634       0.04072541
Pt       2.80721436       1.62074546      24.58417392        2       0.00000000       0.00647116      -0.00571915       0.04055191
Pt       5.61442782       1.62074536      24.58417379        2       0.00000000      -0.00216434       0.02626921      -0.00394079
Pt       1.40360636       4.05186439      24.58417387        2       0.00000000       0.00174430       0.00843520       0.04022588
Pt       4.21082089       4.05186396      24.58417387        2       0.00000000      -0.00539527      -0.00181074       0.03917733
Pt       7.01803504       4.05186408      24.58417404        2       0.00000000       0.00437575      -0.00368238       0.03924321
Pt       2.80721273       6.48298349      24.58417384        2       0.00000000       0.02381166      -0.01133525      -0.00392039
Pt       5.61442806       6.48298330      24.58417399        2       0.00000000       0.00104613       0.00571666       0.03953136
Pt       8.42164222       6.48298344      24.58417375        2       0.00000000      -0.02157168      -0.01518618      -0.00404595
Pt       0.00128844      -0.00063362      26.91716338        1       0.00000000      -0.00069988       0.00117033       0.00051902
Pt       2.80510409       0.00116612      26.91746705        1       0.00000000       0.00100480       0.00108337       0.00075485
Pt       5.61440176      -0.00000538      26.90732819        1       0.00000000       0.00024613       0.00013923      -0.00252309
Pt       1.40363799       2.43112081      26.91351410        1       0.00000000      -0.00026882      -0.00063624      -0.00330697
Pt       4.21072105       2.43281371      26.91722463        1       0.00000000      -0.00037379      -0.00174604       0.00084544
Pt       7.02010892       2.43267931      26.91758502        1       0.00000000       0.00045072      -0.00240757       0.00076062
Pt       2.80725272       4.85951951      26.91751959        1       0.00000000      -0.00149580       0.00133894       0.00094688
Pt       5.61442421       4.86225717      26.91182812        1       0.00000000       0.00000547       0.00053229       0.00180307
Pt       8.42045375       4.86118980      26.91724765        1       0.00000000       0.00111184       0.00056603       0.00085608
O        5.61438923       0.00014952      30.22606541        0       0.50000000      -0.00004472       0.00025159       0.03858666
H        5.61447272      -0.00021579      29.23550506        0       0.50000000       0.00007377      -0.00032010      -0.03811279
