38
Lattice="8.421641763931781 0.0 0.0 4.2108208819658905 7.293355709136913 0.0 0.0 0.0 46.87624170604845" Properties=species:S:1:pos:R:3:tags:I:1:initial_magmoms:R:1:forces:R:3 charge=0 spin=0 energy=-194.41490885311924 free_energy=-194.41490885311924 stress="0.01022711768746376 5.3769959151850344e-08 -2.0113519738629293e-08 5.3769959151850344e-08 0.010227073915302753 5.576764383619093e-09 -2.0113519738629293e-08 5.576764383619093e-09 -0.0001115929990191944" pbc="T T T"
Pt      -0.00000011      -0.00000005      19.95723442        4       0.00000000       0.00010264      -0.00057708       0.01176095
Pt       2.80721395      -0.00000019      19.95723450        4       0.00000000      -0.00000243       0.00000221       0.01172857
Pt       5.61442786      -0.00000007      19.95723452        4       0.00000000       0.00096309      -0.00104670       0.01203610
Pt       1.40360721       2.43111839      19.95723434        4       0.00000000       0.00041044       0.00137184       0.01203220
Pt       4.21082082       2.43111837      19.95723444        4       0.00000000      -0.00054064       0.00021381       0.01174104
Pt       7.01803481       2.43111844      19.95723433        4       0.00000000      -0.00000219       0.00000790       0.01196903
Pt       2.80721415       4.86223733      19.95723415        4       0.00000000       0.00000110      -0.00001126       0.00978388
Pt       5.61442796       4.86223739      19.95723433        4       0.00000000      -0.00137366      -0.00032612       0.01203046
Pt       8.42164143       4.86223725      19.95723439        4       0.00000000       0.00044170       0.00036317       0.01174471
Pt       1.40360728       0.81037261      22.29206792        3       0.00000000       0.00163698       0.00086428      -0.03804133
Pt       4.21082128       0.81037249      22.29206789        3       0.00000000      -0.00008723      -0.00182359      -0.03803260
Pt       7.01803472       0.81037258      22.29206780        3       0.00000000      -0.00094767       0.00355410      -0.03788565
Pt       2.80721447       3.24149123      22.29206774        3       0.00000000      -0.00163117       0.00261691      -0.03539819
Pt       5.61442762       3.24149120      22.29206786        3       0.00000000       0.00357002      -0.00096463      -0.03772879
Pt       8.42164156       3.24149131      22.29206806        3       0.00000000      -0.00260386      -0.00263132      -0.03776495
Pt       4.21082090       5.67260998      22.29206740        3       0.00000000      -0.00145914      -0.00270955      -0.03535978
Pt       7.01803486       5.67261041      22.29206774        3       0.00000000      -0.00156525       0.00101336      -0.03789040
Pt       9.82524817       5.67261060      22.29206803        3       0.00000000       0.00308764       0.00008096      -0.03540216
Pt      -0.00000054       1.62074568      24.58417374        2       0.00000000       0.00647122      -0.00572321       0.04055468
Pt       2.80721436       1.62074546      24.58417392        2       0.00000000      -0.00216483       0.02625028      -0.00391633
Pt       5.61442782       1.62074536      24.58417379        2       0.00000000      -0.00833086      -0.00264060       0.04073072
Pt       1.40360636       4.05186439      24.58417387        2       0.00000000      -0.00539522      -0.00181750       0.03917328
Pt       4.21082089       4.05186396      24.58417387        2       0.00000000       0.00438877      -0.00368273       0.03923508
Pt       7.01803504       4.05186408      24.58417404        2       0.00000000       0.00173508       0.00843651       0.04024155
Pt       2.80721273       6.48298349      24.58417384        2       0.00000000       0.00106581       0.00571263       0.03952577
Pt       5.61442806       6.48298330      24.58417399        2       0.00000000      -0.02157858      -0.01519495      -0.00406372
Pt       8.42164222       6.48298344      24.58417375        2       0.00000000       0.02380159      -0.01134285      -0.00392900
Pt      -0.00211059       0.00116438      26.91746801        1       0.00000000       0.00101579       0.00108578       0.00075097
Pt       2.80718796      -0.00001081      26.90732373        1       0.00000000       0.00025141       0.00012386      -0.00251185
Pt       5.61571688      -0.00063691      26.91716392        1       0.00000000      -0.00071507       0.00117308       0.00052031
Pt       1.40350569       2.43281160      26.91722505        1       0.00000000      -0.00037057      -0.00176044       0.00084010
Pt       4.21289454       2.43267715      26.91758651        1       0.00000000       0.00044805      -0.00242010       0.00075061
Pt       7.01806234       2.43111542      26.91351627        1       0.00000000      -0.00025627      -0.00063001      -0.00332457
Pt       2.80721209       4.86225113      26.91182462        1       0.00000000       0.00000495       0.00052825       0.00182631
Pt       5.61323938       4.86118548      26.91724968        1       0.00000000       0.00111640       0.00056991       0.00085303
Pt       8.42168191       4.85951379      26.91752278        1       0.00000000      -0.00150290       0.00134598       0.00094395
O        2.80721306       0.00001243      30.22605623        0       0.50000000       0.00000795       0.00000142       0.03851389
H        2.80722018      -0.00001065      29.23549391        0       0.50000000       0.00000706      -0.00001369      -0.03803798
