38
Lattice="8.421641763931781 0.0 0.0 4.2108208819658905 7.293355709136913 0.0 0.0 0.0 46.87624170604845" Properties=species:S:1:pos:R:3:tags:I:1:initial_magmoms:R:1:forces:R:3 charge=0 spin=0 energy=-194.41480585629307 free_energy=-194.41480585629307 stress="0.010233872570097446 4.444432732952919e-08 5.011288273237824e-09 4.444432732952919e-08 0.010233859531581402 5.346959142116248e-07 5.011288273237824e-09 5.346959142116248e-07 -6.95153430569917e-05" pbc="T T T"
Pt      -0.00000011      -0.00000005      19.95723442        4       0.00000000       0.00001946      -0.00061506       0.01174469
Pt       2.80721395      -0.00000019      19.95723450        4       0.00000000      -0.00000160      -0.00000300       0.01178536
Pt       5.61442786      -0.00000007      19.95723452        4       0.00000000       0.00095371      -0.00102860       0.01199645
Pt       1.40360721       2.43111839      19.95723434        4       0.00000000       0.00042383       0.00134665       0.01200872
Pt       4.21082082       2.43111837      19.95723444        4       0.00000000      -0.00055096       0.00028895       0.01172327
Pt       7.01803481       2.43111844      19.95723433        4       0.00000000      -0.00000203       0.00000077       0.01206784
Pt       2.80721415       4.86223733      19.95723415        4       0.00000000      -0.00000133       0.00000161       0.00967656
Pt       5.61442796       4.86223739      19.95723433        4       0.00000000      -0.00137445      -0.00031931       0.01199736
Pt       8.42164143       4.86223725      19.95723439        4       0.00000000       0.00053220       0.00032738       0.01173220
Pt       1.40360728       0.81037261      22.29206792        3       0.00000000       0.00160069       0.00072966      -0.03810648
Pt       4.21082128       0.81037249      22.29206789        3       0.00000000      -0.00017484      -0.00173695      -0.03808962
Pt       7.01803472       0.81037258      22.29206780        3       0.00000000      -0.00114401       0.00365837      -0.03777046
Pt       2.80721447       3.24149123      22.29206774        3       0.00000000      -0.00166202       0.00268963      -0.03523410
Pt       5.61442762       3.24149120      22.29206786        3       0.00000000       0.00371476      -0.00080594      -0.03776634
Pt       8.42164156       3.24149131      22.29206806        3       0.00000000      -0.00256077      -0.00281351      -0.03778568
Pt       4.21082090       5.67260998      22.29206740        3       0.00000000      -0.00148249      -0.00276293      -0.03523563
Pt       7.01803486       5.67261041      22.29206774        3       0.00000000      -0.00143944       0.00097113      -0.03810053
Pt       9.82524817       5.67261060      22.29206803        3       0.00000000       0.00314335       0.00008169      -0.03524352
Pt      -0.00000054       1.62074568      24.58417374        2       0.00000000       0.00462875      -0.00414033       0.04309572
Pt       2.80721436       1.62074546      24.58417392        2       0.00000000      -0.00107887       0.02521641      -0.00299354
Pt       5.61442782       1.62074536      24.58417379        2       0.00000000      -0.00577252      -0.00220777       0.04309409
Pt       1.40360636       4.05186439      24.58417387        2       0.00000000      -0.00305031      -0.00023038       0.04316872
Pt       4.21082089       4.05186396      24.58417387        2       0.00000000       0.00169724      -0.00262804       0.04317752
Pt       7.01803504       4.05186408      24.58417404        2       0.00000000       0.00110846       0.00616698       0.04301307
Pt       2.80721273       6.48298349      24.58417384        2       0.00000000       0.00135542       0.00282201       0.04346389
Pt       5.61442806       6.48298330      24.58417399        2       0.00000000      -0.02143966      -0.01345694      -0.00286221
Pt       8.42164222       6.48298344      24.58417375        2       0.00000000       0.02255876      -0.01153099      -0.00284259
Pt      -0.00299551       0.00243782      26.91752801        1       0.00000000       0.00367418      -0.00456922       0.00082962
Pt       2.80721636      -0.00000962      26.90852479        1       0.00000000      -0.00004656       0.00002961      -0.01230552
Pt       5.61524158      -0.00157719      26.91698746        1       0.00000000       0.00199599       0.00376062       0.00190309
Pt       1.40458862       2.43250434      26.91683684        1       0.00000000      -0.00423010       0.00107245       0.00274412
Pt       4.21445921       2.43234493      26.91743530        1       0.00000000      -0.00589674       0.00059317       0.00157362
Pt       7.01804136       2.43123528      26.91572658        1       0.00000000       0.00001613      -0.00051609      -0.01400853
Pt       2.80721236       4.86213445      26.91445553        1       0.00000000       0.00000899       0.00043809      -0.01244023
Pt       5.61261047       4.86243686      26.91686743        1       0.00000000       0.00237550      -0.00488382       0.00272124
Pt       8.42102002       4.85856522      26.91740029        1       0.00000000       0.00210675       0.00402660       0.00151626
O        2.80720473       0.00000054      30.21780691        0       0.50000000      -0.00001658       0.00001978      -0.04236375
H        2.80722000       0.00001188      29.22496680        0       0.50000000       0.00001115       0.00000725       0.04811522
