38
Lattice="8.421641763931781 0.0 0.0 4.2108208819658905 7.293355709136913 0.0 0.0 0.0 46.87624170604845" Properties=species:S:1:pos:R:3:tags:I:1:initial_magmoms:R:1:forces:R:3 charge=0 spin=0 energy=-194.41490503842198 free_energy=-194.41490503842198 stress="0.010227145627140999 5.042206296934637e-08 2.3897289480601103e-08 5.042206296934637e-08 0.010227076709270477 1.1696796420324063e-08 2.3897289480601103e-08 1.1696796420324063e-08 -0.00011148461635457352" pbc="T T T"
Pt      -0.00000011      -0.00000005      19.95723442        4       0.00000000       0.00096224      -0.00104695       0.01203353
Pt       2.80721395      -0.00000019      19.95723450        4       0.00000000       0.00010269      -0.00057793       0.01176229
Pt       5.61442786      -0.00000007      19.95723452        4       0.00000000      -0.00000101       0.00000188       0.01172951
Pt       1.40360721       2.43111839      19.95723434        4       0.00000000      -0.00000202       0.00000893       0.01196967
Pt       4.21082082       2.43111837      19.95723444        4       0.00000000       0.00041354       0.00137082       0.01202272
Pt       7.01803481       2.43111844      19.95723433        4       0.00000000      -0.00054298       0.00021259       0.01175079
Pt       2.80721415       4.86223733      19.95723415        4       0.00000000       0.00043759       0.00036383       0.01175175
Pt       5.61442796       4.86223739      19.95723433        4       0.00000000       0.00000370      -0.00001131       0.00978286
Pt       8.42164143       4.86223725      19.95723439        4       0.00000000      -0.00137147      -0.00032478       0.01202427
Pt       1.40360728       0.81037261      22.29206792        3       0.00000000      -0.00095167       0.00355579      -0.03788023
Pt       4.21082128       0.81037249      22.29206789        3       0.00000000       0.00163901       0.00086619      -0.03803861
Pt       7.01803472       0.81037258      22.29206780        3       0.00000000      -0.00008593      -0.00182640      -0.03803316
Pt       2.80721447       3.24149123      22.29206774        3       0.00000000      -0.00261491      -0.00262881      -0.03776451
Pt       5.61442762       3.24149120      22.29206786        3       0.00000000      -0.00161839       0.00261734      -0.03541019
Pt       8.42164156       3.24149131      22.29206806        3       0.00000000       0.00356870      -0.00096919      -0.03773274
Pt       4.21082090       5.67260998      22.29206740        3       0.00000000       0.00307817       0.00008863      -0.03538090
Pt       7.01803486       5.67261041      22.29206774        3       0.00000000      -0.00146378      -0.00271949      -0.03537122
Pt       9.82524817       5.67261060      22.29206803        3       0.00000000      -0.00155116       0.00100551      -0.03789520
Pt      -0.00000054       1.62074568      24.58417374        2       0.00000000      -0.00832362      -0.00264436       0.04073558
Pt       2.80721436       1.62074546      24.58417392        2       0.00000000       0.00646717      -0.00571482       0.04056412
Pt       5.61442782       1.62074536      24.58417379        2       0.00000000      -0.00216691       0.02626147      -0.00392404
Pt       1.40360636       4.05186439      24.58417387        2       0.00000000       0.00174345       0.00842976       0.04023522
Pt       4.21082089       4.05186396      24.58417387        2       0.00000000      -0.00539605      -0.00181216       0.03918098
Pt       7.01803504       4.05186408      24.58417404        2       0.00000000       0.00437346      -0.00368374       0.03924082
Pt       2.80721273       6.48298349      24.58417384        2       0.00000000       0.02380389      -0.01133083      -0.00390548
Pt       5.61442806       6.48298330      24.58417399        2       0.00000000       0.00104459       0.00571890       0.03952663
Pt       8.42164222       6.48298344      24.58417375        2       0.00000000      -0.02156407      -0.01518167      -0.00403745
Pt       0.00128902      -0.00063332      26.91716427        1       0.00000000      -0.00072183       0.00117824       0.00052076
Pt       2.80510336       0.00116551      26.91746726        1       0.00000000       0.00101024       0.00109937       0.00075615
Pt       5.61440149      -0.00000522      26.90733587        1       0.00000000       0.00024779       0.00013712      -0.00257166
Pt       1.40363535       2.43112020      26.91351835        1       0.00000000      -0.00025567      -0.00061778      -0.00333841
Pt       4.21071914       2.43281475      26.91722590        1       0.00000000      -0.00036952      -0.00175325       0.00083683
Pt       7.02010697       2.43268191      26.91758576        1       0.00000000       0.00044888      -0.00242377       0.00076221
Pt       2.80725081       4.85951797      26.91752054        1       0.00000000      -0.00149651       0.00135049       0.00094565
Pt       5.61442130       4.86226056      26.91182938        1       0.00000000       0.00003599       0.00051855       0.00180644
Pt       8.42045021       4.86118923      26.91724824        1       0.00000000       0.00113048       0.00057341       0.00085683
O        5.61441642       0.00014309      30.22604369        0       0.50000000      -0.00005921       0.00021968       0.03830744
H        5.61446242      -0.00021432      29.23547544        0       0.50000000       0.00004505      -0.00031136      -0.03781923
