38
Lattice="8.421641763931781 0.0 0.0 4.2108208819658905 7.293355709136913 0.0 0.0 0.0 46.87624170604845" Properties=species:S:1:pos:R:3:tags:I:1:initial_magmoms:R:1:forces:R:3 charge=0 spin=0 energy=-194.41491076046788 free_energy=-194.41491076046788 stress="0.010227087885141373 6.464606627787362e-08 -1.4657487668046087e-08 6.464606627787362e-08 0.010227067396044731 -2.983609093121231e-08 -1.4657487668046087e-08 -2.983609093121231e-08 -0.00011157626431668177" pbc="T T T"
Pt      -0.00000011      -0.00000005      19.95723442        4       0.00000000       0.00010275      -0.00057722       0.01176046
Pt       2.80721395      -0.00000019      19.95723450        4       0.00000000      -0.00000260       0.00000266       0.01172893
Pt       5.61442786      -0.00000007      19.95723452        4       0.00000000       0.00096323      -0.00104665       0.01203604
Pt       1.40360721       2.43111839      19.95723434        4       0.00000000       0.00041097       0.00137162       0.01203232
Pt       4.21082082       2.43111837      19.95723444        4       0.00000000      -0.00054087       0.00021351       0.01174140
Pt       7.01803481       2.43111844      19.95723433        4       0.00000000      -0.00000224       0.00000754       0.01196952
Pt       2.80721415       4.86223733      19.95723415        4       0.00000000       0.00000137      -0.00001132       0.00978299
Pt       5.61442796       4.86223739      19.95723433        4       0.00000000      -0.00137405      -0.00032580       0.01203046
Pt       8.42164143       4.86223725      19.95723439        4       0.00000000       0.00044171       0.00036386       0.01174490
Pt       1.40360728       0.81037261      22.29206792        3       0.00000000       0.00163759       0.00086510      -0.03804005
Pt       4.21082128       0.81037249      22.29206789        3       0.00000000      -0.00008679      -0.00182396      -0.03802959
Pt       7.01803472       0.81037258      22.29206780        3       0.00000000      -0.00094869       0.00355476      -0.03788649
Pt       2.80721447       3.24149123      22.29206774        3       0.00000000      -0.00163069       0.00261793      -0.03539564
Pt       5.61442762       3.24149120      22.29206786        3       0.00000000       0.00357044      -0.00096485      -0.03772923
Pt       8.42164156       3.24149131      22.29206806        3       0.00000000      -0.00260462      -0.00263247      -0.03776674
Pt       4.21082090       5.67260998      22.29206740        3       0.00000000      -0.00145985      -0.00271092      -0.03535972
Pt       7.01803486       5.67261041      22.29206774        3       0.00000000      -0.00156485       0.00101290      -0.03789101
Pt       9.82524817       5.67261060      22.29206803        3       0.00000000       0.00308768       0.00008074      -0.03540267
Pt      -0.00000054       1.62074568      24.58417374        2       0.00000000       0.00646686      -0.00571480       0.04054689
Pt       2.80721436       1.62074546      24.58417392        2       0.00000000      -0.00215965       0.02624247      -0.00392348
Pt       5.61442782       1.62074536      24.58417379        2       0.00000000      -0.00833003      -0.00263718       0.04073950
Pt       1.40360636       4.05186439      24.58417387        2       0.00000000      -0.00539312      -0.00181266       0.03919627
Pt       4.21082089       4.05186396      24.58417387        2       0.00000000       0.00438246      -0.00368363       0.03922775
Pt       7.01803504       4.05186408      24.58417404        2       0.00000000       0.00173653       0.00843135       0.04027389
Pt       2.80721273       6.48298349      24.58417384        2       0.00000000       0.00105811       0.00570382       0.03951777
Pt       5.61442806       6.48298330      24.58417399        2       0.00000000      -0.02156559      -0.01519646      -0.00409094
Pt       8.42164222       6.48298344      24.58417375        2       0.00000000       0.02379225      -0.01133739      -0.00389973
Pt      -0.00210848       0.00116057      26.91746131        1       0.00000000       0.00099156       0.00110728       0.00079328
Pt       2.80718041      -0.00000718      26.90733066        1       0.00000000       0.00031682       0.00009351      -0.00258587
Pt       5.61572118      -0.00063560      26.91716439        1       0.00000000      -0.00075666       0.00116034       0.00051792
Pt       1.40350781       2.43280615      26.91722383        1       0.00000000      -0.00038846      -0.00170640       0.00085119
Pt       4.21289207       2.43267952      26.91758442        1       0.00000000       0.00047361      -0.00244069       0.00076013
Pt       7.01806437       2.43110677      26.91352359        1       0.00000000      -0.00027820      -0.00057152      -0.00337090
Pt       2.80721698       4.86225400      26.91183120        1       0.00000000      -0.00004071       0.00048620       0.00179003
Pt       5.61323230       4.86118974      26.91724773        1       0.00000000       0.00118228       0.00052051       0.00086480
Pt       8.42168274       4.85951416      26.91752433        1       0.00000000      -0.00150738       0.00134067       0.00092116
O        2.80719319       0.00001028      30.22597696        0       0.50000000      -0.00002557       0.00002611       0.03839718
H        2.80724206      -0.00000508      29.23540802        0       0.50000000       0.00004437      -0.00000903      -0.03785265
