38
Lattice="8.421641763931781 0.0 0.0 4.2108208819658905 7.293355709136913 0.0 0.0 0.0 46.87624170604845" Properties=species:S:1:pos:R:3:tags:I:1:initial_magmoms:R:1:forces:R:3 charge=0 spin=0 energy=-194.41480967099034 free_energy=-194.41480967099034 stress="0.010233884677290916 5.1089021013694946e-08 1.111951419829893e-08 5.1089021013694946e-08 0.010233864188194275 5.605330102298467e-07 1.111951419829893e-08 5.605330102298467e-07 -6.958012090763077e-05" pbc="T T T"
Pt      -0.00000011      -0.00000005      19.95723442        4       0.00000000       0.00095216      -0.00102814       0.01199433
Pt       2.80721395      -0.00000019      19.95723450        4       0.00000000       0.00001944      -0.00061568       0.01174666
Pt       5.61442786      -0.00000007      19.95723452        4       0.00000000      -0.00000003      -0.00000269       0.01178625
Pt       1.40360721       2.43111839      19.95723434        4       0.00000000      -0.00000226       0.00000228       0.01206827
Pt       4.21082082       2.43111837      19.95723444        4       0.00000000       0.00042709       0.00134599       0.01199910
Pt       7.01803481       2.43111844      19.95723433        4       0.00000000      -0.00055394       0.00028779       0.01173271
Pt       2.80721415       4.86223733      19.95723415        4       0.00000000       0.00052757       0.00032741       0.01173964
Pt       5.61442796       4.86223739      19.95723433        4       0.00000000       0.00000116       0.00000038       0.00967608
Pt       8.42164143       4.86223725      19.95723439        4       0.00000000      -0.00137219      -0.00031871       0.01199121
Pt       1.40360728       0.81037261      22.29206792        3       0.00000000      -0.00114676       0.00365843      -0.03776795
Pt       4.21082128       0.81037249      22.29206789        3       0.00000000       0.00160067       0.00073124      -0.03810627
Pt       7.01803472       0.81037258      22.29206780        3       0.00000000      -0.00017303      -0.00173965      -0.03809203
Pt       2.80721447       3.24149123      22.29206774        3       0.00000000      -0.00257351      -0.00281026      -0.03778357
Pt       5.61442762       3.24149120      22.29206786        3       0.00000000      -0.00165117       0.00268803      -0.03523622
Pt       8.42164156       3.24149131      22.29206806        3       0.00000000       0.00371385      -0.00080949      -0.03776753
Pt       4.21082090       5.67260998      22.29206740        3       0.00000000       0.00313509       0.00009189      -0.03522724
Pt       7.01803486       5.67261041      22.29206774        3       0.00000000      -0.00148925      -0.00276917      -0.03524942
Pt       9.82524817       5.67261060      22.29206803        3       0.00000000      -0.00142520       0.00096598      -0.03810279
Pt      -0.00000054       1.62074568      24.58417374        2       0.00000000      -0.00576510      -0.00221006       0.04309322
Pt       2.80721436       1.62074546      24.58417392        2       0.00000000       0.00462174      -0.00413506       0.04310040
Pt       5.61442782       1.62074536      24.58417379        2       0.00000000      -0.00107737       0.02521793      -0.00299182
Pt       1.40360636       4.05186439      24.58417387        2       0.00000000       0.00111937       0.00615864       0.04301260
Pt       4.21082089       4.05186396      24.58417387        2       0.00000000      -0.00305601      -0.00022022       0.04317045
Pt       7.01803504       4.05186408      24.58417404        2       0.00000000       0.00169542      -0.00262908       0.04317997
Pt       2.80721273       6.48298349      24.58417384        2       0.00000000       0.02257571      -0.01153331      -0.00285045
Pt       5.61442806       6.48298330      24.58417399        2       0.00000000       0.00134067       0.00282790       0.04346320
Pt       8.42164222       6.48298344      24.58417375        2       0.00000000      -0.02144036      -0.01345351      -0.00284976
Pt       0.00081349      -0.00157622      26.91698487        1       0.00000000       0.00200312       0.00376394       0.00191308
Pt       2.80422102       0.00243883      26.91752971        1       0.00000000       0.00366112      -0.00456437       0.00082277
Pt       5.61443013      -0.00000632      26.90852894        1       0.00000000      -0.00004154       0.00002633      -0.01232550
Pt       1.40361489       2.43123593      26.91572705        1       0.00000000       0.00000884      -0.00050657      -0.01402498
Pt       4.21180311       2.43250538      26.91683738        1       0.00000000      -0.00423378       0.00107682       0.00274730
Pt       7.02167297       2.43234725      26.91743533        1       0.00000000      -0.00589189       0.00059045       0.00157285
Pt       2.80659180       4.85856805      26.91740102        1       0.00000000       0.00211286       0.00401925       0.00151316
Pt       5.61442696       4.86213536      26.91445476        1       0.00000000       0.00001264       0.00045061      -0.01244551
Pt       8.41982596       4.86243913      26.91686764        1       0.00000000       0.00237406      -0.00488986       0.00272450
O        5.61441514      -0.00000470      30.21780866        0       0.50000000      -0.00002094       0.00000196      -0.04219005
H        5.61443142       0.00000149      29.22497034        0       0.50000000       0.00001129       0.00000250       0.04796340
