38
Lattice="8.421641763931781 0.0 0.0 4.2108208819658905 7.293355709136913 0.0 0.0 0.0 46.87624170604845" Properties=species:S:1:pos:R:3:tags:I:1:initial_magmoms:R:1:forces:R:3 charge=0 spin=0 energy=-194.41480585629307 free_energy=-194.41480585629307 stress="0.010233847424387932 3.9672080731634196e-08 3.612385723883449e-09 3.9672080731634196e-08 0.010233900509774685 5.880686444470484e-07 3.612385723883449e-09 5.880686444470484e-07 -6.953808042453602e-05" pbc="T T T"
Pt      -0.00000011      -0.00000005      19.95723442        4       0.00000000       0.00001997      -0.00061457       0.01174503
Pt       2.80721395      -0.00000019      19.95723450        4       0.00000000      -0.00000142      -0.00000293       0.01178574
Pt       5.61442786      -0.00000007      19.95723452        4       0.00000000       0.00095328      -0.00102874       0.01199668
Pt       1.40360721       2.43111839      19.95723434        4       0.00000000       0.00042427       0.00134626       0.01200841
Pt       4.21082082       2.43111837      19.95723444        4       0.00000000      -0.00055099       0.00028879       0.01172329
Pt       7.01803481       2.43111844      19.95723433        4       0.00000000      -0.00000193       0.00000075       0.01206778
Pt       2.80721415       4.86223733      19.95723415        4       0.00000000      -0.00000147       0.00000143       0.00967633
Pt       5.61442796       4.86223739      19.95723433        4       0.00000000      -0.00137442      -0.00031891       0.01199742
Pt       8.42164143       4.86223725      19.95723439        4       0.00000000       0.00053198       0.00032760       0.01173213
Pt       1.40360728       0.81037261      22.29206792        3       0.00000000       0.00159944       0.00073001      -0.03810129
Pt       4.21082128       0.81037249      22.29206789        3       0.00000000      -0.00017382      -0.00173674      -0.03808492
Pt       7.01803472       0.81037258      22.29206780        3       0.00000000      -0.00114322       0.00365721      -0.03777329
Pt       2.80721447       3.24149123      22.29206774        3       0.00000000      -0.00166281       0.00269138      -0.03523785
Pt       5.61442762       3.24149120      22.29206786        3       0.00000000       0.00371497      -0.00080595      -0.03776707
Pt       8.42164156       3.24149131      22.29206806        3       0.00000000      -0.00255991      -0.00281371      -0.03778883
Pt       4.21082090       5.67260998      22.29206740        3       0.00000000      -0.00148387      -0.00276343      -0.03523763
Pt       7.01803486       5.67261041      22.29206774        3       0.00000000      -0.00144016       0.00096902      -0.03809426
Pt       9.82524817       5.67261060      22.29206803        3       0.00000000       0.00314613       0.00008085      -0.03524819
Pt      -0.00000054       1.62074568      24.58417374        2       0.00000000       0.00464846      -0.00414967       0.04307152
Pt       2.80721436       1.62074546      24.58417392        2       0.00000000      -0.00107773       0.02519051      -0.00296423
Pt       5.61442782       1.62074536      24.58417379        2       0.00000000      -0.00579295      -0.00221444       0.04307160
Pt       1.40360636       4.05186439      24.58417387        2       0.00000000      -0.00305378      -0.00023135       0.04316899
Pt       4.21082089       4.05186396      24.58417387        2       0.00000000       0.00170028      -0.00262801       0.04318422
Pt       7.01803504       4.05186408      24.58417404        2       0.00000000       0.00110469       0.00618958       0.04298950
Pt       2.80721273       6.48298349      24.58417384        2       0.00000000       0.00135760       0.00282574       0.04346236
Pt       5.61442806       6.48298330      24.58417399        2       0.00000000      -0.02141529      -0.01344413      -0.00282741
Pt       8.42164222       6.48298344      24.58417375        2       0.00000000       0.02253311      -0.01151768      -0.00281952
Pt      -0.00299301       0.00243787      26.91752770        1       0.00000000       0.00366131      -0.00457199       0.00082890
Pt       2.80721566      -0.00000856      26.90854631        1       0.00000000      -0.00004532       0.00002847      -0.01240314
Pt       5.61523902      -0.00157598      26.91698687        1       0.00000000       0.00199719       0.00375710       0.00191036
Pt       1.40458881       2.43250315      26.91683677        1       0.00000000      -0.00422659       0.00108107       0.00274380
Pt       4.21445650       2.43234471      26.91743581        1       0.00000000      -0.00589862       0.00060080       0.00156310
Pt       7.01804009       2.43123588      26.91570757        1       0.00000000       0.00001470      -0.00048081      -0.01392712
Pt       2.80720966       4.86213556      26.91445380        1       0.00000000       0.00001631       0.00043950      -0.01243801
Pt       5.61260930       4.86243999      26.91686950        1       0.00000000       0.00236796      -0.00488692       0.00271214
Pt       8.42101654       4.85856867      26.91740027        1       0.00000000       0.00211881       0.00402337       0.00151408
O        2.80722081      -0.00000155      30.21782463        0       0.50000000      -0.00000359      -0.00002571      -0.04227452
H        2.80721613       0.00000528      29.22498470        0       0.50000000      -0.00000280       0.00000634       0.04803405
