38
Lattice="8.421641763931781 0.0 0.0 4.2108208819658905 7.293355709136913 0.0 0.0 0.0 46.87624170604845" Properties=species:S:1:pos:R:3:tags:I:1:initial_magmoms:R:1:forces:R:3 charge=0 spin=0 energy=-194.41438051754795 free_energy=-194.41438051754795 stress="0.01024344190955162 3.9358162950975384e-08 1.562066387350569e-08 3.9358162950975384e-08 0.010243434458971024 -6.994870904719619e-09 1.562066387350569e-08 -6.994870904719619e-09 -6.94008995196782e-05" pbc="T T T"
Pt      -0.00000011      -0.00000005      19.95723442        4       0.00000000       0.00108393      -0.00102779       0.01196986
Pt       2.80721395      -0.00000019      19.95723450        4       0.00000000       0.00007420      -0.00063877       0.01171719
Pt       5.61442786      -0.00000007      19.95723452        4       0.00000000       0.00000068       0.00000245       0.01165930
Pt       1.40360721       2.43111839      19.95723434        4       0.00000000      -0.00000188       0.00000308       0.01213510
Pt       4.21082082       2.43111837      19.95723444        4       0.00000000       0.00034807       0.00146425       0.01196986
Pt       7.01803481       2.43111844      19.95723433        4       0.00000000      -0.00059285       0.00025821       0.01170385
Pt       2.80721415       4.86223733      19.95723415        4       0.00000000       0.00051415       0.00037989       0.01170887
Pt       5.61442796       4.86223739      19.95723433        4       0.00000000       0.00000153      -0.00000591       0.00949541
Pt       8.42164143       4.86223725      19.95723439        4       0.00000000      -0.00142791      -0.00043682       0.01196432
Pt       1.40360728       0.81037261      22.29206792        3       0.00000000      -0.00115530       0.00399197      -0.03782436
Pt       4.21082128       0.81037249      22.29206789        3       0.00000000       0.00161480       0.00083516      -0.03884654
Pt       7.01803472       0.81037258      22.29206780        3       0.00000000      -0.00009774      -0.00179278      -0.03883171
Pt       2.80721447       3.24149123      22.29206774        3       0.00000000      -0.00287469      -0.00300566      -0.03777810
Pt       5.61442762       3.24149120      22.29206786        3       0.00000000      -0.00165642       0.00235091      -0.03410965
Pt       8.42164156       3.24149131      22.29206806        3       0.00000000       0.00402946      -0.00099032      -0.03775686
Pt       4.21082090       5.67260998      22.29206740        3       0.00000000       0.00286049       0.00026123      -0.03409493
Pt       7.01803486       5.67261041      22.29206774        3       0.00000000      -0.00120348      -0.00261644      -0.03410429
Pt       9.82524817       5.67261060      22.29206803        3       0.00000000      -0.00151618       0.00096388      -0.03878196
Pt      -0.00000054       1.62074568      24.58417374        2       0.00000000      -0.00342833       0.00034578       0.05152541
Pt       2.80721436       1.62074546      24.58417392        2       0.00000000       0.00138677      -0.00312538       0.05156283
Pt       5.61442782       1.62074536      24.58417379        2       0.00000000      -0.00188805       0.03257916      -0.01069889
Pt       1.40360636       4.05186439      24.58417387        2       0.00000000       0.00200134       0.00278685       0.05150808
Pt       4.21082089       4.05186396      24.58417387        2       0.00000000       0.00002168       0.00138681       0.05377728
Pt       7.01803504       4.05186408      24.58417404        2       0.00000000      -0.00117477      -0.00066312       0.05378788
Pt       2.80721273       6.48298349      24.58417384        2       0.00000000       0.02920837      -0.01467691      -0.01070099
Pt       5.61442806       6.48298330      24.58417399        2       0.00000000       0.00116510      -0.00065694       0.05384416
Pt       8.42164222       6.48298344      24.58417375        2       0.00000000      -0.02729061      -0.01797249      -0.01066076
Pt       0.00026429      -0.00067636      26.91773665        1       0.00000000       0.01228355       0.00126399      -0.00135148
Pt       2.80536725       0.00121708      26.91812567        1       0.00000000      -0.00894299       0.00087534      -0.00164904
Pt       5.61442578      -0.00000614      26.90409072        1       0.00000000      -0.00003060       0.00004159       0.00073475
Pt       1.40361169       2.43113131      26.91920545        1       0.00000000       0.00002018      -0.00018905      -0.03344770
Pt       4.21129365       2.43175042      26.91773053        1       0.00000000      -0.00717776       0.01051381      -0.00105831
Pt       7.02003347       2.43214772      26.91814291        1       0.00000000       0.00517741       0.00800879      -0.00133414
Pt       2.80706727       4.85999160      26.91811531        1       0.00000000       0.00373930      -0.00886605      -0.00139436
Pt       5.61442544       4.86223461      26.91888114        1       0.00000000       0.00001699       0.00013778      -0.03533164
Pt       8.42090178       4.86228820      26.91776966        1       0.00000000      -0.00507558      -0.01179356      -0.00111499
O        5.61442465      -0.00000084      30.19492263        0       0.50000000      -0.00001109      -0.00000076       0.00716877
H        5.61442375       0.00000550      29.20276650        0       0.50000000      -0.00000153       0.00000797       0.01263728
