38
Lattice="8.421641763931781 0.0 0.0 4.2108208819658905 7.293355709136913 0.0 0.0 0.0 46.87624170604845" Properties=species:S:1:pos:R:3:tags:I:1:initial_magmoms:R:1:forces:R:3 charge=0 spin=0 energy=-194.4148192077335 free_energy=-194.4148192077335 stress="0.010233822278678417 3.256479530477918e-08 2.5484728993774297e-08 3.256479530477918e-08 0.010233859531581402 5.822774937769282e-07 2.5484728993774297e-08 5.822774937769282e-07 -6.960813334444538e-05" pbc="T T T"
Pt      -0.00000011      -0.00000005      19.95723442        4       0.00000000       0.00095295      -0.00102906       0.01199456
Pt       2.80721395      -0.00000019      19.95723450        4       0.00000000       0.00002068      -0.00061725       0.01174634
Pt       5.61442786      -0.00000007      19.95723452        4       0.00000000       0.00000061      -0.00000219       0.01178654
Pt       1.40360721       2.43111839      19.95723434        4       0.00000000      -0.00000344       0.00000319       0.01206846
Pt       4.21082082       2.43111837      19.95723444        4       0.00000000       0.00042416       0.00134653       0.01199880
Pt       7.01803481       2.43111844      19.95723433        4       0.00000000      -0.00055548       0.00028846       0.01173341
Pt       2.80721415       4.86223733      19.95723415        4       0.00000000       0.00052849       0.00032838       0.01173977
Pt       5.61442796       4.86223739      19.95723433        4       0.00000000       0.00000211      -0.00000079       0.00967552
Pt       8.42164143       4.86223725      19.95723439        4       0.00000000      -0.00137081      -0.00031778       0.01199161
Pt       1.40360728       0.81037261      22.29206792        3       0.00000000      -0.00114525       0.00365668      -0.03777311
Pt       4.21082128       0.81037249      22.29206789        3       0.00000000       0.00159894       0.00073312      -0.03810697
Pt       7.01803472       0.81037258      22.29206780        3       0.00000000      -0.00017183      -0.00173655      -0.03809347
Pt       2.80721447       3.24149123      22.29206774        3       0.00000000      -0.00257627      -0.00280945      -0.03778213
Pt       5.61442762       3.24149120      22.29206786        3       0.00000000      -0.00165548       0.00268633      -0.03524509
Pt       8.42164156       3.24149131      22.29206806        3       0.00000000       0.00370947      -0.00081138      -0.03776398
Pt       4.21082090       5.67260998      22.29206740        3       0.00000000       0.00314225       0.00009245      -0.03522941
Pt       7.01803486       5.67261041      22.29206774        3       0.00000000      -0.00148765      -0.00277297      -0.03524871
Pt       9.82524817       5.67261060      22.29206803        3       0.00000000      -0.00142220       0.00097006      -0.03809166
Pt      -0.00000054       1.62074568      24.58417374        2       0.00000000      -0.00579309      -0.00220365       0.04304566
Pt       2.80721436       1.62074546      24.58417392        2       0.00000000       0.00464940      -0.00413940       0.04305801
Pt       5.61442782       1.62074536      24.58417379        2       0.00000000      -0.00107208       0.02519489      -0.00294581
Pt       1.40360636       4.05186439      24.58417387        2       0.00000000       0.00113859       0.00617764       0.04300966
Pt       4.21082089       4.05186396      24.58417387        2       0.00000000      -0.00305641      -0.00021605       0.04316250
Pt       7.01803504       4.05186408      24.58417404        2       0.00000000       0.00174417      -0.00259820       0.04317284
Pt       2.80721273       6.48298349      24.58417384        2       0.00000000       0.02249613      -0.01155461      -0.00280852
Pt       5.61442806       6.48298330      24.58417399        2       0.00000000       0.00131689       0.00282725       0.04339958
Pt       8.42164222       6.48298344      24.58417375        2       0.00000000      -0.02141372      -0.01346737      -0.00279411
Pt       0.00076600      -0.00157913      26.91696559        1       0.00000000       0.00214383       0.00376740       0.00199376
Pt       2.80419296       0.00242472      26.91751763        1       0.00000000       0.00380263      -0.00453227       0.00087672
Pt       5.61440368       0.00000547      26.90855348        1       0.00000000       0.00005423      -0.00002448      -0.01246263
Pt       1.40361477       2.43121070      26.91570966        1       0.00000000       0.00002519      -0.00038801      -0.01393983
Pt       4.21180041       2.43250908      26.91683828        1       0.00000000      -0.00419960       0.00103881       0.00274692
Pt       7.02167559       2.43238061      26.91743325        1       0.00000000      -0.00592719       0.00043517       0.00157754
Pt       2.80661242       4.85854876      26.91741350        1       0.00000000       0.00202924       0.00412531       0.00145922
Pt       5.61445209       4.86214660      26.91444315        1       0.00000000      -0.00008529       0.00039554      -0.01239992
Pt       8.41987818       4.86243198      26.91688595        1       0.00000000       0.00217626      -0.00482648       0.00265167
O        5.61441008       0.00000651      30.21781378        0       0.50000000      -0.00004488      -0.00001452      -0.04222719
H        5.61443575       0.00000115      29.22497313        0       0.50000000       0.00002434      -0.00000466       0.04802336
