38
Lattice="8.421641763931781 0.0 0.0 4.2108208819658905 7.293355709136913 0.0 0.0 0.0 46.87624170604845" Properties=species:S:1:pos:R:3:tags:I:1:initial_magmoms:R:1:forces:R:3 charge=0 spin=0 energy=-194.4143767028507 free_energy=-194.4143767028507 stress="0.010243508033454418 3.6815542614476726e-08 -5.000651448483495e-09 3.6815542614476726e-08 0.010243464261293411 1.2356152545578425e-08 -5.000651448483495e-09 1.2356152545578425e-08 -6.926211790414527e-05" pbc="T T T"
Pt      -0.00000011      -0.00000005      19.95723442        4       0.00000000       0.00007459      -0.00063806       0.01171555
Pt       2.80721395      -0.00000019      19.95723450        4       0.00000000      -0.00000071       0.00000223       0.01165868
Pt       5.61442786      -0.00000007      19.95723452        4       0.00000000       0.00108522      -0.00102787       0.01197242
Pt       1.40360721       2.43111839      19.95723434        4       0.00000000       0.00034508       0.00146478       0.01197965
Pt       4.21082082       2.43111837      19.95723444        4       0.00000000      -0.00058981       0.00025907       0.01169465
Pt       7.01803481       2.43111844      19.95723433        4       0.00000000      -0.00000187       0.00000187       0.01213491
Pt       2.80721415       4.86223733      19.95723415        4       0.00000000      -0.00000083      -0.00000520       0.00949624
Pt       5.61442796       4.86223739      19.95723433        4       0.00000000      -0.00142966      -0.00043759       0.01197043
Pt       8.42164143       4.86223725      19.95723439        4       0.00000000       0.00051859       0.00037979       0.01170177
Pt       1.40360728       0.81037261      22.29206792        3       0.00000000       0.00161377       0.00083417      -0.03884551
Pt       4.21082128       0.81037249      22.29206789        3       0.00000000      -0.00009858      -0.00179060      -0.03882840
Pt       7.01803472       0.81037258      22.29206780        3       0.00000000      -0.00115352       0.00399117      -0.03782530
Pt       2.80721447       3.24149123      22.29206774        3       0.00000000      -0.00166894       0.00235285      -0.03410805
Pt       5.61442762       3.24149120      22.29206786        3       0.00000000       0.00402988      -0.00098727      -0.03775597
Pt       8.42164156       3.24149131      22.29206806        3       0.00000000      -0.00286264      -0.00300924      -0.03778012
Pt       4.21082090       5.67260998      22.29206740        3       0.00000000      -0.00119793      -0.00261088      -0.03409129
Pt       7.01803486       5.67261041      22.29206774        3       0.00000000      -0.00153032       0.00096831      -0.03877797
Pt       9.82524817       5.67261060      22.29206803        3       0.00000000       0.00286896       0.00024992      -0.03411407
Pt      -0.00000054       1.62074568      24.58417374        2       0.00000000       0.00138821      -0.00312970       0.05157034
Pt       2.80721436       1.62074546      24.58417392        2       0.00000000      -0.00189019       0.03257028      -0.01069763
Pt       5.61442782       1.62074536      24.58417379        2       0.00000000      -0.00343027       0.00035481       0.05153678
Pt       1.40360636       4.05186439      24.58417387        2       0.00000000       0.00002870       0.00137937       0.05378963
Pt       4.21082089       4.05186396      24.58417387        2       0.00000000      -0.00117445      -0.00066079       0.05379325
Pt       7.01803504       4.05186408      24.58417404        2       0.00000000       0.00199298       0.00278816       0.05151685
Pt       2.80721273       6.48298349      24.58417384        2       0.00000000       0.00118531      -0.00066279       0.05385903
Pt       5.61442806       6.48298330      24.58417399        2       0.00000000      -0.02728322      -0.01796666      -0.01066504
Pt       8.42164222       6.48298344      24.58417375        2       0.00000000       0.02918135      -0.01466889      -0.01068955
Pt      -0.00184561       0.00121706      26.91812535        1       0.00000000      -0.00895977       0.00087527      -0.00165061
Pt       2.80721235      -0.00000612      26.90409567        1       0.00000000      -0.00003157       0.00004196       0.00069822
Pt       5.61469046      -0.00067642      26.91773841        1       0.00000000       0.01229795       0.00126428      -0.00135434
Pt       1.40407897       2.43174898      26.91772990        1       0.00000000      -0.00717955       0.01052858      -0.00105914
Pt       4.21281816       2.43214588      26.91814274        1       0.00000000       0.00518183       0.00802250      -0.00133420
Pt       7.01803877       2.43113178      26.91920909        1       0.00000000       0.00001338      -0.00019615      -0.03346161
Pt       2.80721049       4.86223291      26.91888496        1       0.00000000       0.00001254       0.00016382      -0.03534855
Pt       5.61368837       4.86229007      26.91776864        1       0.00000000      -0.00508209      -0.01180988      -0.00110765
Pt       8.42149360       4.85999378      26.91811605        1       0.00000000       0.00374391      -0.00888432      -0.00139302
O        2.80721766      -0.00000213      30.19489960        0       0.50000000       0.00001322      -0.00001703       0.00695096
H        2.80720805       0.00000566      29.20273773        0       0.50000000      -0.00000966       0.00000975       0.01284831
