38
Lattice="8.421641763931781 0.0 0.0 4.2108208819658905 7.293355709136913 0.0 0.0 0.0 46.87624170604845" Properties=species:S:1:pos:R:3:tags:I:1:initial_magmoms:R:1:forces:R:3 charge=0 spin=0 energy=-194.41481539303624 free_energy=-194.41481539303624 stress="0.010233839973807335 4.0057798855741567e-08 -1.252792358741317e-08 4.0057798855741567e-08 0.010233827866613865 5.588867679762188e-07 -1.252792358741317e-08 5.588867679762188e-07 -6.958813173696399e-05" pbc="T T T"
Pt      -0.00000011      -0.00000005      19.95723442        4       0.00000000       0.00001947      -0.00061480       0.01174492
Pt       2.80721395      -0.00000019      19.95723450        4       0.00000000      -0.00000139      -0.00000290       0.01178574
Pt       5.61442786      -0.00000007      19.95723452        4       0.00000000       0.00095323      -0.00102840       0.01199702
Pt       1.40360721       2.43111839      19.95723434        4       0.00000000       0.00042364       0.00134662       0.01200862
Pt       4.21082082       2.43111837      19.95723444        4       0.00000000      -0.00055070       0.00028891       0.01172329
Pt       7.01803481       2.43111844      19.95723433        4       0.00000000      -0.00000185       0.00000092       0.01206757
Pt       2.80721415       4.86223733      19.95723415        4       0.00000000      -0.00000132       0.00000103       0.00967680
Pt       5.61442796       4.86223739      19.95723433        4       0.00000000      -0.00137424      -0.00031963       0.01199732
Pt       8.42164143       4.86223725      19.95723439        4       0.00000000       0.00053186       0.00032701       0.01173197
Pt       1.40360728       0.81037261      22.29206792        3       0.00000000       0.00160057       0.00072855      -0.03810721
Pt       4.21082128       0.81037249      22.29206789        3       0.00000000      -0.00017459      -0.00173761      -0.03808998
Pt       7.01803472       0.81037258      22.29206780        3       0.00000000      -0.00114373       0.00365735      -0.03776962
Pt       2.80721447       3.24149123      22.29206774        3       0.00000000      -0.00166228       0.00268958      -0.03523441
Pt       5.61442762       3.24149120      22.29206786        3       0.00000000       0.00371525      -0.00080602      -0.03776671
Pt       8.42164156       3.24149131      22.29206806        3       0.00000000      -0.00256098      -0.00281352      -0.03778597
Pt       4.21082090       5.67260998      22.29206740        3       0.00000000      -0.00148188      -0.00276276      -0.03523474
Pt       7.01803486       5.67261041      22.29206774        3       0.00000000      -0.00143996       0.00097104      -0.03810002
Pt       9.82524817       5.67261060      22.29206803        3       0.00000000       0.00314370       0.00008165      -0.03524470
Pt      -0.00000054       1.62074568      24.58417374        2       0.00000000       0.00462766      -0.00413826       0.04309882
Pt       2.80721436       1.62074546      24.58417392        2       0.00000000      -0.00108021       0.02522050      -0.00300448
Pt       5.61442782       1.62074536      24.58417379        2       0.00000000      -0.00576910      -0.00220502       0.04309794
Pt       1.40360636       4.05186439      24.58417387        2       0.00000000      -0.00305385      -0.00023075       0.04316575
Pt       4.21082089       4.05186396      24.58417387        2       0.00000000       0.00169843      -0.00262640       0.04317611
Pt       7.01803504       4.05186408      24.58417404        2       0.00000000       0.00110648       0.00616390       0.04301363
Pt       2.80721273       6.48298349      24.58417384        2       0.00000000       0.00135554       0.00282734       0.04346123
Pt       5.61442806       6.48298330      24.58417399        2       0.00000000      -0.02144144      -0.01345875      -0.00286715
Pt       8.42164222       6.48298344      24.58417375        2       0.00000000       0.02256222      -0.01153181      -0.00285158
Pt      -0.00299302       0.00243783      26.91752770        1       0.00000000       0.00365342      -0.00456402       0.00082905
Pt       2.80721652      -0.00000853      26.90852223        1       0.00000000      -0.00004724       0.00002801      -0.01228114
Pt       5.61524017      -0.00157595      26.91698770        1       0.00000000       0.00200539       0.00376367       0.00190089
Pt       1.40458908       2.43250494      26.91683715        1       0.00000000      -0.00424048       0.00107730       0.00274367
Pt       4.21445754       2.43234530      26.91743502        1       0.00000000      -0.00588680       0.00060012       0.00157158
Pt       7.01804218       2.43123561      26.91572678        1       0.00000000       0.00000224      -0.00050732      -0.01402454
Pt       2.80720979       4.86213628      26.91445378        1       0.00000000       0.00001110       0.00043948      -0.01244613
Pt       5.61260960       4.86243749      26.91686771        1       0.00000000       0.00237392      -0.00488894       0.00272037
Pt       8.42101712       4.85856756      26.91740120        1       0.00000000       0.00211817       0.00401395       0.00151634
O        2.80721024      -0.00000527      30.21781864        0       0.50000000       0.00000359      -0.00000112      -0.04227401
H        2.80721977       0.00000917      29.22497944        0       0.50000000       0.00000588       0.00001085       0.04805364
