38
Lattice="8.421641763931781 0.0 0.0 4.2108208819658905 7.293355709136913 0.0 0.0 0.0 46.87624170604845" Properties=species:S:1:pos:R:3:tags:I:1:initial_magmoms:R:1:forces:R:3 charge=0 spin=0 energy=-194.41468378598057 free_energy=-194.41468378598057 stress="0.010195515118539333 5.842001371547667e-08 -1.5339367109845625e-08 5.842001371547667e-08 0.010195497423410416 -3.837075723822636e-08 -1.5339367109845625e-08 -3.837075723822636e-08 -0.0001539380755275488" pbc="T T T"
Pt      -0.00000011      -0.00000005      19.95723442        4       0.00000000       0.00094702      -0.00102528       0.01206899
Pt       2.80721395      -0.00000019      19.95723450        4       0.00000000       0.00009256      -0.00054835       0.01179526
Pt       5.61442786      -0.00000007      19.95723452        4       0.00000000       0.00000080       0.00000458       0.01153966
Pt       1.40360721       2.43111839      19.95723434        4       0.00000000      -0.00000202       0.00000596       0.01175349
Pt       4.21082082       2.43111837      19.95723444        4       0.00000000       0.00040691       0.00134842       0.01206210
Pt       7.01803481       2.43111844      19.95723433        4       0.00000000      -0.00051761       0.00020265       0.01178349
Pt       2.80721415       4.86223733      19.95723415        4       0.00000000       0.00042133       0.00034375       0.01178638
Pt       5.61442796       4.86223739      19.95723433        4       0.00000000       0.00000152      -0.00001174       0.00972535
Pt       8.42164143       4.86223725      19.95723439        4       0.00000000      -0.00135013      -0.00032294       0.01206241
Pt       1.40360728       0.81037261      22.29206792        3       0.00000000      -0.00089024       0.00346121      -0.03771689
Pt       4.21082128       0.81037249      22.29206789        3       0.00000000       0.00163864       0.00079258      -0.03805401
Pt       7.01803472       0.81037258      22.29206780        3       0.00000000      -0.00014749      -0.00179346      -0.03803618
Pt       2.80721447       3.24149123      22.29206774        3       0.00000000      -0.00256197      -0.00252428      -0.03761215
Pt       5.61442762       3.24149120      22.29206786        3       0.00000000      -0.00156511       0.00252717      -0.03534918
Pt       8.42164156       3.24149131      22.29206806        3       0.00000000       0.00345698      -0.00096645      -0.03758684
Pt       4.21082090       5.67260998      22.29206740        3       0.00000000       0.00297377       0.00008971      -0.03533970
Pt       7.01803486       5.67261041      22.29206774        3       0.00000000      -0.00141073      -0.00262476      -0.03534366
Pt       9.82524817       5.67261060      22.29206803        3       0.00000000      -0.00149178       0.00103554      -0.03793082
Pt      -0.00000054       1.62074568      24.58417374        2       0.00000000      -0.01238834      -0.00481588       0.03224109
Pt       2.80721436       1.62074546      24.58417392        2       0.00000000       0.01041158      -0.00814329       0.03226569
Pt       5.61442782       1.62074536      24.58417379        2       0.00000000      -0.00207613       0.03185327      -0.01247248
Pt       1.40360636       4.05186439      24.58417387        2       0.00000000       0.00192806       0.01306382       0.03207209
Pt       4.21082089       4.05186396      24.58417387        2       0.00000000      -0.01027840      -0.00443688       0.02957035
Pt       7.01803504       4.05186408      24.58417404        2       0.00000000       0.00903622      -0.00661558       0.02954953
Pt       2.80721273       6.48298349      24.58417384        2       0.00000000       0.02859814      -0.01424274      -0.01252413
Pt       5.61442806       6.48298330      24.58417399        2       0.00000000       0.00124228       0.01119624       0.02968839
Pt       8.42164222       6.48298344      24.58417375        2       0.00000000      -0.02648124      -0.01785103      -0.01250389
Pt       0.00153547      -0.00062954      26.91696676        1       0.00000000      -0.00274989       0.00128441       0.00114573
Pt       2.80498100       0.00116961      26.91750934        1       0.00000000       0.00272429       0.00135533       0.00014623
Pt       5.61442762       0.00000334      26.90207390        1       0.00000000      -0.00000379      -0.00000472       0.03028729
Pt       1.40360730       2.43108961      26.90866065        1       0.00000000       0.00000226      -0.00026163       0.02219050
Pt       4.21062070       2.43296723      26.91704570        1       0.00000000       0.00027662      -0.00324518       0.00121880
Pt       7.02017375       2.43267970      26.91760358        1       0.00000000      -0.00018955      -0.00328818       0.00024909
Pt       2.80730730       4.85951460      26.91756251        1       0.00000000      -0.00254954       0.00190013       0.00025157
Pt       5.61442706       4.86226811      26.90630203        1       0.00000000      -0.00001216       0.00023773       0.03122951
Pt       8.42030549       4.86101857      26.91706118        1       0.00000000       0.00249391       0.00198986       0.00127099
O        5.61442502      -0.00000404      30.23258139        0       0.50000000       0.00000978       0.00002425      -0.00559727
H        5.61443045       0.00000240      29.24131326        0       0.50000000       0.00000326       0.00000610      -0.00188668
