38
Lattice="8.421641763931781 0.0 0.0 4.2108208819658905 7.293355709136913 0.0 0.0 0.0 46.87624170604845" Properties=species:S:1:pos:R:3:tags:I:1:initial_magmoms:R:1:forces:R:3 charge=0 spin=0 energy=-194.41437861019932 free_energy=-194.41437861019932 stress="0.010243462398648262 3.6091972077656465e-08 -9.177281157235484e-09 3.6091972077656465e-08 0.010243459604680538 1.1166818580932159e-08 -9.177281157235484e-09 1.1166818580932159e-08 -6.937095167813823e-05" pbc="T T T"
Pt      -0.00000011      -0.00000005      19.95723442        4       0.00000000       0.00108372      -0.00102763       0.01196973
Pt       2.80721395      -0.00000019      19.95723450        4       0.00000000       0.00007440      -0.00063867       0.01171704
Pt       5.61442786      -0.00000007      19.95723452        4       0.00000000       0.00000061       0.00000248       0.01165957
Pt       1.40360721       2.43111839      19.95723434        4       0.00000000      -0.00000189       0.00000310       0.01213531
Pt       4.21082082       2.43111837      19.95723444        4       0.00000000       0.00034814       0.00146409       0.01196981
Pt       7.01803481       2.43111844      19.95723433        4       0.00000000      -0.00059286       0.00025788       0.01170404
Pt       2.80721415       4.86223733      19.95723415        4       0.00000000       0.00051414       0.00037987       0.01170917
Pt       5.61442796       4.86223739      19.95723433        4       0.00000000       0.00000127      -0.00000583       0.00949508
Pt       8.42164143       4.86223725      19.95723439        4       0.00000000      -0.00142759      -0.00043680       0.01196422
Pt       1.40360728       0.81037261      22.29206792        3       0.00000000      -0.00115496       0.00399184      -0.03782380
Pt       4.21082128       0.81037249      22.29206789        3       0.00000000       0.00161482       0.00083550      -0.03884543
Pt       7.01803472       0.81037258      22.29206780        3       0.00000000      -0.00009796      -0.00179281      -0.03883073
Pt       2.80721447       3.24149123      22.29206774        3       0.00000000      -0.00287453      -0.00300543      -0.03777753
Pt       5.61442762       3.24149120      22.29206786        3       0.00000000      -0.00165685       0.00235102      -0.03411018
Pt       8.42164156       3.24149131      22.29206806        3       0.00000000       0.00402951      -0.00099007      -0.03775708
Pt       4.21082090       5.67260998      22.29206740        3       0.00000000       0.00286129       0.00026017      -0.03409631
Pt       7.01803486       5.67261041      22.29206774        3       0.00000000      -0.00120401      -0.00261650      -0.03410652
Pt       9.82524817       5.67261060      22.29206803        3       0.00000000      -0.00151652       0.00096342      -0.03877944
Pt      -0.00000054       1.62074568      24.58417374        2       0.00000000      -0.00342735       0.00034953       0.05153264
Pt       2.80721436       1.62074546      24.58417392        2       0.00000000       0.00138483      -0.00312448       0.05156790
Pt       5.61442782       1.62074536      24.58417379        2       0.00000000      -0.00188668       0.03257397      -0.01069187
Pt       1.40360636       4.05186439      24.58417387        2       0.00000000       0.00200053       0.00278495       0.05151346
Pt       4.21082089       4.05186396      24.58417387        2       0.00000000       0.00002173       0.00138725       0.05378395
Pt       7.01803504       4.05186408      24.58417404        2       0.00000000      -0.00117529      -0.00066471       0.05379711
Pt       2.80721273       6.48298349      24.58417384        2       0.00000000       0.02920211      -0.01467341      -0.01069958
Pt       5.61442806       6.48298330      24.58417399        2       0.00000000       0.00116479      -0.00065656       0.05385184
Pt       8.42164222       6.48298344      24.58417375        2       0.00000000      -0.02728480      -0.01796776      -0.01065466
Pt       0.00026172      -0.00067610      26.91773690        1       0.00000000       0.01230224       0.00126553      -0.00135074
Pt       2.80536815       0.00121750      26.91812556        1       0.00000000      -0.00895844       0.00087660      -0.00164900
Pt       5.61442553      -0.00000489      26.90409742        1       0.00000000      -0.00003221       0.00004364       0.00070365
Pt       1.40361153       2.43113172      26.91920691        1       0.00000000       0.00000699      -0.00018008      -0.03345631
Pt       4.21129391       2.43174954      26.91773070        1       0.00000000      -0.00718194       0.01052633      -0.00105793
Pt       7.02003242       2.43214688      26.91814336        1       0.00000000       0.00518010       0.00802139      -0.00134243
Pt       2.80706573       4.85999435      26.91811557        1       0.00000000       0.00374390      -0.00888367      -0.00139563
Pt       5.61442499       4.86223393      26.91888332        1       0.00000000       0.00000831       0.00014820      -0.03534810
Pt       8.42090237       4.86229092      26.91776979        1       0.00000000      -0.00507937      -0.01181213      -0.00111505
O        5.61442409       0.00000172      30.19491474        0       0.50000000       0.00000755      -0.00000708       0.00718505
H        5.61442828      -0.00000371      29.20275625        0       0.50000000       0.00000221      -0.00000306       0.01262889
