38
Lattice="8.421641763931781 0.0 0.0 4.2108208819658905 7.293355709136913 0.0 0.0 0.0 46.87624170604845" Properties=species:S:1:pos:R:3:tags:I:1:initial_magmoms:R:1:forces:R:3 charge=0 spin=0 energy=-194.41437861019932 free_energy=-194.41437861019932 stress="0.010243448428809643 4.269616127317022e-08 -7.886689523672885e-09 4.269616127317022e-08 0.010243483819067478 2.256355990937209e-08 -7.886689523672885e-09 2.256355990937209e-08 -6.933313852641732e-05" pbc="T T T"
Pt      -0.00000011      -0.00000005      19.95723442        4       0.00000000       0.00007440      -0.00063795       0.01171536
Pt       2.80721395      -0.00000019      19.95723450        4       0.00000000      -0.00000072       0.00000239       0.01165879
Pt       5.61442786      -0.00000007      19.95723452        4       0.00000000       0.00108523      -0.00102792       0.01197225
Pt       1.40360721       2.43111839      19.95723434        4       0.00000000       0.00034512       0.00146470       0.01197946
Pt       4.21082082       2.43111837      19.95723444        4       0.00000000      -0.00058978       0.00025894       0.01169454
Pt       7.01803481       2.43111844      19.95723433        4       0.00000000      -0.00000201       0.00000179       0.01213461
Pt       2.80721415       4.86223733      19.95723415        4       0.00000000      -0.00000086      -0.00000533       0.00949635
Pt       5.61442796       4.86223739      19.95723433        4       0.00000000      -0.00142965      -0.00043756       0.01197037
Pt       8.42164143       4.86223725      19.95723439        4       0.00000000       0.00051866       0.00037979       0.01170179
Pt       1.40360728       0.81037261      22.29206792        3       0.00000000       0.00161448       0.00083365      -0.03884538
Pt       4.21082128       0.81037249      22.29206789        3       0.00000000      -0.00009941      -0.00179109      -0.03882988
Pt       7.01803472       0.81037258      22.29206780        3       0.00000000      -0.00115287       0.00399092      -0.03782631
Pt       2.80721447       3.24149123      22.29206774        3       0.00000000      -0.00166910       0.00235276      -0.03410754
Pt       5.61442762       3.24149120      22.29206786        3       0.00000000       0.00403064      -0.00098743      -0.03775621
Pt       8.42164156       3.24149131      22.29206806        3       0.00000000      -0.00286260      -0.00300929      -0.03778024
Pt       4.21082090       5.67260998      22.29206740        3       0.00000000      -0.00119765      -0.00260995      -0.03409190
Pt       7.01803486       5.67261041      22.29206774        3       0.00000000      -0.00153061       0.00096830      -0.03877765
Pt       9.82524817       5.67261060      22.29206803        3       0.00000000       0.00286878       0.00025050      -0.03411312
Pt      -0.00000054       1.62074568      24.58417374        2       0.00000000       0.00138946      -0.00312881       0.05157037
Pt       2.80721436       1.62074546      24.58417392        2       0.00000000      -0.00188807       0.03257263      -0.01069400
Pt       5.61442782       1.62074536      24.58417379        2       0.00000000      -0.00343059       0.00035574       0.05153757
Pt       1.40360636       4.05186439      24.58417387        2       0.00000000       0.00002901       0.00137873       0.05378501
Pt       4.21082089       4.05186396      24.58417387        2       0.00000000      -0.00117659      -0.00066145       0.05379426
Pt       7.01803504       4.05186408      24.58417404        2       0.00000000       0.00199200       0.00278864       0.05151488
Pt       2.80721273       6.48298349      24.58417384        2       0.00000000       0.00118400      -0.00066334       0.05385777
Pt       5.61442806       6.48298330      24.58417399        2       0.00000000      -0.02728471      -0.01796806      -0.01066395
Pt       8.42164222       6.48298344      24.58417375        2       0.00000000       0.02918260      -0.01466930      -0.01069126
Pt      -0.00184711       0.00121698      26.91812492        1       0.00000000      -0.00895423       0.00087492      -0.00165176
Pt       2.80721199      -0.00000604      26.90409485        1       0.00000000      -0.00003166       0.00004352       0.00070964
Pt       5.61469050      -0.00067625      26.91773824        1       0.00000000       0.01229637       0.00126484      -0.00135443
Pt       1.40407907       2.43174925      26.91772980        1       0.00000000      -0.00717946       0.01052160      -0.00105905
Pt       4.21281944       2.43214631      26.91814339        1       0.00000000       0.00517286       0.00801658      -0.00134230
Pt       7.01803867       2.43113132      26.91920851        1       0.00000000       0.00001014      -0.00016832      -0.03346596
Pt       2.80720970       4.86223318      26.91888344        1       0.00000000       0.00001942       0.00014213      -0.03535073
Pt       5.61368769       4.86228933      26.91776905        1       0.00000000      -0.00507992      -0.01180445      -0.00110797
Pt       8.42149325       4.85999281      26.91811581        1       0.00000000       0.00374183      -0.00887708      -0.00139241
O        2.80721824      -0.00000348      30.19491411        0       0.50000000       0.00001306      -0.00002976       0.00710312
H        2.80721039       0.00000798      29.20275540        0       0.50000000      -0.00000757       0.00001411       0.01270599
