38
Lattice="8.421641763931781 0.0 0.0 4.2108208819658905 7.293355709136913 0.0 0.0 0.0 46.87624170604845" Properties=species:S:1:pos:R:3:tags:I:1:initial_magmoms:R:1:forces:R:3 charge=0 spin=0 energy=-194.41490503842198 free_energy=-194.41490503842198 stress="0.01022719219326973 6.553441522783032e-08 1.653572923032698e-08 6.553441522783032e-08 0.010227091610431671 -6.627662862968009e-09 1.653572923032698e-08 -6.627662862968009e-09 -0.0001115134873543866" pbc="T T T"
Pt      -0.00000011      -0.00000005      19.95723442        4       0.00000000       0.00096186      -0.00104673       0.01203381
Pt       2.80721395      -0.00000019      19.95723450        4       0.00000000       0.00010295      -0.00057792       0.01176195
Pt       5.61442786      -0.00000007      19.95723452        4       0.00000000      -0.00000110       0.00000251       0.01172968
Pt       1.40360721       2.43111839      19.95723434        4       0.00000000      -0.00000249       0.00000890       0.01196986
Pt       4.21082082       2.43111837      19.95723444        4       0.00000000       0.00041373       0.00137024       0.01202287
Pt       7.01803481       2.43111844      19.95723433        4       0.00000000      -0.00054335       0.00021236       0.01175111
Pt       2.80721415       4.86223733      19.95723415        4       0.00000000       0.00043707       0.00036385       0.01175209
Pt       5.61442796       4.86223739      19.95723433        4       0.00000000       0.00000389      -0.00001146       0.00978346
Pt       8.42164143       4.86223725      19.95723439        4       0.00000000      -0.00137151      -0.00032482       0.01202437
Pt       1.40360728       0.81037261      22.29206792        3       0.00000000      -0.00095141       0.00355629      -0.03788064
Pt       4.21082128       0.81037249      22.29206789        3       0.00000000       0.00163856       0.00086641      -0.03803758
Pt       7.01803472       0.81037258      22.29206780        3       0.00000000      -0.00008618      -0.00182601      -0.03803274
Pt       2.80721447       3.24149123      22.29206774        3       0.00000000      -0.00261592      -0.00262807      -0.03776702
Pt       5.61442762       3.24149120      22.29206786        3       0.00000000      -0.00161900       0.00261770      -0.03540878
Pt       8.42164156       3.24149131      22.29206806        3       0.00000000       0.00356817      -0.00096825      -0.03773250
Pt       4.21082090       5.67260998      22.29206740        3       0.00000000       0.00307744       0.00008820      -0.03538055
Pt       7.01803486       5.67261041      22.29206774        3       0.00000000      -0.00146349      -0.00271894      -0.03537076
Pt       9.82524817       5.67261060      22.29206803        3       0.00000000      -0.00155093       0.00100518      -0.03789591
Pt      -0.00000054       1.62074568      24.58417374        2       0.00000000      -0.00832247      -0.00264131       0.04074102
Pt       2.80721436       1.62074546      24.58417392        2       0.00000000       0.00646416      -0.00570776       0.04056457
Pt       5.61442782       1.62074536      24.58417379        2       0.00000000      -0.00216280       0.02626247      -0.00393610
Pt       1.40360636       4.05186439      24.58417387        2       0.00000000       0.00174750       0.00842597       0.04027098
Pt       4.21082089       4.05186396      24.58417387        2       0.00000000      -0.00539510      -0.00181002       0.03920409
Pt       7.01803504       4.05186408      24.58417404        2       0.00000000       0.00437713      -0.00368911       0.03922932
Pt       2.80721273       6.48298349      24.58417384        2       0.00000000       0.02380074      -0.01133283      -0.00388333
Pt       5.61442806       6.48298330      24.58417399        2       0.00000000       0.00104042       0.00571514       0.03951620
Pt       8.42164222       6.48298344      24.58417375        2       0.00000000      -0.02155770      -0.01518501      -0.00405313
Pt       0.00129307      -0.00063392      26.91716402        1       0.00000000      -0.00075191       0.00116860       0.00051845
Pt       2.80510515       0.00116276      26.91746451        1       0.00000000       0.00100279       0.00112095       0.00077864
Pt       5.61439506      -0.00000211      26.90733485        1       0.00000000       0.00030432       0.00010495      -0.00256268
Pt       1.40363596       2.43111204      26.91352266        1       0.00000000      -0.00025875      -0.00057085      -0.00336197
Pt       4.21072335       2.43280972      26.91722585        1       0.00000000      -0.00039800      -0.00170534       0.00083666
Pt       7.02010471       2.43268184      26.91758556        1       0.00000000       0.00047854      -0.00243225       0.00076512
Pt       2.80725590       4.85951884      26.91752403        1       0.00000000      -0.00152001       0.00133394       0.00091037
Pt       5.61443314       4.86226200      26.91183039        1       0.00000000      -0.00003808       0.00050554       0.00180133
Pt       8.42044648       4.86119298      26.91724844        1       0.00000000       0.00119538       0.00052843       0.00085676
O        5.61440082       0.00015842      30.22607110        0       0.50000000      -0.00006082       0.00024898       0.03851542
H        5.61446159      -0.00022013      29.23550796        0       0.50000000       0.00005639      -0.00033010      -0.03803458
