38
Lattice="8.421641763931781 0.0 0.0 4.2108208819658905 7.293355709136913 0.0 0.0 0.0 46.87624170604845" Properties=species:S:1:pos:R:3:tags:I:1:initial_magmoms:R:1:forces:R:3 charge=0 spin=0 energy=-194.41481157833897 free_energy=-194.41481157833897 stress="0.010233902372419834 3.874552234606199e-08 -2.7828278348351887e-08 3.874552234606199e-08 0.010233866050839424 5.819959483233106e-07 -2.7828278348351887e-08 5.819959483233106e-07 -6.95621783961542e-05" pbc="T T T"
Pt      -0.00000011      -0.00000005      19.95723442        4       0.00000000       0.00095295      -0.00102855       0.01199450
Pt       2.80721395      -0.00000019      19.95723450        4       0.00000000       0.00002062      -0.00061678       0.01174626
Pt       5.61442786      -0.00000007      19.95723452        4       0.00000000       0.00000065      -0.00000209       0.01178565
Pt       1.40360721       2.43111839      19.95723434        4       0.00000000      -0.00000341       0.00000289       0.01206854
Pt       4.21082082       2.43111837      19.95723444        4       0.00000000       0.00042370       0.00134620       0.01199891
Pt       7.01803481       2.43111844      19.95723433        4       0.00000000      -0.00055536       0.00028827       0.01173343
Pt       2.80721415       4.86223733      19.95723415        4       0.00000000       0.00052829       0.00032834       0.01173954
Pt       5.61442796       4.86223739      19.95723433        4       0.00000000       0.00000174      -0.00000059       0.00967707
Pt       8.42164143       4.86223725      19.95723439        4       0.00000000      -0.00137003      -0.00031771       0.01199151
Pt       1.40360728       0.81037261      22.29206792        3       0.00000000      -0.00114408       0.00365591      -0.03777109
Pt       4.21082128       0.81037249      22.29206789        3       0.00000000       0.00159980       0.00073311      -0.03810986
Pt       7.01803472       0.81037258      22.29206780        3       0.00000000      -0.00017230      -0.00173655      -0.03809561
Pt       2.80721447       3.24149123      22.29206774        3       0.00000000      -0.00257540      -0.00281008      -0.03777885
Pt       5.61442762       3.24149120      22.29206786        3       0.00000000      -0.00165494       0.00268467      -0.03524563
Pt       8.42164156       3.24149131      22.29206806        3       0.00000000       0.00370988      -0.00081126      -0.03776153
Pt       4.21082090       5.67260998      22.29206740        3       0.00000000       0.00314123       0.00009228      -0.03523061
Pt       7.01803486       5.67261041      22.29206774        3       0.00000000      -0.00148615      -0.00277190      -0.03525085
Pt       9.82524817       5.67261060      22.29206803        3       0.00000000      -0.00142157       0.00097084      -0.03809392
Pt      -0.00000054       1.62074568      24.58417374        2       0.00000000      -0.00577671      -0.00219075       0.04306767
Pt       2.80721436       1.62074546      24.58417392        2       0.00000000       0.00463163      -0.00412804       0.04308488
Pt       5.61442782       1.62074536      24.58417379        2       0.00000000      -0.00107338       0.02521385      -0.00296949
Pt       1.40360636       4.05186439      24.58417387        2       0.00000000       0.00113805       0.00615664       0.04303063
Pt       4.21082089       4.05186396      24.58417387        2       0.00000000      -0.00306122      -0.00022183       0.04317084
Pt       7.01803504       4.05186408      24.58417404        2       0.00000000       0.00174788      -0.00260285       0.04318132
Pt       2.80721273       6.48298349      24.58417384        2       0.00000000       0.02251130      -0.01156454      -0.00283912
Pt       5.61442806       6.48298330      24.58417399        2       0.00000000       0.00131629       0.00283406       0.04340378
Pt       8.42164222       6.48298344      24.58417375        2       0.00000000      -0.02143225      -0.01347723      -0.00282397
Pt       0.00075911      -0.00157873      26.91696490        1       0.00000000       0.00219602       0.00377370       0.00199365
Pt       2.80419550       0.00242433      26.91751586        1       0.00000000       0.00376282      -0.00451794       0.00087544
Pt       5.61440175       0.00000475      26.90853862        1       0.00000000       0.00005487      -0.00002157      -0.01233546
Pt       1.40361410       2.43121201      26.91572588        1       0.00000000       0.00000483      -0.00040891      -0.01401413
Pt       4.21180279       2.43250511      26.91683946        1       0.00000000      -0.00423719       0.00107188       0.00273750
Pt       7.02167176       2.43237638      26.91743423        1       0.00000000      -0.00589686       0.00047448       0.00156940
Pt       2.80661049       4.85855263      26.91741460        1       0.00000000       0.00203591       0.00407732       0.00145816
Pt       5.61445136       4.86214615      26.91444075        1       0.00000000      -0.00010074       0.00040897      -0.01236275
Pt       8.41988028       4.86243551      26.91688561        1       0.00000000       0.00215624      -0.00486708       0.00265330
O        5.61440779       0.00000506      30.21788975        0       0.50000000      -0.00000529      -0.00001477      -0.04220294
H        5.61444629       0.00000289      29.22505390        0       0.50000000       0.00003233      -0.00000241       0.04792447
