38
Lattice="8.421641763931781 0.0 0.0 4.2108208819658905 7.293355709136913 0.0 0.0 0.0 46.87624170604845" Properties=species:S:1:pos:R:3:tags:I:1:initial_magmoms:R:1:forces:R:3 charge=0 spin=0 energy=-194.41481157833897 free_energy=-194.41481157833897 stress="0.0102338632568717 3.8896494913842616e-08 -2.6928949736770846e-08 3.8896494913842616e-08 0.010233912616968155 5.69636938507756e-07 -2.6928949736770846e-08 5.69636938507756e-07 -6.952347757760435e-05" pbc="T T T"
Pt      -0.00000011      -0.00000005      19.95723442        4       0.00000000       0.00095267      -0.00102893       0.01199456
Pt       2.80721395      -0.00000019      19.95723450        4       0.00000000       0.00002091      -0.00061722       0.01174632
Pt       5.61442786      -0.00000007      19.95723452        4       0.00000000       0.00000055      -0.00000241       0.01178635
Pt       1.40360721       2.43111839      19.95723434        4       0.00000000      -0.00000359       0.00000277       0.01206871
Pt       4.21082082       2.43111837      19.95723444        4       0.00000000       0.00042430       0.00134606       0.01199918
Pt       7.01803481       2.43111844      19.95723433        4       0.00000000      -0.00055575       0.00028820       0.01173336
Pt       2.80721415       4.86223733      19.95723415        4       0.00000000       0.00052848       0.00032841       0.01173983
Pt       5.61442796       4.86223739      19.95723433        4       0.00000000       0.00000203      -0.00000082       0.00967601
Pt       8.42164143       4.86223725      19.95723439        4       0.00000000      -0.00137071      -0.00031763       0.01199153
Pt       1.40360728       0.81037261      22.29206792        3       0.00000000      -0.00114499       0.00365574      -0.03777333
Pt       4.21082128       0.81037249      22.29206789        3       0.00000000       0.00159846       0.00073322      -0.03810535
Pt       7.01803472       0.81037258      22.29206780        3       0.00000000      -0.00017127      -0.00173681      -0.03809261
Pt       2.80721447       3.24149123      22.29206774        3       0.00000000      -0.00257556      -0.00280924      -0.03778102
Pt       5.61442762       3.24149120      22.29206786        3       0.00000000      -0.00165555       0.00268689      -0.03524629
Pt       8.42164156       3.24149131      22.29206806        3       0.00000000       0.00370958      -0.00081188      -0.03776442
Pt       4.21082090       5.67260998      22.29206740        3       0.00000000       0.00314294       0.00009155      -0.03523206
Pt       7.01803486       5.67261041      22.29206774        3       0.00000000      -0.00148786      -0.00277265      -0.03525128
Pt       9.82524817       5.67261060      22.29206803        3       0.00000000      -0.00142225       0.00096881      -0.03808982
Pt      -0.00000054       1.62074568      24.58417374        2       0.00000000      -0.00579320      -0.00220217       0.04304524
Pt       2.80721436       1.62074546      24.58417392        2       0.00000000       0.00465195      -0.00413884       0.04306005
Pt       5.61442782       1.62074536      24.58417379        2       0.00000000      -0.00107313       0.02518561      -0.00293462
Pt       1.40360636       4.05186439      24.58417387        2       0.00000000       0.00113860       0.00618276       0.04300712
Pt       4.21082089       4.05186396      24.58417387        2       0.00000000      -0.00305808      -0.00021813       0.04316981
Pt       7.01803504       4.05186408      24.58417404        2       0.00000000       0.00174410      -0.00259777       0.04317740
Pt       2.80721273       6.48298349      24.58417384        2       0.00000000       0.02248785      -0.01154941      -0.00279774
Pt       5.61442806       6.48298330      24.58417399        2       0.00000000       0.00131632       0.00282848       0.04340590
Pt       8.42164222       6.48298344      24.58417375        2       0.00000000      -0.02140787      -0.01346156      -0.00278516
Pt       0.00076352      -0.00157770      26.91696465        1       0.00000000       0.00215670       0.00376277       0.00199198
Pt       2.80419290       0.00242612      26.91751688        1       0.00000000       0.00379761      -0.00453266       0.00087604
Pt       5.61440234       0.00000580      26.90856176        1       0.00000000       0.00006127      -0.00002137      -0.01248217
Pt       1.40361545       2.43121462      26.91570768        1       0.00000000      -0.00000072      -0.00040442      -0.01393030
Pt       4.21180197       2.43250744      26.91683869        1       0.00000000      -0.00421138       0.00105036       0.00273822
Pt       7.02167463       2.43237971      26.91743346        1       0.00000000      -0.00592488       0.00044451       0.00157693
Pt       2.80661263       4.85855151      26.91741376        1       0.00000000       0.00202868       0.00411600       0.00145977
Pt       5.61445219       4.86214612      26.91444358        1       0.00000000      -0.00010379       0.00039310      -0.01238902
Pt       8.41987846       4.86243523      26.91688628        1       0.00000000       0.00217193      -0.00483745       0.00265322
O        5.61440584      -0.00000750      30.21784366        0       0.50000000      -0.00000317      -0.00001160      -0.04227418
H        5.61444098       0.00000465      29.22500452        0       0.50000000       0.00002867       0.00000761       0.04803184
