38
Lattice="8.421641763931781 0.0 0.0 4.2108208819658905 7.293355709136913 0.0 0.0 0.0 46.87624170604845" Properties=species:S:1:pos:R:3:tags:I:1:initial_magmoms:R:1:forces:R:3 charge=0 spin=0 energy=-194.41481157833897 free_energy=-194.41481157833897 stress="0.01023384090512991 2.3318104780400972e-08 5.432097882618336e-09 2.3318104780400972e-08 0.010233846493065357 5.420845923254092e-07 5.432097882618336e-09 5.420845923254092e-07 -6.96124043315649e-05" pbc="T T T"
Pt      -0.00000011      -0.00000005      19.95723442        4       0.00000000       0.00002009      -0.00061453       0.01174534
Pt       2.80721395      -0.00000019      19.95723450        4       0.00000000      -0.00000139      -0.00000308       0.01178595
Pt       5.61442786      -0.00000007      19.95723452        4       0.00000000       0.00095327      -0.00102883       0.01199681
Pt       1.40360721       2.43111839      19.95723434        4       0.00000000       0.00042429       0.00134656       0.01200889
Pt       4.21082082       2.43111837      19.95723444        4       0.00000000      -0.00055120       0.00028847       0.01172357
Pt       7.01803481       2.43111844      19.95723433        4       0.00000000      -0.00000186       0.00000089       0.01206778
Pt       2.80721415       4.86223733      19.95723415        4       0.00000000      -0.00000155       0.00000111       0.00967639
Pt       5.61442796       4.86223739      19.95723433        4       0.00000000      -0.00137440      -0.00031883       0.01199751
Pt       8.42164143       4.86223725      19.95723439        4       0.00000000       0.00053206       0.00032789       0.01173233
Pt       1.40360728       0.81037261      22.29206792        3       0.00000000       0.00159876       0.00073007      -0.03810113
Pt       4.21082128       0.81037249      22.29206789        3       0.00000000      -0.00017360      -0.00173637      -0.03808538
Pt       7.01803472       0.81037258      22.29206780        3       0.00000000      -0.00114395       0.00365796      -0.03777331
Pt       2.80721447       3.24149123      22.29206774        3       0.00000000      -0.00166309       0.00269195      -0.03523709
Pt       5.61442762       3.24149120      22.29206786        3       0.00000000       0.00371431      -0.00080628      -0.03776919
Pt       8.42164156       3.24149131      22.29206806        3       0.00000000      -0.00256153      -0.00281324      -0.03778766
Pt       4.21082090       5.67260998      22.29206740        3       0.00000000      -0.00148410      -0.00276386      -0.03523682
Pt       7.01803486       5.67261041      22.29206774        3       0.00000000      -0.00144045       0.00096923      -0.03809575
Pt       9.82524817       5.67261060      22.29206803        3       0.00000000       0.00314608       0.00008112      -0.03524629
Pt      -0.00000054       1.62074568      24.58417374        2       0.00000000       0.00464965      -0.00415208       0.04306946
Pt       2.80721436       1.62074546      24.58417392        2       0.00000000      -0.00108019       0.02519120      -0.00297142
Pt       5.61442782       1.62074536      24.58417379        2       0.00000000      -0.00579102      -0.00221703       0.04306868
Pt       1.40360636       4.05186439      24.58417387        2       0.00000000      -0.00305365      -0.00022926       0.04316977
Pt       4.21082089       4.05186396      24.58417387        2       0.00000000       0.00169676      -0.00262740       0.04317836
Pt       7.01803504       4.05186408      24.58417404        2       0.00000000       0.00111187       0.00618842       0.04298768
Pt       2.80721273       6.48298349      24.58417384        2       0.00000000       0.00135741       0.00282114       0.04346279
Pt       5.61442806       6.48298330      24.58417399        2       0.00000000      -0.02141507      -0.01344231      -0.00283678
Pt       8.42164222       6.48298344      24.58417375        2       0.00000000       0.02253454      -0.01152006      -0.00281747
Pt      -0.00299271       0.00243540      26.91752741        1       0.00000000       0.00366609      -0.00456789       0.00082996
Pt       2.80721614      -0.00000848      26.90854633        1       0.00000000      -0.00004451       0.00002496      -0.01242754
Pt       5.61524002      -0.00157695      26.91698734        1       0.00000000       0.00199493       0.00375436       0.00191070
Pt       1.40458823       2.43250365      26.91683832        1       0.00000000      -0.00422268       0.00107175       0.00274531
Pt       4.21445713       2.43234418      26.91743539        1       0.00000000      -0.00589304       0.00059508       0.00157175
Pt       7.01804197       2.43123446      26.91570745        1       0.00000000       0.00001904      -0.00050429      -0.01393446
Pt       2.80721107       4.86213359      26.91445525        1       0.00000000       0.00000632       0.00044226      -0.01245228
Pt       5.61261156       4.86243756      26.91686676        1       0.00000000       0.00236434      -0.00488152       0.00272881
Pt       8.42101849       4.85856797      26.91740183        1       0.00000000       0.00211493       0.00402576       0.00150793
O        2.80720900       0.00000469      30.21778027        0       0.50000000      -0.00001507       0.00001422      -0.04220616
H        2.80721832       0.00000928      29.22494210        0       0.50000000       0.00000752       0.00000246       0.04801285
