38
Lattice="8.421641763931781 0.0 0.0 4.2108208819658905 7.293355709136913 0.0 0.0 0.0 46.87624170604845" Properties=species:S:1:pos:R:3:tags:I:1:initial_magmoms:R:1:forces:R:3 charge=0 spin=0 energy=-194.4146799712833 free_energy=-194.4146799712833 stress="0.010195557028055191 5.2065541211732125e-08 -1.0538780514934842e-08 5.2065541211732125e-08 0.010195526294410229 2.192063242034692e-08 -1.0538780514934842e-08 2.192063242034692e-08 -0.0001538686192361638" pbc="T T T"
Pt      -0.00000011      -0.00000005      19.95723442        4       0.00000000       0.00094707      -0.00102500       0.01206899
Pt       2.80721395      -0.00000019      19.95723450        4       0.00000000       0.00009276      -0.00054850       0.01179549
Pt       5.61442786      -0.00000007      19.95723452        4       0.00000000       0.00000090       0.00000483       0.01153962
Pt       1.40360721       2.43111839      19.95723434        4       0.00000000      -0.00000232       0.00000641       0.01175355
Pt       4.21082082       2.43111837      19.95723444        4       0.00000000       0.00040700       0.00134838       0.01206220
Pt       7.01803481       2.43111844      19.95723433        4       0.00000000      -0.00051747       0.00020274       0.01178332
Pt       2.80721415       4.86223733      19.95723415        4       0.00000000       0.00042135       0.00034374       0.01178652
Pt       5.61442796       4.86223739      19.95723433        4       0.00000000       0.00000180      -0.00001145       0.00972546
Pt       8.42164143       4.86223725      19.95723439        4       0.00000000      -0.00135008      -0.00032300       0.01206224
Pt       1.40360728       0.81037261      22.29206792        3       0.00000000      -0.00089061       0.00346035      -0.03771591
Pt       4.21082128       0.81037249      22.29206789        3       0.00000000       0.00163886       0.00079337      -0.03805390
Pt       7.01803472       0.81037258      22.29206780        3       0.00000000      -0.00014762      -0.00179342      -0.03803690
Pt       2.80721447       3.24149123      22.29206774        3       0.00000000      -0.00256170      -0.00252493      -0.03761268
Pt       5.61442762       3.24149120      22.29206786        3       0.00000000      -0.00156482       0.00252648      -0.03534932
Pt       8.42164156       3.24149131      22.29206806        3       0.00000000       0.00345631      -0.00096704      -0.03758650
Pt       4.21082090       5.67260998      22.29206740        3       0.00000000       0.00297343       0.00008955      -0.03534003
Pt       7.01803486       5.67261041      22.29206774        3       0.00000000      -0.00141147      -0.00262530      -0.03534443
Pt       9.82524817       5.67261060      22.29206803        3       0.00000000      -0.00149102       0.00103596      -0.03793119
Pt      -0.00000054       1.62074568      24.58417374        2       0.00000000      -0.01238811      -0.00481600       0.03224237
Pt       2.80721436       1.62074546      24.58417392        2       0.00000000       0.01040967      -0.00814239       0.03226732
Pt       5.61442782       1.62074536      24.58417379        2       0.00000000      -0.00207657       0.03184814      -0.01245926
Pt       1.40360636       4.05186439      24.58417387        2       0.00000000       0.00192897       0.01306131       0.03207325
Pt       4.21082089       4.05186396      24.58417387        2       0.00000000      -0.01027516      -0.00443481       0.02957496
Pt       7.01803504       4.05186408      24.58417404        2       0.00000000       0.00903449      -0.00661494       0.02955143
Pt       2.80721273       6.48298349      24.58417384        2       0.00000000       0.02859391      -0.01424048      -0.01251358
Pt       5.61442806       6.48298330      24.58417399        2       0.00000000       0.00124238       0.01119434       0.02968971
Pt       8.42164222       6.48298344      24.58417375        2       0.00000000      -0.02647806      -0.01784844      -0.01249631
Pt       0.00153631      -0.00062989      26.91696699        1       0.00000000      -0.00275955       0.00128308       0.00114590
Pt       2.80498001       0.00116990      26.91750934        1       0.00000000       0.00273369       0.00135638       0.00014714
Pt       5.61442767       0.00000328      26.90207944        1       0.00000000      -0.00000613      -0.00000701       0.03027213
Pt       1.40360572       2.43108946      26.90866277        1       0.00000000       0.00001664      -0.00024827       0.02218878
Pt       4.21061966       2.43296759      26.91704617        1       0.00000000       0.00028816      -0.00324873       0.00121942
Pt       7.02017379       2.43268012      26.91760367        1       0.00000000      -0.00020233      -0.00329147       0.00024996
Pt       2.80730697       4.85951382      26.91756270        1       0.00000000      -0.00254929       0.00190898       0.00025000
Pt       5.61442709       4.86226730      26.90630362        1       0.00000000      -0.00001482       0.00026740       0.03122561
Pt       8.42030564       4.86101788      26.91706134        1       0.00000000       0.00249197       0.00200007       0.00127116
O        5.61442955      -0.00000018      30.23260058        0       0.50000000       0.00000877      -0.00002604      -0.00562679
H        5.61442946       0.00000051      29.24133323        0       0.50000000      -0.00000107       0.00000545      -0.00188040
