38
Lattice="8.421641763931781 0.0 0.0 4.2108208819658905 7.293355709136913 0.0 0.0 0.0 46.87624170604845" Properties=species:S:1:pos:R:3:tags:I:1:initial_magmoms:R:1:forces:R:3 charge=0 spin=0 energy=-194.4146856933292 free_energy=-194.4146856933292 stress="0.010195518843829632 4.896547167732024e-08 1.9687394825496085e-08 4.896547167732024e-08 0.010195464827120304 -2.31773600312124e-09 1.9687394825496085e-08 -2.31773600312124e-09 -0.00015395673108287156" pbc="T T T"
Pt      -0.00000011      -0.00000005      19.95723442        4       0.00000000       0.00094705      -0.00102524       0.01206922
Pt       2.80721395      -0.00000019      19.95723450        4       0.00000000       0.00009273      -0.00054840       0.01179556
Pt       5.61442786      -0.00000007      19.95723452        4       0.00000000       0.00000099       0.00000467       0.01153928
Pt       1.40360721       2.43111839      19.95723434        4       0.00000000      -0.00000215       0.00000639       0.01175359
Pt       4.21082082       2.43111837      19.95723444        4       0.00000000       0.00040673       0.00134847       0.01206201
Pt       7.01803481       2.43111844      19.95723433        4       0.00000000      -0.00051757       0.00020262       0.01178370
Pt       2.80721415       4.86223733      19.95723415        4       0.00000000       0.00042133       0.00034364       0.01178631
Pt       5.61442796       4.86223739      19.95723433        4       0.00000000       0.00000166      -0.00001170       0.00972550
Pt       8.42164143       4.86223725      19.95723439        4       0.00000000      -0.00135013      -0.00032308       0.01206233
Pt       1.40360728       0.81037261      22.29206792        3       0.00000000      -0.00089038       0.00346093      -0.03771654
Pt       4.21082128       0.81037249      22.29206789        3       0.00000000       0.00163891       0.00079271      -0.03805467
Pt       7.01803472       0.81037258      22.29206780        3       0.00000000      -0.00014695      -0.00179312      -0.03803679
Pt       2.80721447       3.24149123      22.29206774        3       0.00000000      -0.00256218      -0.00252478      -0.03761239
Pt       5.61442762       3.24149120      22.29206786        3       0.00000000      -0.00156507       0.00252674      -0.03534884
Pt       8.42164156       3.24149131      22.29206806        3       0.00000000       0.00345705      -0.00096617      -0.03758638
Pt       4.21082090       5.67260998      22.29206740        3       0.00000000       0.00297320       0.00008989      -0.03533879
Pt       7.01803486       5.67261041      22.29206774        3       0.00000000      -0.00141064      -0.00262496      -0.03534266
Pt       9.82524817       5.67261060      22.29206803        3       0.00000000      -0.00149136       0.00103581      -0.03793143
Pt      -0.00000054       1.62074568      24.58417374        2       0.00000000      -0.01239035      -0.00481555       0.03223728
Pt       2.80721436       1.62074546      24.58417392        2       0.00000000       0.01041041      -0.00814238       0.03226473
Pt       5.61442782       1.62074536      24.58417379        2       0.00000000      -0.00207712       0.03185902      -0.01247967
Pt       1.40360636       4.05186439      24.58417387        2       0.00000000       0.00192960       0.01306165       0.03207208
Pt       4.21082089       4.05186396      24.58417387        2       0.00000000      -0.01027677      -0.00443514       0.02957340
Pt       7.01803504       4.05186408      24.58417404        2       0.00000000       0.00903788      -0.00661551       0.02954870
Pt       2.80721273       6.48298349      24.58417384        2       0.00000000       0.02860111      -0.01424755      -0.01253444
Pt       5.61442806       6.48298330      24.58417399        2       0.00000000       0.00124516       0.01119557       0.02968492
Pt       8.42164222       6.48298344      24.58417375        2       0.00000000      -0.02648709      -0.01785346      -0.01251129
Pt       0.00153518      -0.00063016      26.91696634        1       0.00000000      -0.00274765       0.00128834       0.00115625
Pt       2.80498153       0.00117010      26.91750890        1       0.00000000       0.00272498       0.00135540       0.00014676
Pt       5.61442786       0.00000341      26.90207013        1       0.00000000      -0.00000817      -0.00000605       0.03030443
Pt       1.40360467       2.43108845      26.90866107        1       0.00000000       0.00003358      -0.00025305       0.02219044
Pt       4.21062050       2.43296742      26.91704536        1       0.00000000       0.00028021      -0.00324125       0.00121912
Pt       7.02017269       2.43268012      26.91760386        1       0.00000000      -0.00018929      -0.00328668       0.00025093
Pt       2.80730718       4.85951431      26.91756263        1       0.00000000      -0.00254564       0.00189817       0.00024970
Pt       5.61442842       4.86226881      26.90630105        1       0.00000000      -0.00001361       0.00025402       0.03123422
Pt       8.42030603       4.86101884      26.91706130        1       0.00000000       0.00248671       0.00198958       0.00127171
O        5.61442903      -0.00000389      30.23257211        0       0.50000000      -0.00001852      -0.00000826      -0.00559795
H        5.61442851       0.00000208      29.24130437        0       0.50000000       0.00000143       0.00000876      -0.00189024
