38
Lattice="8.421641763931781 0.0 0.0 4.2108208819658905 7.293355709136913 0.0 0.0 0.0 46.87624170604845" Properties=species:S:1:pos:R:3:tags:I:1:initial_magmoms:R:1:forces:R:3 charge=0 spin=0 energy=-194.41481157833897 free_energy=-194.41481157833897 stress="0.010233859531581402 1.897438295372922e-08 -2.3193409859345593e-08 1.897438295372922e-08 0.01023387536406517 5.72070462112606e-07 -2.3193409859345593e-08 5.72070462112606e-07 -6.959935853956267e-05" pbc="T T T"
Pt      -0.00000011      -0.00000005      19.95723442        4       0.00000000       0.00095297      -0.00102861       0.01199443
Pt       2.80721395      -0.00000019      19.95723450        4       0.00000000       0.00002063      -0.00061710       0.01174641
Pt       5.61442786      -0.00000007      19.95723452        4       0.00000000       0.00000040      -0.00000214       0.01178597
Pt       1.40360721       2.43111839      19.95723434        4       0.00000000      -0.00000371       0.00000306       0.01206873
Pt       4.21082082       2.43111837      19.95723444        4       0.00000000       0.00042393       0.00134621       0.01199912
Pt       7.01803481       2.43111844      19.95723433        4       0.00000000      -0.00055525       0.00028869       0.01173315
Pt       2.80721415       4.86223733      19.95723415        4       0.00000000       0.00052819       0.00032804       0.01173964
Pt       5.61442796       4.86223739      19.95723433        4       0.00000000       0.00000238      -0.00000079       0.00967618
Pt       8.42164143       4.86223725      19.95723439        4       0.00000000      -0.00137045      -0.00031805       0.01199144
Pt       1.40360728       0.81037261      22.29206792        3       0.00000000      -0.00114476       0.00365614      -0.03777149
Pt       4.21082128       0.81037249      22.29206789        3       0.00000000       0.00159902       0.00073280      -0.03811111
Pt       7.01803472       0.81037258      22.29206780        3       0.00000000      -0.00017247      -0.00173697      -0.03809588
Pt       2.80721447       3.24149123      22.29206774        3       0.00000000      -0.00257533      -0.00280950      -0.03777904
Pt       5.61442762       3.24149120      22.29206786        3       0.00000000      -0.00165524       0.00268524      -0.03524505
Pt       8.42164156       3.24149131      22.29206806        3       0.00000000       0.00370979      -0.00081167      -0.03776205
Pt       4.21082090       5.67260998      22.29206740        3       0.00000000       0.00314033       0.00009248      -0.03522946
Pt       7.01803486       5.67261041      22.29206774        3       0.00000000      -0.00148637      -0.00277176      -0.03524687
Pt       9.82524817       5.67261060      22.29206803        3       0.00000000      -0.00142143       0.00097107      -0.03809350
Pt      -0.00000054       1.62074568      24.58417374        2       0.00000000      -0.00577634      -0.00218899       0.04306749
Pt       2.80721436       1.62074546      24.58417392        2       0.00000000       0.00463159      -0.00412884       0.04308255
Pt       5.61442782       1.62074536      24.58417379        2       0.00000000      -0.00107030       0.02521724      -0.00297754
Pt       1.40360636       4.05186439      24.58417387        2       0.00000000       0.00113433       0.00616052       0.04303629
Pt       4.21082089       4.05186396      24.58417387        2       0.00000000      -0.00305835      -0.00021654       0.04316795
Pt       7.01803504       4.05186408      24.58417404        2       0.00000000       0.00174850      -0.00259892       0.04318648
Pt       2.80721273       6.48298349      24.58417384        2       0.00000000       0.02251410      -0.01156784      -0.00284255
Pt       5.61442806       6.48298330      24.58417399        2       0.00000000       0.00131834       0.00282939       0.04340392
Pt       8.42164222       6.48298344      24.58417375        2       0.00000000      -0.02143450      -0.01348313      -0.00282350
Pt       0.00076232      -0.00157880      26.91696366        1       0.00000000       0.00218536       0.00377430       0.00200076
Pt       2.80419559       0.00242506      26.91751721        1       0.00000000       0.00376776      -0.00452429       0.00087549
Pt       5.61440274       0.00000382      26.90853488        1       0.00000000       0.00005580      -0.00001822      -0.01233650
Pt       1.40361499       2.43121300      26.91572608        1       0.00000000       0.00001512      -0.00040653      -0.01400751
Pt       4.21180381       2.43250648      26.91683776        1       0.00000000      -0.00423447       0.00106318       0.00274615
Pt       7.02167352       2.43237798      26.91743427        1       0.00000000      -0.00590202       0.00046571       0.00156929
Pt       2.80661139       4.85855092      26.91741333        1       0.00000000       0.00203342       0.00408853       0.00145996
Pt       5.61445227       4.86214653      26.91444404        1       0.00000000      -0.00010915       0.00039692      -0.01239600
Pt       8.41987817       4.86243464      26.91688846        1       0.00000000       0.00216847      -0.00486234       0.00263623
O        5.61441111       0.00000606      30.21785565        0       0.50000000      -0.00000141      -0.00000131      -0.04215781
H        5.61443623       0.00000008      29.22501893        0       0.50000000       0.00002122      -0.00000595       0.04790869
