38
Lattice="8.421641763931781 0.0 0.0 4.2108208819658905 7.293355709136913 0.0 0.0 0.0 46.87624170604845" Properties=species:S:1:pos:R:3:tags:I:1:initial_magmoms:R:1:forces:R:3 charge=0 spin=0 energy=-194.41468378598057 free_energy=-194.41468378598057 stress="0.010195526294410229 4.991543534060838e-08 -1.6652655920879056e-09 4.991543534060838e-08 0.010195492766797543 -6.193529689113575e-09 -1.6652655920879056e-09 -6.193529689113575e-09 -0.000153934073750861" pbc="T T T"
Pt      -0.00000011      -0.00000005      19.95723442        4       0.00000000       0.00009275      -0.00054791       0.01179369
Pt       2.80721395      -0.00000019      19.95723450        4       0.00000000      -0.00000046       0.00000448       0.01153881
Pt       5.61442786      -0.00000007      19.95723452        4       0.00000000       0.00094835      -0.00102551       0.01207153
Pt       1.40360721       2.43111839      19.95723434        4       0.00000000       0.00040380       0.00134907       0.01207187
Pt       4.21082082       2.43111837      19.95723444        4       0.00000000      -0.00051464       0.00020355       0.01177431
Pt       7.01803481       2.43111844      19.95723433        4       0.00000000      -0.00000215       0.00000481       0.01175304
Pt       2.80721415       4.86223733      19.95723415        4       0.00000000      -0.00000099      -0.00001083       0.00972680
Pt       5.61442796       4.86223739      19.95723433        4       0.00000000      -0.00135227      -0.00032367       0.01206841
Pt       8.42164143       4.86223725      19.95723439        4       0.00000000       0.00042604       0.00034366       0.01177917
Pt       1.40360728       0.81037261      22.29206792        3       0.00000000       0.00163794       0.00079133      -0.03805448
Pt       4.21082128       0.81037249      22.29206789        3       0.00000000      -0.00014932      -0.00179083      -0.03803468
Pt       7.01803472       0.81037258      22.29206780        3       0.00000000      -0.00088804       0.00346045      -0.03771881
Pt       2.80721447       3.24149123      22.29206774        3       0.00000000      -0.00157728       0.00252737      -0.03534685
Pt       5.61442762       3.24149120      22.29206786        3       0.00000000       0.00345720      -0.00096375      -0.03758572
Pt       8.42164156       3.24149131      22.29206806        3       0.00000000      -0.00255018      -0.00252856      -0.03761464
Pt       4.21082090       5.67260998      22.29206740        3       0.00000000      -0.00140491      -0.00261879      -0.03532795
Pt       7.01803486       5.67261041      22.29206774        3       0.00000000      -0.00150560       0.00104059      -0.03792858
Pt       9.82524817       5.67261060      22.29206803        3       0.00000000       0.00298144       0.00007862      -0.03535759
Pt      -0.00000054       1.62074568      24.58417374        2       0.00000000       0.01041801      -0.00814807       0.03226364
Pt       2.80721436       1.62074546      24.58417392        2       0.00000000      -0.00207744       0.03185460      -0.01247775
Pt       5.61442782       1.62074536      24.58417379        2       0.00000000      -0.01239487      -0.00480919       0.03224050
Pt       1.40360636       4.05186439      24.58417387        2       0.00000000      -0.01026838      -0.00444312       0.02957634
Pt       4.21082089       4.05186396      24.58417387        2       0.00000000       0.00903887      -0.00661136       0.02954936
Pt       7.01803504       4.05186408      24.58417404        2       0.00000000       0.00191889       0.01306848       0.03207418
Pt       2.80721273       6.48298349      24.58417384        2       0.00000000       0.00126429       0.01118910       0.02969222
Pt       5.61442806       6.48298330      24.58417399        2       0.00000000      -0.02648245      -0.01785346      -0.01251658
Pt       8.42164222       6.48298344      24.58417375        2       0.00000000       0.02857886      -0.01424147      -0.01252382
Pt      -0.00223253       0.00116946      26.91750865        1       0.00000000       0.00272426       0.00135359       0.00014576
Pt       2.80721404       0.00000308      26.90207108        1       0.00000000      -0.00000212      -0.00000657       0.03030495
Pt       5.61596330      -0.00063010      26.91696709        1       0.00000000      -0.00275089       0.00128645       0.00115089
Pt       1.40340662       2.43296723      26.91704610        1       0.00000000       0.00027728      -0.00324219       0.00121715
Pt       4.21295994       2.43267984      26.91760465        1       0.00000000      -0.00019058      -0.00328835       0.00025057
Pt       7.01803281       2.43108790      26.90866184        1       0.00000000       0.00002477      -0.00024750       0.02218836
Pt       2.80721422       4.86226803      26.90630338        1       0.00000000      -0.00001956       0.00025198       0.03122801
Pt       5.61309233       4.86101839      26.91706054        1       0.00000000       0.00248632       0.00199134       0.00126923
Pt       8.42173482       4.85951410      26.91756326        1       0.00000000      -0.00254510       0.00189834       0.00025148
O        2.80721833      -0.00000250      30.23258368        0       0.50000000       0.00000544      -0.00000535      -0.00560847
H        2.80720933       0.00000381      29.24131603        0       0.50000000      -0.00000717       0.00000864      -0.00188405
