38
Lattice="8.421641763931781 0.0 0.0 4.2108208819658905 7.293355709136913 0.0 0.0 0.0 46.87624170604845" Properties=species:S:1:pos:R:3:tags:I:1:initial_magmoms:R:1:forces:R:3 charge=0 spin=0 energy=-194.4148077636417 free_energy=-194.4148077636417 stress="0.010233839973807335 3.1510282383351296e-08 3.908970924726418e-09 3.1510282383351296e-08 0.010233872570097446 5.32314970769221e-07 3.908970924726418e-09 5.32314970769221e-07 -6.955947173992172e-05" pbc="T T T"
Pt      -0.00000011      -0.00000005      19.95723442        4       0.00000000       0.00001978      -0.00061481       0.01174511
Pt       2.80721395      -0.00000019      19.95723450        4       0.00000000      -0.00000128      -0.00000300       0.01178595
Pt       5.61442786      -0.00000007      19.95723452        4       0.00000000       0.00095350      -0.00102886       0.01199672
Pt       1.40360721       2.43111839      19.95723434        4       0.00000000       0.00042403       0.00134675       0.01200881
Pt       4.21082082       2.43111837      19.95723444        4       0.00000000      -0.00055099       0.00028859       0.01172342
Pt       7.01803481       2.43111844      19.95723433        4       0.00000000      -0.00000195       0.00000074       0.01206786
Pt       2.80721415       4.86223733      19.95723415        4       0.00000000      -0.00000149       0.00000104       0.00967612
Pt       5.61442796       4.86223739      19.95723433        4       0.00000000      -0.00137463      -0.00031917       0.01199753
Pt       8.42164143       4.86223725      19.95723439        4       0.00000000       0.00053221       0.00032763       0.01173230
Pt       1.40360728       0.81037261      22.29206792        3       0.00000000       0.00159911       0.00072914      -0.03810230
Pt       4.21082128       0.81037249      22.29206789        3       0.00000000      -0.00017402      -0.00173639      -0.03808559
Pt       7.01803472       0.81037258      22.29206780        3       0.00000000      -0.00114379       0.00365756      -0.03777172
Pt       2.80721447       3.24149123      22.29206774        3       0.00000000      -0.00166329       0.00269213      -0.03523612
Pt       5.61442762       3.24149120      22.29206786        3       0.00000000       0.00371488      -0.00080591      -0.03776959
Pt       8.42164156       3.24149131      22.29206806        3       0.00000000      -0.00256146      -0.00281340      -0.03778714
Pt       4.21082090       5.67260998      22.29206740        3       0.00000000      -0.00148370      -0.00276410      -0.03523711
Pt       7.01803486       5.67261041      22.29206774        3       0.00000000      -0.00144034       0.00096924      -0.03809663
Pt       9.82524817       5.67261060      22.29206803        3       0.00000000       0.00314598       0.00008036      -0.03524512
Pt      -0.00000054       1.62074568      24.58417374        2       0.00000000       0.00464437      -0.00415061       0.04307250
Pt       2.80721436       1.62074546      24.58417392        2       0.00000000      -0.00107742       0.02519153      -0.00297025
Pt       5.61442782       1.62074536      24.58417379        2       0.00000000      -0.00578797      -0.00221849       0.04307663
Pt       1.40360636       4.05186439      24.58417387        2       0.00000000      -0.00305146      -0.00022747       0.04316268
Pt       4.21082089       4.05186396      24.58417387        2       0.00000000       0.00169573      -0.00262684       0.04317699
Pt       7.01803504       4.05186408      24.58417404        2       0.00000000       0.00111018       0.00618462       0.04299097
Pt       2.80721273       6.48298349      24.58417384        2       0.00000000       0.00135343       0.00282467       0.04346616
Pt       5.61442806       6.48298330      24.58417399        2       0.00000000      -0.02141522      -0.01344132      -0.00283086
Pt       8.42164222       6.48298344      24.58417375        2       0.00000000       0.02253743      -0.01151667      -0.00281204
Pt      -0.00299527       0.00243764      26.91752815        1       0.00000000       0.00367808      -0.00457530       0.00082920
Pt       2.80721644      -0.00000780      26.90854692        1       0.00000000      -0.00004774       0.00002450      -0.01243027
Pt       5.61524068      -0.00157628      26.91699066        1       0.00000000       0.00198927       0.00375177       0.00189491
Pt       1.40458760       2.43250557      26.91683642        1       0.00000000      -0.00421614       0.00106359       0.00275218
Pt       4.21445883       2.43234611      26.91743506        1       0.00000000      -0.00590602       0.00058591       0.00157198
Pt       7.01804127       2.43123387      26.91570973        1       0.00000000       0.00001697      -0.00049600      -0.01394212
Pt       2.80721137       4.86213585      26.91445576        1       0.00000000       0.00001056       0.00042211      -0.01245385
Pt       5.61261107       4.86243725      26.91686667        1       0.00000000       0.00237016      -0.00487024       0.00272796
Pt       8.42101917       4.85856668      26.91740097        1       0.00000000       0.00210831       0.00403894       0.00151698
O        2.80720817      -0.00000272      30.21777855        0       0.50000000      -0.00001386       0.00002130      -0.04228860
H        2.80721971       0.00000873      29.22493706        0       0.50000000       0.00000871       0.00000648       0.04808630
