38
Lattice="8.421641763931781 0.0 0.0 4.2108208819658905 7.293355709136913 0.0 0.0 0.0 46.87624170604845" Properties=species:S:1:pos:R:3:tags:I:1:initial_magmoms:R:1:forces:R:3 charge=0 spin=0 energy=-194.41481157833897 free_energy=-194.41481157833897 stress="0.010233830660581589 2.0204728556905138e-08 1.5162838096216547e-08 2.0204728556905138e-08 0.010233832523226738 5.567615630752698e-07 1.5162838096216547e-08 5.567615630752698e-07 -6.962200859561563e-05" pbc="T T T"
Pt      -0.00000011      -0.00000005      19.95723442        4       0.00000000       0.00095314      -0.00102880       0.01199424
Pt       2.80721395      -0.00000019      19.95723450        4       0.00000000       0.00002036      -0.00061705       0.01174607
Pt       5.61442786      -0.00000007      19.95723452        4       0.00000000       0.00000080      -0.00000216       0.01178582
Pt       1.40360721       2.43111839      19.95723434        4       0.00000000      -0.00000357       0.00000295       0.01206854
Pt       4.21082082       2.43111837      19.95723444        4       0.00000000       0.00042391       0.00134653       0.01199876
Pt       7.01803481       2.43111844      19.95723433        4       0.00000000      -0.00055547       0.00028863       0.01173326
Pt       2.80721415       4.86223733      19.95723415        4       0.00000000       0.00052861       0.00032811       0.01173939
Pt       5.61442796       4.86223739      19.95723433        4       0.00000000       0.00000194      -0.00000108       0.00967565
Pt       8.42164143       4.86223725      19.95723439        4       0.00000000      -0.00137059      -0.00031821       0.01199106
Pt       1.40360728       0.81037261      22.29206792        3       0.00000000      -0.00114491       0.00365636      -0.03777124
Pt       4.21082128       0.81037249      22.29206789        3       0.00000000       0.00159954       0.00073187      -0.03811089
Pt       7.01803472       0.81037258      22.29206780        3       0.00000000      -0.00017304      -0.00173748      -0.03809688
Pt       2.80721447       3.24149123      22.29206774        3       0.00000000      -0.00257617      -0.00280946      -0.03777886
Pt       5.61442762       3.24149120      22.29206786        3       0.00000000      -0.00165480       0.00268505      -0.03524298
Pt       8.42164156       3.24149131      22.29206806        3       0.00000000       0.00371035      -0.00081121      -0.03776287
Pt       4.21082090       5.67260998      22.29206740        3       0.00000000       0.00314031       0.00009212      -0.03522632
Pt       7.01803486       5.67261041      22.29206774        3       0.00000000      -0.00148520      -0.00277162      -0.03524732
Pt       9.82524817       5.67261060      22.29206803        3       0.00000000      -0.00142228       0.00097105      -0.03809630
Pt      -0.00000054       1.62074568      24.58417374        2       0.00000000      -0.00577761      -0.00219392       0.04307019
Pt       2.80721436       1.62074546      24.58417392        2       0.00000000       0.00463208      -0.00412922       0.04307928
Pt       5.61442782       1.62074536      24.58417379        2       0.00000000      -0.00107054       0.02522653      -0.00298458
Pt       1.40360636       4.05186439      24.58417387        2       0.00000000       0.00114044       0.00615805       0.04302923
Pt       4.21082089       4.05186396      24.58417387        2       0.00000000      -0.00305673      -0.00021606       0.04316658
Pt       7.01803504       4.05186408      24.58417404        2       0.00000000       0.00174184      -0.00260109       0.04317731
Pt       2.80721273       6.48298349      24.58417384        2       0.00000000       0.02252415      -0.01156834      -0.00284519
Pt       5.61442806       6.48298330      24.58417399        2       0.00000000       0.00131516       0.00282962       0.04340477
Pt       8.42164222       6.48298344      24.58417375        2       0.00000000      -0.02144049      -0.01348055      -0.00283501
Pt       0.00076378      -0.00157822      26.91696743        1       0.00000000       0.00217177       0.00377211       0.00198757
Pt       2.80419324       0.00242588      26.91751727        1       0.00000000       0.00378134      -0.00452630       0.00087652
Pt       5.61440320       0.00000476      26.90852914        1       0.00000000       0.00005564      -0.00001866      -0.01232004
Pt       1.40361477       2.43121213      26.91572572        1       0.00000000       0.00002637      -0.00040836      -0.01400933
Pt       4.21180259       2.43250822      26.91683743        1       0.00000000      -0.00422514       0.00105782       0.00274499
Pt       7.02167454       2.43237914      26.91743433        1       0.00000000      -0.00590664       0.00045559       0.00156955
Pt       2.80661251       4.85855039      26.91741384        1       0.00000000       0.00203079       0.00409813       0.00145871
Pt       5.61445242       4.86214760      26.91444315        1       0.00000000      -0.00009835       0.00038619      -0.01239363
Pt       8.41987792       4.86243351      26.91688334        1       0.00000000       0.00217251      -0.00485178       0.00265985
O        5.61440964       0.00000597      30.21783149        0       0.50000000      -0.00003551       0.00001468      -0.04221057
H        5.61443772      -0.00000312      29.22499328        0       0.50000000       0.00002588      -0.00001005       0.04797459
