38
Lattice="8.421641763931781 0.0 0.0 4.2108208819658905 7.293355709136913 0.0 0.0 0.0 46.87624170604845" Properties=species:S:1:pos:R:3:tags:I:1:initial_magmoms:R:1:forces:R:3 charge=0 spin=0 energy=-194.41490313107334 free_energy=-194.41490313107334 stress="0.01022716797888279 4.200066783255352e-08 -2.0820907664642618e-08 4.200066783255352e-08 0.010227096267044544 -1.240931912782628e-09 -2.0820907664642618e-08 -1.240931912782628e-09 -0.00011146930046379566" pbc="T T T"
Pt      -0.00000011      -0.00000005      19.95723442        4       0.00000000       0.00096212      -0.00104640       0.01203358
Pt       2.80721395      -0.00000019      19.95723450        4       0.00000000       0.00010273      -0.00057796       0.01176197
Pt       5.61442786      -0.00000007      19.95723452        4       0.00000000      -0.00000113       0.00000233       0.01172953
Pt       1.40360721       2.43111839      19.95723434        4       0.00000000      -0.00000274       0.00000879       0.01196981
Pt       4.21082082       2.43111837      19.95723444        4       0.00000000       0.00041396       0.00137040       0.01202278
Pt       7.01803481       2.43111844      19.95723433        4       0.00000000      -0.00054317       0.00021230       0.01175107
Pt       2.80721415       4.86223733      19.95723415        4       0.00000000       0.00043723       0.00036408       0.01175217
Pt       5.61442796       4.86223739      19.95723433        4       0.00000000       0.00000381      -0.00001125       0.00978278
Pt       8.42164143       4.86223725      19.95723439        4       0.00000000      -0.00137166      -0.00032486       0.01202435
Pt       1.40360728       0.81037261      22.29206792        3       0.00000000      -0.00095105       0.00355594      -0.03788100
Pt       4.21082128       0.81037249      22.29206789        3       0.00000000       0.00163783       0.00086636      -0.03803805
Pt       7.01803472       0.81037258      22.29206780        3       0.00000000      -0.00008677      -0.00182595      -0.03803305
Pt       2.80721447       3.24149123      22.29206774        3       0.00000000      -0.00261531      -0.00262828      -0.03776570
Pt       5.61442762       3.24149120      22.29206786        3       0.00000000      -0.00161909       0.00261739      -0.03540884
Pt       8.42164156       3.24149131      22.29206806        3       0.00000000       0.00356800      -0.00096865      -0.03773253
Pt       4.21082090       5.67260998      22.29206740        3       0.00000000       0.00307796       0.00008839      -0.03538124
Pt       7.01803486       5.67261041      22.29206774        3       0.00000000      -0.00146423      -0.00271887      -0.03536931
Pt       9.82524817       5.67261060      22.29206803        3       0.00000000      -0.00155118       0.00100431      -0.03789552
Pt      -0.00000054       1.62074568      24.58417374        2       0.00000000      -0.00832164      -0.00263995       0.04074138
Pt       2.80721436       1.62074546      24.58417392        2       0.00000000       0.00646295      -0.00570669       0.04056348
Pt       5.61442782       1.62074536      24.58417379        2       0.00000000      -0.00216120       0.02626625      -0.00393981
Pt       1.40360636       4.05186439      24.58417387        2       0.00000000       0.00174809       0.00842673       0.04026671
Pt       4.21082089       4.05186396      24.58417387        2       0.00000000      -0.00539783      -0.00181074       0.03920456
Pt       7.01803504       4.05186408      24.58417404        2       0.00000000       0.00437604      -0.00368793       0.03923214
Pt       2.80721273       6.48298349      24.58417384        2       0.00000000       0.02380525      -0.01133379      -0.00389002
Pt       5.61442806       6.48298330      24.58417399        2       0.00000000       0.00103998       0.00571449       0.03951740
Pt       8.42164222       6.48298344      24.58417375        2       0.00000000      -0.02156041      -0.01518731      -0.00406627
Pt       0.00129453      -0.00063316      26.91716362        1       0.00000000      -0.00075575       0.00116437       0.00051601
Pt       2.80510562       0.00116223      26.91746382        1       0.00000000       0.00099125       0.00112048       0.00078961
Pt       5.61439486      -0.00000228      26.90733311        1       0.00000000       0.00031561       0.00011100      -0.00256650
Pt       1.40363564       2.43111493      26.91352215        1       0.00000000      -0.00026069      -0.00057629      -0.00335413
Pt       4.21072232       2.43280843      26.91722598        1       0.00000000      -0.00039608      -0.00169533       0.00083774
Pt       7.02010703       2.43268248      26.91758557        1       0.00000000       0.00046510      -0.00243401       0.00076560
Pt       2.80725382       4.85951957      26.91752373        1       0.00000000      -0.00150796       0.00133372       0.00091289
Pt       5.61443108       4.86225956      26.91183098        1       0.00000000      -0.00005323       0.00050941       0.00179544
Pt       8.42044658       4.86119440      26.91724696        1       0.00000000       0.00118338       0.00052226       0.00086105
O        5.61439390       0.00015457      30.22602583        0       0.50000000      -0.00003688       0.00024197       0.03831593
H        5.61446852      -0.00021981      29.23545767        0       0.50000000       0.00006673      -0.00032664      -0.03782644
