38
Lattice="8.421641763931781 0.0 0.0 4.2108208819658905 7.293355709136913 0.0 0.0 0.0 46.87624170604845" Properties=species:S:1:pos:R:3:tags:I:1:initial_magmoms:R:1:forces:R:3 charge=0 spin=0 energy=-194.41436907345616 free_energy=-194.41436907345616 stress="0.010243475437164307 4.4922106923195315e-08 6.205127522918019e-10 4.4922106923195315e-08 0.010243484750390053 1.6679050363066494e-09 6.205127522918019e-10 1.6679050363066494e-09 -6.932215910637751e-05" pbc="T T T"
Pt      -0.00000011      -0.00000005      19.95723442        4       0.00000000       0.00108399      -0.00102745       0.01196973
Pt       2.80721395      -0.00000019      19.95723450        4       0.00000000       0.00007417      -0.00063874       0.01171729
Pt       5.61442786      -0.00000007      19.95723452        4       0.00000000       0.00000066       0.00000256       0.01165962
Pt       1.40360721       2.43111839      19.95723434        4       0.00000000      -0.00000178       0.00000301       0.01213536
Pt       4.21082082       2.43111837      19.95723444        4       0.00000000       0.00034827       0.00146432       0.01196979
Pt       7.01803481       2.43111844      19.95723433        4       0.00000000      -0.00059294       0.00025827       0.01170378
Pt       2.80721415       4.86223733      19.95723415        4       0.00000000       0.00051424       0.00037955       0.01170917
Pt       5.61442796       4.86223739      19.95723433        4       0.00000000       0.00000147      -0.00000610       0.00949469
Pt       8.42164143       4.86223725      19.95723439        4       0.00000000      -0.00142790      -0.00043687       0.01196411
Pt       1.40360728       0.81037261      22.29206792        3       0.00000000      -0.00115535       0.00399145      -0.03782315
Pt       4.21082128       0.81037249      22.29206789        3       0.00000000       0.00161440       0.00083571      -0.03884628
Pt       7.01803472       0.81037258      22.29206780        3       0.00000000      -0.00009774      -0.00179324      -0.03883145
Pt       2.80721447       3.24149123      22.29206774        3       0.00000000      -0.00287476      -0.00300548      -0.03777691
Pt       5.61442762       3.24149120      22.29206786        3       0.00000000      -0.00165700       0.00235105      -0.03410954
Pt       8.42164156       3.24149131      22.29206806        3       0.00000000       0.00402985      -0.00099038      -0.03775758
Pt       4.21082090       5.67260998      22.29206740        3       0.00000000       0.00286042       0.00026100      -0.03409477
Pt       7.01803486       5.67261041      22.29206774        3       0.00000000      -0.00120354      -0.00261624      -0.03410453
Pt       9.82524817       5.67261060      22.29206803        3       0.00000000      -0.00151638       0.00096355      -0.03878044
Pt      -0.00000054       1.62074568      24.58417374        2       0.00000000      -0.00342432       0.00034937       0.05153351
Pt       2.80721436       1.62074546      24.58417392        2       0.00000000       0.00138304      -0.00312451       0.05157138
Pt       5.61442782       1.62074536      24.58417379        2       0.00000000      -0.00188765       0.03257503      -0.01069372
Pt       1.40360636       4.05186439      24.58417387        2       0.00000000       0.00200132       0.00278427       0.05151535
Pt       4.21082089       4.05186396      24.58417387        2       0.00000000       0.00002255       0.00138780       0.05378276
Pt       7.01803504       4.05186408      24.58417404        2       0.00000000      -0.00117841      -0.00066149       0.05379592
Pt       2.80721273       6.48298349      24.58417384        2       0.00000000       0.02920489      -0.01467493      -0.01069729
Pt       5.61442806       6.48298330      24.58417399        2       0.00000000       0.00116539      -0.00065870       0.05385122
Pt       8.42164222       6.48298344      24.58417375        2       0.00000000      -0.02728755      -0.01796984      -0.01065472
Pt       0.00026411      -0.00067573      26.91773670        1       0.00000000       0.01228810       0.00126399      -0.00135023
Pt       2.80536706       0.00121740      26.91812609        1       0.00000000      -0.00894639       0.00087600      -0.00164978
Pt       5.61442613      -0.00000574      26.90409536        1       0.00000000      -0.00003199       0.00004240       0.00070618
Pt       1.40361176       2.43113245      26.91920829        1       0.00000000       0.00000865      -0.00018637      -0.03345368
Pt       4.21129339       2.43175017      26.91773084        1       0.00000000      -0.00717779       0.01051809      -0.00105767
Pt       7.02003332       2.43214819      26.91814241        1       0.00000000       0.00517303       0.00800962      -0.00133409
Pt       2.80706664       4.85999204      26.91811556        1       0.00000000       0.00373690      -0.00886844      -0.00139351
Pt       5.61442344       4.86223466      26.91888415        1       0.00000000       0.00002585       0.00013767      -0.03535510
Pt       8.42090136       4.86228888      26.91776957        1       0.00000000      -0.00507520      -0.01179737      -0.00111461
O        5.61442917      -0.00000366      30.19490381        0       0.50000000       0.00000509      -0.00000718       0.00710040
H        5.61442263       0.00000377      29.20274555        0       0.50000000      -0.00000594       0.00000863       0.01269869
