38
Lattice="8.421641763931781 0.0 0.0 4.2108208819658905 7.293355709136913 0.0 0.0 0.0 46.87624170604845" Properties=species:S:1:pos:R:3:tags:I:1:initial_magmoms:R:1:forces:R:3 charge=0 spin=0 energy=-194.41437479550206 free_energy=-194.41437479550206 stress="0.01024347823113203 4.0683790558659894e-08 -9.844367099276496e-09 4.0683790558659894e-08 0.010243486613035202 -7.50833084595115e-09 -9.844367099276496e-09 -7.50833084595115e-09 -6.933575787115842e-05" pbc="T T T"
Pt      -0.00000011      -0.00000005      19.95723442        4       0.00000000       0.00007441      -0.00063786       0.01171538
Pt       2.80721395      -0.00000019      19.95723450        4       0.00000000      -0.00000061       0.00000213       0.01165858
Pt       5.61442786      -0.00000007      19.95723452        4       0.00000000       0.00108505      -0.00102788       0.01197217
Pt       1.40360721       2.43111839      19.95723434        4       0.00000000       0.00034512       0.00146464       0.01197989
Pt       4.21082082       2.43111837      19.95723444        4       0.00000000      -0.00058978       0.00025886       0.01169484
Pt       7.01803481       2.43111844      19.95723433        4       0.00000000      -0.00000178       0.00000187       0.01213487
Pt       2.80721415       4.86223733      19.95723415        4       0.00000000      -0.00000101      -0.00000495       0.00949694
Pt       5.61442796       4.86223739      19.95723433        4       0.00000000      -0.00142954      -0.00043748       0.01197056
Pt       8.42164143       4.86223725      19.95723439        4       0.00000000       0.00051843       0.00037994       0.01170192
Pt       1.40360728       0.81037261      22.29206792        3       0.00000000       0.00161416       0.00083435      -0.03884519
Pt       4.21082128       0.81037249      22.29206789        3       0.00000000      -0.00009944      -0.00179057      -0.03882941
Pt       7.01803472       0.81037258      22.29206780        3       0.00000000      -0.00115284       0.00399097      -0.03782611
Pt       2.80721447       3.24149123      22.29206774        3       0.00000000      -0.00166868       0.00235192      -0.03410801
Pt       5.61442762       3.24149120      22.29206786        3       0.00000000       0.00402986      -0.00098742      -0.03775566
Pt       8.42164156       3.24149131      22.29206806        3       0.00000000      -0.00286228      -0.00300968      -0.03777976
Pt       4.21082090       5.67260998      22.29206740        3       0.00000000      -0.00119783      -0.00261076      -0.03409212
Pt       7.01803486       5.67261041      22.29206774        3       0.00000000      -0.00153027       0.00096819      -0.03877833
Pt       9.82524817       5.67261060      22.29206803        3       0.00000000       0.00286924       0.00025004      -0.03411484
Pt      -0.00000054       1.62074568      24.58417374        2       0.00000000       0.00138917      -0.00312954       0.05156970
Pt       2.80721436       1.62074546      24.58417392        2       0.00000000      -0.00188982       0.03256706      -0.01068984
Pt       5.61442782       1.62074536      24.58417379        2       0.00000000      -0.00342959       0.00035465       0.05153396
Pt       1.40360636       4.05186439      24.58417387        2       0.00000000       0.00002645       0.00137803       0.05378303
Pt       4.21082089       4.05186396      24.58417387        2       0.00000000      -0.00117484      -0.00066093       0.05379116
Pt       7.01803504       4.05186408      24.58417404        2       0.00000000       0.00199138       0.00278822       0.05151426
Pt       2.80721273       6.48298349      24.58417384        2       0.00000000       0.00118495      -0.00066211       0.05385892
Pt       5.61442806       6.48298330      24.58417399        2       0.00000000      -0.02728100      -0.01796573      -0.01066031
Pt       8.42164222       6.48298344      24.58417375        2       0.00000000       0.02917932      -0.01466712      -0.01068641
Pt      -0.00184603       0.00121677      26.91812535        1       0.00000000      -0.00895960       0.00087230      -0.00165307
Pt       2.80721208      -0.00000605      26.90409871        1       0.00000000      -0.00003295       0.00004081       0.00069446
Pt       5.61469047      -0.00067655      26.91773832        1       0.00000000       0.01229468       0.00126370      -0.00135462
Pt       1.40407882       2.43174899      26.91773002        1       0.00000000      -0.00717947       0.01052071      -0.00105829
Pt       4.21281889       2.43214585      26.91814289        1       0.00000000       0.00517697       0.00801769      -0.00133380
Pt       7.01803868       2.43113160      26.91920833        1       0.00000000       0.00001217      -0.00019025      -0.03347192
Pt       2.80720864       4.86223189      26.91888322        1       0.00000000       0.00001787       0.00015214      -0.03533273
Pt       5.61368739       4.86228951      26.91776893        1       0.00000000      -0.00507919      -0.01180440      -0.00110805
Pt       8.42149263       4.85999348      26.91811579        1       0.00000000       0.00374304      -0.00887937      -0.00139151
O        2.80722068      -0.00000151      30.19492461        0       0.50000000       0.00001804      -0.00000219       0.00716639
H        2.80720962       0.00000742      29.20276774        0       0.50000000      -0.00001005       0.00001013       0.01263237
