38
Lattice="8.421641763931781 0.0 0.0 4.2108208819658905 7.293355709136913 0.0 0.0 0.0 46.87624170604845" Properties=species:S:1:pos:R:3:tags:I:1:initial_magmoms:R:1:forces:R:3 charge=0 spin=0 energy=-194.41469332272374 free_energy=-194.41469332272374 stress="0.010195479728281498 3.1689477708596314e-08 -1.0374900050180713e-08 3.1689477708596314e-08 0.010195444338023663 1.118612313888434e-08 -1.0374900050180713e-08 1.118612313888434e-08 -0.00015400460688397288" pbc="T T T"
Pt      -0.00000011      -0.00000005      19.95723442        4       0.00000000       0.00094735      -0.00102536       0.01206922
Pt       2.80721395      -0.00000019      19.95723450        4       0.00000000       0.00009241      -0.00054847       0.01179543
Pt       5.61442786      -0.00000007      19.95723452        4       0.00000000       0.00000101       0.00000471       0.01153934
Pt       1.40360721       2.43111839      19.95723434        4       0.00000000      -0.00000227       0.00000650       0.01175325
Pt       4.21082082       2.43111837      19.95723444        4       0.00000000       0.00040685       0.00134870       0.01206214
Pt       7.01803481       2.43111844      19.95723433        4       0.00000000      -0.00051748       0.00020270       0.01178339
Pt       2.80721415       4.86223733      19.95723415        4       0.00000000       0.00042170       0.00034370       0.01178642
Pt       5.61442796       4.86223739      19.95723433        4       0.00000000       0.00000151      -0.00001150       0.00972563
Pt       8.42164143       4.86223725      19.95723439        4       0.00000000      -0.00135021      -0.00032328       0.01206218
Pt       1.40360728       0.81037261      22.29206792        3       0.00000000      -0.00089070       0.00346126      -0.03771590
Pt       4.21082128       0.81037249      22.29206789        3       0.00000000       0.00163872       0.00079342      -0.03805605
Pt       7.01803472       0.81037258      22.29206780        3       0.00000000      -0.00014831      -0.00179292      -0.03803911
Pt       2.80721447       3.24149123      22.29206774        3       0.00000000      -0.00256262      -0.00252536      -0.03761258
Pt       5.61442762       3.24149120      22.29206786        3       0.00000000      -0.00156530       0.00252573      -0.03534636
Pt       8.42164156       3.24149131      22.29206806        3       0.00000000       0.00345728      -0.00096666      -0.03758732
Pt       4.21082090       5.67260998      22.29206740        3       0.00000000       0.00297326       0.00009003      -0.03533686
Pt       7.01803486       5.67261041      22.29206774        3       0.00000000      -0.00141048      -0.00262433      -0.03534108
Pt       9.82524817       5.67261060      22.29206803        3       0.00000000      -0.00149185       0.00103613      -0.03793451
Pt      -0.00000054       1.62074568      24.58417374        2       0.00000000      -0.01238722      -0.00481674       0.03224092
Pt       2.80721436       1.62074546      24.58417392        2       0.00000000       0.01041145      -0.00814270       0.03226407
Pt       5.61442782       1.62074536      24.58417379        2       0.00000000      -0.00207704       0.03186753      -0.01248479
Pt       1.40360636       4.05186439      24.58417387        2       0.00000000       0.00192879       0.01306091       0.03207275
Pt       4.21082089       4.05186396      24.58417387        2       0.00000000      -0.01027332      -0.00443413       0.02956808
Pt       7.01803504       4.05186408      24.58417404        2       0.00000000       0.00903459      -0.00661306       0.02954647
Pt       2.80721273       6.48298349      24.58417384        2       0.00000000       0.02861062      -0.01424954      -0.01253793
Pt       5.61442806       6.48298330      24.58417399        2       0.00000000       0.00124263       0.01119169       0.02968604
Pt       8.42164222       6.48298344      24.58417375        2       0.00000000      -0.02649363      -0.01785876      -0.01251649
Pt       0.00153780      -0.00062993      26.91696689        1       0.00000000      -0.00276231       0.00128656       0.00114506
Pt       2.80497868       0.00116936      26.91750912        1       0.00000000       0.00274046       0.00135535       0.00014701
Pt       5.61442774       0.00000358      26.90206431        1       0.00000000      -0.00000486      -0.00000968       0.03033465
Pt       1.40360675       2.43108828      26.90866232        1       0.00000000       0.00001915      -0.00024945       0.02217534
Pt       4.21061940       2.43296891      26.91704555        1       0.00000000       0.00028735      -0.00325802       0.00121925
Pt       7.02017512       2.43268151      26.91760353        1       0.00000000      -0.00019869      -0.00329907       0.00025027
Pt       2.80730821       4.85951264      26.91756276        1       0.00000000      -0.00255492       0.00191070       0.00025021
Pt       5.61442787       4.86226615      26.90630294        1       0.00000000      -0.00002759       0.00027199       0.03121906
Pt       8.42030536       4.86101640      26.91706114        1       0.00000000       0.00249521       0.00200229       0.00127080
O        5.61442478       0.00000216      30.23256814        0       0.50000000       0.00000550      -0.00001435      -0.00557488
H        5.61442967       0.00000058      29.24129985        0       0.50000000       0.00000313       0.00000325      -0.00188312
