38
Lattice="8.421641763931781 0.0 0.0 4.2108208819658905 7.293355709136913 0.0 0.0 0.0 46.87624170604845" Properties=species:S:1:pos:R:3:tags:I:1:initial_magmoms:R:1:forces:R:3 charge=0 spin=0 energy=-194.41490885311924 free_energy=-194.41490885311924 stress="0.010227127932012081 6.601403157446839e-08 -2.611123939288973e-08 6.601403157446839e-08 0.010227060876786709 -2.4834088563352452e-08 -2.611123939288973e-08 -2.4834088563352452e-08 -0.00011161686416016892" pbc="T T T"
Pt      -0.00000011      -0.00000005      19.95723442        4       0.00000000       0.00010296      -0.00057718       0.01176085
Pt       2.80721395      -0.00000019      19.95723450        4       0.00000000      -0.00000268       0.00000221       0.01172893
Pt       5.61442786      -0.00000007      19.95723452        4       0.00000000       0.00096281      -0.00104676       0.01203635
Pt       1.40360721       2.43111839      19.95723434        4       0.00000000       0.00041057       0.00137168       0.01203199
Pt       4.21082082       2.43111837      19.95723444        4       0.00000000      -0.00054062       0.00021367       0.01174161
Pt       7.01803481       2.43111844      19.95723433        4       0.00000000      -0.00000213       0.00000795       0.01196886
Pt       2.80721415       4.86223733      19.95723415        4       0.00000000       0.00000092      -0.00001152       0.00978490
Pt       5.61442796       4.86223739      19.95723433        4       0.00000000      -0.00137352      -0.00032578       0.01203078
Pt       8.42164143       4.86223725      19.95723439        4       0.00000000       0.00044105       0.00036331       0.01174488
Pt       1.40360728       0.81037261      22.29206792        3       0.00000000       0.00163700       0.00086496      -0.03804190
Pt       4.21082128       0.81037249      22.29206789        3       0.00000000      -0.00008723      -0.00182358      -0.03803229
Pt       7.01803472       0.81037258      22.29206780        3       0.00000000      -0.00094792       0.00355352      -0.03788804
Pt       2.80721447       3.24149123      22.29206774        3       0.00000000      -0.00163032       0.00261695      -0.03539750
Pt       5.61442762       3.24149120      22.29206786        3       0.00000000       0.00356947      -0.00096601      -0.03772908
Pt       8.42164156       3.24149131      22.29206806        3       0.00000000      -0.00260443      -0.00263182      -0.03776551
Pt       4.21082090       5.67260998      22.29206740        3       0.00000000      -0.00146057      -0.00271007      -0.03536163
Pt       7.01803486       5.67261041      22.29206774        3       0.00000000      -0.00156591       0.00101301      -0.03788866
Pt       9.82524817       5.67261060      22.29206803        3       0.00000000       0.00308623       0.00008101      -0.03540305
Pt      -0.00000054       1.62074568      24.58417374        2       0.00000000       0.00647306      -0.00572385       0.04054594
Pt       2.80721436       1.62074546      24.58417392        2       0.00000000      -0.00216258       0.02624649      -0.00391889
Pt       5.61442782       1.62074536      24.58417379        2       0.00000000      -0.00833837      -0.00264112       0.04074616
Pt       1.40360636       4.05186439      24.58417387        2       0.00000000      -0.00540055      -0.00181952       0.03915103
Pt       4.21082089       4.05186396      24.58417387        2       0.00000000       0.00439539      -0.00368582       0.03921540
Pt       7.01803504       4.05186408      24.58417404        2       0.00000000       0.00173327       0.00844232       0.04023931
Pt       2.80721273       6.48298349      24.58417384        2       0.00000000       0.00106744       0.00572036       0.03951919
Pt       5.61442806       6.48298330      24.58417399        2       0.00000000      -0.02156989      -0.01520017      -0.00407100
Pt       8.42164222       6.48298344      24.58417375        2       0.00000000       0.02380263      -0.01133782      -0.00390921
Pt      -0.00210078       0.00116340      26.91746517        1       0.00000000       0.00097325       0.00109245       0.00075996
Pt       2.80718821      -0.00000930      26.90732326        1       0.00000000       0.00027520       0.00011099      -0.00249649
Pt       5.61572359      -0.00063626      26.91716569        1       0.00000000      -0.00074964       0.00118432       0.00049877
Pt       1.40350676       2.43281590      26.91722548        1       0.00000000      -0.00037494      -0.00178627       0.00084724
Pt       4.21288614       2.43268289      26.91758897        1       0.00000000       0.00050808      -0.00247019       0.00074090
Pt       7.01806601       2.43111584      26.91351234        1       0.00000000      -0.00029691      -0.00065120      -0.00330232
Pt       2.80721123       4.86225078      26.91182017        1       0.00000000       0.00001461       0.00054626       0.00186168
Pt       5.61323629       4.86118201      26.91724939        1       0.00000000       0.00115259       0.00058456       0.00085358
Pt       8.42168561       4.85951070      26.91752330        1       0.00000000      -0.00152524       0.00138276       0.00094268
O        2.80718916       0.00001113      30.22610154        0       0.50000000      -0.00000695       0.00002823       0.03854561
H        2.80722951      -0.00001453      29.23554122        0       0.50000000       0.00003390      -0.00001825      -0.03809090
