38
Lattice="8.421641763931781 0.0 0.0 4.2108208819658905 7.293355709136913 0.0 0.0 0.0 46.87624170604845" Properties=species:S:1:pos:R:3:tags:I:1:initial_magmoms:R:1:forces:R:3 charge=0 spin=0 energy=-194.41437861019932 free_energy=-194.41437861019932 stress="0.010243459604680538 1.6248108636318648e-08 -1.1924040421718018e-08 1.6248108636318648e-08 0.010243435390293598 7.044171468351124e-09 -1.1924040421718018e-08 7.044171468351124e-09 -6.935177225386724e-05" pbc="T T T"
Pt      -0.00000011      -0.00000005      19.95723442        4       0.00000000       0.00007424      -0.00063808       0.01171534
Pt       2.80721395      -0.00000019      19.95723450        4       0.00000000      -0.00000048       0.00000220       0.01165877
Pt       5.61442786      -0.00000007      19.95723452        4       0.00000000       0.00108527      -0.00102804       0.01197215
Pt       1.40360721       2.43111839      19.95723434        4       0.00000000       0.00034502       0.00146488       0.01197972
Pt       4.21082082       2.43111837      19.95723444        4       0.00000000      -0.00058958       0.00025911       0.01169426
Pt       7.01803481       2.43111844      19.95723433        4       0.00000000      -0.00000200       0.00000180       0.01213472
Pt       2.80721415       4.86223733      19.95723415        4       0.00000000      -0.00000082      -0.00000502       0.00949628
Pt       5.61442796       4.86223739      19.95723433        4       0.00000000      -0.00142980      -0.00043764       0.01197015
Pt       8.42164143       4.86223725      19.95723439        4       0.00000000       0.00051873       0.00037962       0.01170190
Pt       1.40360728       0.81037261      22.29206792        3       0.00000000       0.00161420       0.00083394      -0.03884630
Pt       4.21082128       0.81037249      22.29206789        3       0.00000000      -0.00009977      -0.00179106      -0.03882947
Pt       7.01803472       0.81037258      22.29206780        3       0.00000000      -0.00115305       0.00399089      -0.03782640
Pt       2.80721447       3.24149123      22.29206774        3       0.00000000      -0.00166888       0.00235208      -0.03410717
Pt       5.61442762       3.24149120      22.29206786        3       0.00000000       0.00402999      -0.00098766      -0.03775669
Pt       8.42164156       3.24149131      22.29206806        3       0.00000000      -0.00286236      -0.00300926      -0.03777994
Pt       4.21082090       5.67260998      22.29206740        3       0.00000000      -0.00119760      -0.00261084      -0.03409060
Pt       7.01803486       5.67261041      22.29206774        3       0.00000000      -0.00153021       0.00096883      -0.03877772
Pt       9.82524817       5.67261060      22.29206803        3       0.00000000       0.00286851       0.00025008      -0.03411298
Pt      -0.00000054       1.62074568      24.58417374        2       0.00000000       0.00139084      -0.00312980       0.05156577
Pt       2.80721436       1.62074546      24.58417392        2       0.00000000      -0.00188997       0.03257492      -0.01069892
Pt       5.61442782       1.62074536      24.58417379        2       0.00000000      -0.00343156       0.00035280       0.05153113
Pt       1.40360636       4.05186439      24.58417387        2       0.00000000       0.00002790       0.00137919       0.05378035
Pt       4.21082089       4.05186396      24.58417387        2       0.00000000      -0.00117425      -0.00066028       0.05378646
Pt       7.01803504       4.05186408      24.58417404        2       0.00000000       0.00199263       0.00279034       0.05151110
Pt       2.80721273       6.48298349      24.58417384        2       0.00000000       0.00118418      -0.00066131       0.05385304
Pt       5.61442806       6.48298330      24.58417399        2       0.00000000      -0.02728710      -0.01796933      -0.01066931
Pt       8.42164222       6.48298344      24.58417375        2       0.00000000       0.02918606      -0.01467102      -0.01069348
Pt      -0.00184689       0.00121742      26.91812443        1       0.00000000      -0.00895218       0.00087365      -0.00165178
Pt       2.80721217      -0.00000563      26.90409176        1       0.00000000      -0.00003149       0.00004159       0.00073555
Pt       5.61469140      -0.00067617      26.91773846        1       0.00000000       0.01229025       0.00126391      -0.00135547
Pt       1.40407870       2.43175038      26.91772986        1       0.00000000      -0.00717820       0.01051758      -0.00105926
Pt       4.21281941       2.43214707      26.91814313        1       0.00000000       0.00517357       0.00801235      -0.00133394
Pt       7.01803826       2.43113210      26.91920666        1       0.00000000       0.00002612      -0.00019129      -0.03345082
Pt       2.80721040       4.86223291      26.91888186        1       0.00000000      -0.00000019       0.00015657      -0.03534447
Pt       5.61368737       4.86228882      26.91776914        1       0.00000000      -0.00507788      -0.01179914      -0.00110731
Pt       8.42149363       4.85999277      26.91811573        1       0.00000000       0.00374176      -0.00887395      -0.00139211
O        2.80721922      -0.00000546      30.19492506        0       0.50000000       0.00001866      -0.00001605       0.00708497
H        2.80720821       0.00000736      29.20276590        0       0.50000000      -0.00001044       0.00001332       0.01271243
