38
Lattice="8.421641763931781 0.0 0.0 4.2108208819658905 7.293355709136913 0.0 0.0 0.0 46.87624170604845" Properties=species:S:1:pos:R:3:tags:I:1:initial_magmoms:R:1:forces:R:3 charge=0 spin=0 energy=-194.4149069457706 free_energy=-194.4149069457706 stress="0.010227152146399021 4.2112517917303194e-08 -2.895986384032767e-08 4.2112517917303194e-08 0.010227084159851074 -1.2875243982080065e-08 -2.895986384032767e-08 -1.2875243982080065e-08 -0.00011153186642332003" pbc="T T T"
Pt      -0.00000011      -0.00000005      19.95723442        4       0.00000000       0.00096206      -0.00104662       0.01203360
Pt       2.80721395      -0.00000019      19.95723450        4       0.00000000       0.00010277      -0.00057804       0.01176184
Pt       5.61442786      -0.00000007      19.95723452        4       0.00000000      -0.00000116       0.00000243       0.01172953
Pt       1.40360721       2.43111839      19.95723434        4       0.00000000      -0.00000300       0.00000867       0.01196996
Pt       4.21082082       2.43111837      19.95723444        4       0.00000000       0.00041397       0.00137043       0.01202299
Pt       7.01803481       2.43111844      19.95723433        4       0.00000000      -0.00054338       0.00021249       0.01175077
Pt       2.80721415       4.86223733      19.95723415        4       0.00000000       0.00043733       0.00036381       0.01175219
Pt       5.61442796       4.86223739      19.95723433        4       0.00000000       0.00000386      -0.00001149       0.00978295
Pt       8.42164143       4.86223725      19.95723439        4       0.00000000      -0.00137192      -0.00032518       0.01202431
Pt       1.40360728       0.81037261      22.29206792        3       0.00000000      -0.00095116       0.00355615      -0.03788115
Pt       4.21082128       0.81037249      22.29206789        3       0.00000000       0.00163830       0.00086614      -0.03803803
Pt       7.01803472       0.81037258      22.29206780        3       0.00000000      -0.00008655      -0.00182597      -0.03803259
Pt       2.80721447       3.24149123      22.29206774        3       0.00000000      -0.00261534      -0.00262820      -0.03776674
Pt       5.61442762       3.24149120      22.29206786        3       0.00000000      -0.00161876       0.00261734      -0.03540716
Pt       8.42164156       3.24149131      22.29206806        3       0.00000000       0.00356848      -0.00096851      -0.03773276
Pt       4.21082090       5.67260998      22.29206740        3       0.00000000       0.00307778       0.00008862      -0.03538121
Pt       7.01803486       5.67261041      22.29206774        3       0.00000000      -0.00146322      -0.00271835      -0.03536885
Pt       9.82524817       5.67261060      22.29206803        3       0.00000000      -0.00155089       0.00100501      -0.03789542
Pt      -0.00000054       1.62074568      24.58417374        2       0.00000000      -0.00832322      -0.00264111       0.04073974
Pt       2.80721436       1.62074546      24.58417392        2       0.00000000       0.00646516      -0.00570671       0.04056069
Pt       5.61442782       1.62074536      24.58417379        2       0.00000000      -0.00216209       0.02626956      -0.00394624
Pt       1.40360636       4.05186439      24.58417387        2       0.00000000       0.00174704       0.00842964       0.04026773
Pt       4.21082089       4.05186396      24.58417387        2       0.00000000      -0.00539587      -0.00181016       0.03920319
Pt       7.01803504       4.05186408      24.58417404        2       0.00000000       0.00437545      -0.00368907       0.03923166
Pt       2.80721273       6.48298349      24.58417384        2       0.00000000       0.02380741      -0.01133607      -0.00389328
Pt       5.61442806       6.48298330      24.58417399        2       0.00000000       0.00103829       0.00571495       0.03951103
Pt       8.42164222       6.48298344      24.58417375        2       0.00000000      -0.02156249      -0.01518930      -0.00406794
Pt       0.00129411      -0.00063377      26.91716426        1       0.00000000      -0.00075477       0.00117096       0.00051679
Pt       2.80510439       0.00116276      26.91746378        1       0.00000000       0.00099929       0.00112237       0.00078952
Pt       5.61439475      -0.00000148      26.90732996        1       0.00000000       0.00031178       0.00010496      -0.00254158
Pt       1.40363560       2.43111483      26.91352170        1       0.00000000      -0.00026412      -0.00057530      -0.00335340
Pt       4.21072305       2.43280890      26.91722606        1       0.00000000      -0.00039928      -0.00169682       0.00083711
Pt       7.02010469       2.43268123      26.91758565        1       0.00000000       0.00047665      -0.00242427       0.00076376
Pt       2.80725629       4.85951971      26.91752387        1       0.00000000      -0.00152299       0.00133280       0.00091234
Pt       5.61443273       4.86226230      26.91183139        1       0.00000000      -0.00006350       0.00048686       0.00179824
Pt       8.42044558       4.86119454      26.91724770        1       0.00000000       0.00119316       0.00052062       0.00085769
O        5.61439929       0.00014996      30.22604387        0       0.50000000      -0.00002134       0.00024903       0.03845774
H        5.61446333      -0.00021715      29.23547924        0       0.50000000       0.00005629      -0.00032156      -0.03796962
