38
Lattice="8.421641763931781 0.0 0.0 4.2108208819658905 7.293355709136913 0.0 0.0 0.0 46.87624170604845" Properties=species:S:1:pos:R:3:tags:I:1:initial_magmoms:R:1:forces:R:3 charge=0 spin=0 energy=-194.41490503842198 free_energy=-194.41490503842198 stress="0.010227090679109097 4.599342062761025e-08 -5.7165607358911075e-08 4.599342062761025e-08 0.010227018035948277 -1.0460237120923921e-08 -5.7165607358911075e-08 -1.0460237120923921e-08 -0.00011166570038767532" pbc="T T T"
Pt      -0.00000011      -0.00000005      19.95723442        4       0.00000000       0.00096222      -0.00104709       0.01203379
Pt       2.80721395      -0.00000019      19.95723450        4       0.00000000       0.00010230      -0.00057768       0.01176203
Pt       5.61442786      -0.00000007      19.95723452        4       0.00000000      -0.00000137       0.00000205       0.01172929
Pt       1.40360721       2.43111839      19.95723434        4       0.00000000      -0.00000245       0.00000901       0.01196969
Pt       4.21082082       2.43111837      19.95723444        4       0.00000000       0.00041287       0.00137103       0.01202278
Pt       7.01803481       2.43111844      19.95723433        4       0.00000000      -0.00054331       0.00021262       0.01175103
Pt       2.80721415       4.86223733      19.95723415        4       0.00000000       0.00043758       0.00036366       0.01175188
Pt       5.61442796       4.86223739      19.95723433        4       0.00000000       0.00000285      -0.00001107       0.00978229
Pt       8.42164143       4.86223725      19.95723439        4       0.00000000      -0.00137145      -0.00032497       0.01202425
Pt       1.40360728       0.81037261      22.29206792        3       0.00000000      -0.00095137       0.00355635      -0.03787918
Pt       4.21082128       0.81037249      22.29206789        3       0.00000000       0.00163820       0.00086597      -0.03803883
Pt       7.01803472       0.81037258      22.29206780        3       0.00000000      -0.00008715      -0.00182577      -0.03803458
Pt       2.80721447       3.24149123      22.29206774        3       0.00000000      -0.00261549      -0.00262878      -0.03776326
Pt       5.61442762       3.24149120      22.29206786        3       0.00000000      -0.00161933       0.00261699      -0.03540780
Pt       8.42164156       3.24149131      22.29206806        3       0.00000000       0.00356831      -0.00096817      -0.03773337
Pt       4.21082090       5.67260998      22.29206740        3       0.00000000       0.00307848       0.00008856      -0.03537768
Pt       7.01803486       5.67261041      22.29206774        3       0.00000000      -0.00146337      -0.00271793      -0.03536963
Pt       9.82524817       5.67261060      22.29206803        3       0.00000000      -0.00155288       0.00100443      -0.03789567
Pt      -0.00000054       1.62074568      24.58417374        2       0.00000000      -0.00832311      -0.00264245       0.04072309
Pt       2.80721436       1.62074546      24.58417392        2       0.00000000       0.00647091      -0.00571901       0.04055502
Pt       5.61442782       1.62074536      24.58417379        2       0.00000000      -0.00216394       0.02627709      -0.00395411
Pt       1.40360636       4.05186439      24.58417387        2       0.00000000       0.00174742       0.00843173       0.04022677
Pt       4.21082089       4.05186396      24.58417387        2       0.00000000      -0.00539511      -0.00181086       0.03917956
Pt       7.01803504       4.05186408      24.58417404        2       0.00000000       0.00437461      -0.00368563       0.03923967
Pt       2.80721273       6.48298349      24.58417384        2       0.00000000       0.02381708      -0.01134060      -0.00393613
Pt       5.61442806       6.48298330      24.58417399        2       0.00000000       0.00104833       0.00571625       0.03952657
Pt       8.42164222       6.48298344      24.58417375        2       0.00000000      -0.02157688      -0.01518859      -0.00405993
Pt       0.00128955      -0.00063370      26.91716203        1       0.00000000      -0.00070174       0.00116334       0.00053077
Pt       2.80510424       0.00116575      26.91746639        1       0.00000000       0.00100786       0.00108341       0.00075799
Pt       5.61440231      -0.00000548      26.90732458        1       0.00000000       0.00025183       0.00013614      -0.00253812
Pt       1.40363909       2.43111867      26.91351503        1       0.00000000      -0.00028666      -0.00061809      -0.00331475
Pt       4.21072151       2.43281352      26.91722477        1       0.00000000      -0.00037522      -0.00174285       0.00084707
Pt       7.02011035       2.43267852      26.91758606        1       0.00000000       0.00044424      -0.00240257       0.00076295
Pt       2.80725336       4.85951895      26.91752000        1       0.00000000      -0.00149455       0.00133534       0.00094618
Pt       5.61442658       4.86225689      26.91182811        1       0.00000000      -0.00001248       0.00052883       0.00179332
Pt       8.42045537       4.86118842      26.91724658        1       0.00000000       0.00111138       0.00056871       0.00086607
O        5.61438828       0.00016063      30.22598211        0       0.50000000      -0.00000152       0.00025241       0.03851609
H        5.61446348      -0.00021975      29.23541855        0       0.50000000       0.00006272      -0.00033172      -0.03799514
