38
Lattice="8.421641763931781 0.0 0.0 4.2108208819658905 7.293355709136913 0.0 0.0 0.0 46.87624170604845" Properties=species:S:1:pos:R:3:tags:I:1:initial_magmoms:R:1:forces:R:3 charge=0 spin=0 energy=-194.41480967099034 free_energy=-194.41480967099034 stress="0.010233854874968529 4.1399072614467514e-08 -1.7565989551826533e-08 4.1399072614467514e-08 0.010233852081000805 5.44017950687703e-07 -1.7565989551826533e-08 5.44017950687703e-07 -6.962003681110218e-05" pbc="T T T"
Pt      -0.00000011      -0.00000005      19.95723442        4       0.00000000       0.00001973      -0.00061459       0.01174513
Pt       2.80721395      -0.00000019      19.95723450        4       0.00000000      -0.00000136      -0.00000311       0.01178551
Pt       5.61442786      -0.00000007      19.95723452        4       0.00000000       0.00095353      -0.00102828       0.01199683
Pt       1.40360721       2.43111839      19.95723434        4       0.00000000       0.00042385       0.00134629       0.01200898
Pt       4.21082082       2.43111837      19.95723444        4       0.00000000      -0.00055070       0.00028835       0.01172331
Pt       7.01803481       2.43111844      19.95723433        4       0.00000000      -0.00000164       0.00000062       0.01206771
Pt       2.80721415       4.86223733      19.95723415        4       0.00000000      -0.00000148       0.00000165       0.00967792
Pt       5.61442796       4.86223739      19.95723433        4       0.00000000      -0.00137410      -0.00031930       0.01199751
Pt       8.42164143       4.86223725      19.95723439        4       0.00000000       0.00053178       0.00032750       0.01173243
Pt       1.40360728       0.81037261      22.29206792        3       0.00000000       0.00160070       0.00072912      -0.03810542
Pt       4.21082128       0.81037249      22.29206789        3       0.00000000      -0.00017457      -0.00173672      -0.03809015
Pt       7.01803472       0.81037258      22.29206780        3       0.00000000      -0.00114282       0.00365853      -0.03776949
Pt       2.80721447       3.24149123      22.29206774        3       0.00000000      -0.00166290       0.00268926      -0.03523454
Pt       5.61442762       3.24149120      22.29206786        3       0.00000000       0.00371591      -0.00080609      -0.03776763
Pt       8.42164156       3.24149131      22.29206806        3       0.00000000      -0.00256025      -0.00281376      -0.03778538
Pt       4.21082090       5.67260998      22.29206740        3       0.00000000      -0.00148256      -0.00276256      -0.03523517
Pt       7.01803486       5.67261041      22.29206774        3       0.00000000      -0.00143992       0.00097043      -0.03810043
Pt       9.82524817       5.67261060      22.29206803        3       0.00000000       0.00314358       0.00008084      -0.03524658
Pt      -0.00000054       1.62074568      24.58417374        2       0.00000000       0.00462594      -0.00414074       0.04309868
Pt       2.80721436       1.62074546      24.58417392        2       0.00000000      -0.00108238       0.02521896      -0.00300531
Pt       5.61442782       1.62074536      24.58417379        2       0.00000000      -0.00577178      -0.00220574       0.04309489
Pt       1.40360636       4.05186439      24.58417387        2       0.00000000      -0.00305529      -0.00023218       0.04316829
Pt       4.21082089       4.05186396      24.58417387        2       0.00000000       0.00169648      -0.00262874       0.04317902
Pt       7.01803504       4.05186408      24.58417404        2       0.00000000       0.00110796       0.00616354       0.04301118
Pt       2.80721273       6.48298349      24.58417384        2       0.00000000       0.00135877       0.00282717       0.04346826
Pt       5.61442806       6.48298330      24.58417399        2       0.00000000      -0.02144036      -0.01345461      -0.00286918
Pt       8.42164222       6.48298344      24.58417375        2       0.00000000       0.02256302      -0.01153140      -0.00285678
Pt      -0.00299057       0.00243710      26.91752921        1       0.00000000       0.00363204      -0.00456202       0.00082122
Pt       2.80721695      -0.00000834      26.90852405        1       0.00000000      -0.00005189       0.00002602      -0.01228268
Pt       5.61524069      -0.00157618      26.91698874        1       0.00000000       0.00200963       0.00376271       0.00190311
Pt       1.40458687       2.43250268      26.91683741        1       0.00000000      -0.00423840       0.00108819       0.00274270
Pt       4.21445432       2.43234302      26.91743489        1       0.00000000      -0.00587251       0.00061575       0.00157095
Pt       7.01803923       2.43123518      26.91572638        1       0.00000000       0.00001059      -0.00050832      -0.01402004
Pt       2.80720864       4.86213495      26.91445357        1       0.00000000       0.00001477       0.00044038      -0.01243357
Pt       5.61260901       4.86243941      26.91686651        1       0.00000000       0.00236883      -0.00490514       0.00272911
Pt       8.42101547       4.85856943      26.91739955        1       0.00000000       0.00211970       0.00399875       0.00151592
O        2.80722598      -0.00000297      30.21783205        0       0.50000000       0.00001817       0.00001083      -0.04214441
H        2.80721353       0.00000973      29.22499562        0       0.50000000      -0.00000998       0.00000835       0.04790818
