38
Lattice="8.421641763931781 0.0 0.0 4.2108208819658905 7.293355709136913 0.0 0.0 0.0 46.87624170604845" Properties=species:S:1:pos:R:3:tags:I:1:initial_magmoms:R:1:forces:R:3 charge=0 spin=0 energy=-194.41468760067784 free_energy=-194.41468760067784 stress="0.010195533744990826 2.7854142103933555e-08 3.127065539842988e-08 2.7854142103933555e-08 0.010195503942668438 -4.092298055979882e-09 3.127065539842988e-08 -4.092298055979882e-09 -0.00015387772873509675" pbc="T T T"
Pt      -0.00000011      -0.00000005      19.95723442        4       0.00000000       0.00009293      -0.00054794       0.01179399
Pt       2.80721395      -0.00000019      19.95723450        4       0.00000000      -0.00000042       0.00000442       0.01153907
Pt       5.61442786      -0.00000007      19.95723452        4       0.00000000       0.00094837      -0.00102557       0.01207157
Pt       1.40360721       2.43111839      19.95723434        4       0.00000000       0.00040387       0.00134915       0.01207198
Pt       4.21082082       2.43111837      19.95723444        4       0.00000000      -0.00051459       0.00020377       0.01177414
Pt       7.01803481       2.43111844      19.95723433        4       0.00000000      -0.00000210       0.00000521       0.01175300
Pt       2.80721415       4.86223733      19.95723415        4       0.00000000      -0.00000074      -0.00001113       0.00972703
Pt       5.61442796       4.86223739      19.95723433        4       0.00000000      -0.00135214      -0.00032384       0.01206844
Pt       8.42164143       4.86223725      19.95723439        4       0.00000000       0.00042608       0.00034344       0.01177912
Pt       1.40360728       0.81037261      22.29206792        3       0.00000000       0.00163795       0.00079149      -0.03805503
Pt       4.21082128       0.81037249      22.29206789        3       0.00000000      -0.00014895      -0.00179104      -0.03803613
Pt       7.01803472       0.81037258      22.29206780        3       0.00000000      -0.00088890       0.00346050      -0.03771859
Pt       2.80721447       3.24149123      22.29206774        3       0.00000000      -0.00157745       0.00252803      -0.03534678
Pt       5.61442762       3.24149120      22.29206786        3       0.00000000       0.00345724      -0.00096350      -0.03758604
Pt       8.42164156       3.24149131      22.29206806        3       0.00000000      -0.00255104      -0.00252829      -0.03761426
Pt       4.21082090       5.67260998      22.29206740        3       0.00000000      -0.00140449      -0.00261879      -0.03532800
Pt       7.01803486       5.67261041      22.29206774        3       0.00000000      -0.00150606       0.00104122      -0.03793000
Pt       9.82524817       5.67261060      22.29206803        3       0.00000000       0.00298098       0.00007910      -0.03535691
Pt      -0.00000054       1.62074568      24.58417374        2       0.00000000       0.01041597      -0.00814705       0.03226537
Pt       2.80721436       1.62074546      24.58417392        2       0.00000000      -0.00207731       0.03185100      -0.01246624
Pt       5.61442782       1.62074536      24.58417379        2       0.00000000      -0.01239224      -0.00480827       0.03224520
Pt       1.40360636       4.05186439      24.58417387        2       0.00000000      -0.01026488      -0.00444137       0.02957406
Pt       4.21082089       4.05186396      24.58417387        2       0.00000000       0.00903768      -0.00661001       0.02954880
Pt       7.01803504       4.05186408      24.58417404        2       0.00000000       0.00191894       0.01306557       0.03207882
Pt       2.80721273       6.48298349      24.58417384        2       0.00000000       0.00126348       0.01118549       0.02968997
Pt       5.61442806       6.48298330      24.58417399        2       0.00000000      -0.02647811      -0.01785240      -0.01250573
Pt       8.42164222       6.48298344      24.58417375        2       0.00000000       0.02857410      -0.01423821      -0.01250776
Pt      -0.00223514       0.00116986      26.91750932        1       0.00000000       0.00274379       0.00135121       0.00014648
Pt       2.80721390       0.00000297      26.90207438        1       0.00000000      -0.00000142      -0.00000639       0.03028135
Pt       5.61596602      -0.00062943      26.91696741        1       0.00000000      -0.00277455       0.00128274       0.00115123
Pt       1.40340517       2.43296897      26.91704597        1       0.00000000       0.00029894      -0.00325668       0.00121791
Pt       4.21296176       2.43268162      26.91760466        1       0.00000000      -0.00020480      -0.00330464       0.00024858
Pt       7.01803409       2.43108831      26.90866460        1       0.00000000       0.00003826      -0.00025200       0.02217384
Pt       2.80721386       4.86226782      26.90630505        1       0.00000000      -0.00001630       0.00025360       0.03121677
Pt       5.61309134       4.86101571      26.91706081        1       0.00000000       0.00250034       0.00200694       0.00126832
Pt       8.42173578       4.85951165      26.91756284        1       0.00000000      -0.00255381       0.00192158       0.00025206
O        2.80721404      -0.00000227      30.23259216        0       0.50000000      -0.00002896      -0.00000687      -0.00568073
H        2.80721224       0.00000426      29.24132181        0       0.50000000       0.00000063       0.00000972      -0.00180500
