38
Lattice="8.421641763931781 0.0 0.0 4.2108208819658905 7.293355709136913 0.0 0.0 0.0 46.87624170604845" Properties=species:S:1:pos:R:3:tags:I:1:initial_magmoms:R:1:forces:R:3 charge=0 spin=0 energy=-194.41491457516514 free_energy=-194.41491457516514 stress="0.010227123275399208 3.774877299633772e-08 2.4998783487717446e-08 3.774877299633772e-08 0.010227044112980366 -6.637127736297543e-09 2.4998783487717446e-08 -6.637127736297543e-09 -0.00011163939052494243" pbc="T T T"
Pt      -0.00000011      -0.00000005      19.95723442        4       0.00000000       0.00010288      -0.00057668       0.01176118
Pt       2.80721395      -0.00000019      19.95723450        4       0.00000000      -0.00000237       0.00000194       0.01172876
Pt       5.61442786      -0.00000007      19.95723452        4       0.00000000       0.00096296      -0.00104656       0.01203612
Pt       1.40360721       2.43111839      19.95723434        4       0.00000000       0.00041035       0.00137170       0.01203228
Pt       4.21082082       2.43111837      19.95723444        4       0.00000000      -0.00054048       0.00021365       0.01174144
Pt       7.01803481       2.43111844      19.95723433        4       0.00000000      -0.00000208       0.00000799       0.01196899
Pt       2.80721415       4.86223733      19.95723415        4       0.00000000       0.00000099      -0.00001151       0.00978449
Pt       5.61442796       4.86223739      19.95723433        4       0.00000000      -0.00137325      -0.00032590       0.01203071
Pt       8.42164143       4.86223725      19.95723439        4       0.00000000       0.00044145       0.00036317       0.01174458
Pt       1.40360728       0.81037261      22.29206792        3       0.00000000       0.00163732       0.00086503      -0.03804029
Pt       4.21082128       0.81037249      22.29206789        3       0.00000000      -0.00008702      -0.00182275      -0.03803265
Pt       7.01803472       0.81037258      22.29206780        3       0.00000000      -0.00094791       0.00355438      -0.03788595
Pt       2.80721447       3.24149123      22.29206774        3       0.00000000      -0.00163042       0.00261757      -0.03539885
Pt       5.61442762       3.24149120      22.29206786        3       0.00000000       0.00356947      -0.00096447      -0.03772957
Pt       8.42164156       3.24149131      22.29206806        3       0.00000000      -0.00260388      -0.00263168      -0.03776496
Pt       4.21082090       5.67260998      22.29206740        3       0.00000000      -0.00145950      -0.00271027      -0.03536124
Pt       7.01803486       5.67261041      22.29206774        3       0.00000000      -0.00156543       0.00101342      -0.03789003
Pt       9.82524817       5.67261060      22.29206803        3       0.00000000       0.00308799       0.00008136      -0.03540255
Pt      -0.00000054       1.62074568      24.58417374        2       0.00000000       0.00646990      -0.00572162       0.04054796
Pt       2.80721436       1.62074546      24.58417392        2       0.00000000      -0.00216671       0.02624514      -0.00391650
Pt       5.61442782       1.62074536      24.58417379        2       0.00000000      -0.00832880      -0.00264281       0.04073077
Pt       1.40360636       4.05186439      24.58417387        2       0.00000000      -0.00539428      -0.00181850       0.03917444
Pt       4.21082089       4.05186396      24.58417387        2       0.00000000       0.00439006      -0.00368191       0.03923388
Pt       7.01803504       4.05186408      24.58417404        2       0.00000000       0.00173409       0.00843666       0.04024134
Pt       2.80721273       6.48298349      24.58417384        2       0.00000000       0.00106435       0.00571148       0.03952427
Pt       5.61442806       6.48298330      24.58417399        2       0.00000000      -0.02157356      -0.01519554      -0.00406738
Pt       8.42164222       6.48298344      24.58417375        2       0.00000000       0.02379605      -0.01133979      -0.00392059
Pt      -0.00210940       0.00116458      26.91746549        1       0.00000000       0.00100269       0.00108193       0.00076081
Pt       2.80718690      -0.00001085      26.90732704        1       0.00000000       0.00025798       0.00012050      -0.00253074
Pt       5.61571605      -0.00063731      26.91716324        1       0.00000000      -0.00071159       0.00117433       0.00051832
Pt       1.40350465       2.43281005      26.91722457        1       0.00000000      -0.00036297      -0.00174794       0.00084162
Pt       4.21289358       2.43267542      26.91758603        1       0.00000000       0.00045495      -0.00241412       0.00075782
Pt       7.01806289       2.43111612      26.91351662        1       0.00000000      -0.00024841      -0.00064512      -0.00332862
Pt       2.80721280       4.86225144      26.91182430        1       0.00000000       0.00000881       0.00052846       0.00181800
Pt       5.61323908       4.86118583      26.91724907        1       0.00000000       0.00111629       0.00055950       0.00085220
Pt       8.42168160       4.85951350      26.91752206        1       0.00000000      -0.00149603       0.00135147       0.00094425
O        2.80720097       0.00001574      30.22606307        0       0.50000000      -0.00004994       0.00001339       0.03860685
H        2.80723684      -0.00000991      29.23550196        0       0.50000000       0.00003591      -0.00001600      -0.03811168
