38
Lattice="8.421641763931781 0.0 0.0 4.2108208819658905 7.293355709136913 0.0 0.0 0.0 46.87624170604845" Properties=species:S:1:pos:R:3:tags:I:1:initial_magmoms:R:1:forces:R:3 charge=0 spin=0 energy=-194.4148134856876 free_energy=-194.4148134856876 stress="0.01023384090512991 2.085603334478492e-08 -2.432789258932644e-08 2.085603334478492e-08 0.010233870707452297 5.709384822694119e-07 -2.432789258932644e-08 5.709384822694119e-07 -6.951275281608105e-05" pbc="T T T"
Pt      -0.00000011      -0.00000005      19.95723442        4       0.00000000       0.00001947      -0.00061435       0.01174503
Pt       2.80721395      -0.00000019      19.95723450        4       0.00000000      -0.00000159      -0.00000289       0.01178591
Pt       5.61442786      -0.00000007      19.95723452        4       0.00000000       0.00095346      -0.00102837       0.01199696
Pt       1.40360721       2.43111839      19.95723434        4       0.00000000       0.00042376       0.00134639       0.01200858
Pt       4.21082082       2.43111837      19.95723444        4       0.00000000      -0.00055076       0.00028868       0.01172331
Pt       7.01803481       2.43111844      19.95723433        4       0.00000000      -0.00000212       0.00000078       0.01206769
Pt       2.80721415       4.86223733      19.95723415        4       0.00000000      -0.00000170       0.00000114       0.00967741
Pt       5.61442796       4.86223739      19.95723433        4       0.00000000      -0.00137421      -0.00031944       0.01199736
Pt       8.42164143       4.86223725      19.95723439        4       0.00000000       0.00053224       0.00032732       0.01173213
Pt       1.40360728       0.81037261      22.29206792        3       0.00000000       0.00160025       0.00072838      -0.03810584
Pt       4.21082128       0.81037249      22.29206789        3       0.00000000      -0.00017515      -0.00173763      -0.03808995
Pt       7.01803472       0.81037258      22.29206780        3       0.00000000      -0.00114361       0.00365679      -0.03777052
Pt       2.80721447       3.24149123      22.29206774        3       0.00000000      -0.00166270       0.00268926      -0.03523627
Pt       5.61442762       3.24149120      22.29206786        3       0.00000000       0.00371582      -0.00080694      -0.03776623
Pt       8.42164156       3.24149131      22.29206806        3       0.00000000      -0.00256113      -0.00281408      -0.03778617
Pt       4.21082090       5.67260998      22.29206740        3       0.00000000      -0.00148241      -0.00276300      -0.03523644
Pt       7.01803486       5.67261041      22.29206774        3       0.00000000      -0.00143990       0.00097070      -0.03809988
Pt       9.82524817       5.67261060      22.29206803        3       0.00000000       0.00314420       0.00008140      -0.03524500
Pt      -0.00000054       1.62074568      24.58417374        2       0.00000000       0.00462940      -0.00413737       0.04309771
Pt       2.80721436       1.62074546      24.58417392        2       0.00000000      -0.00108031       0.02521339      -0.00299113
Pt       5.61442782       1.62074536      24.58417379        2       0.00000000      -0.00576853      -0.00220298       0.04309503
Pt       1.40360636       4.05186439      24.58417387        2       0.00000000      -0.00305055      -0.00022958       0.04316680
Pt       4.21082089       4.05186396      24.58417387        2       0.00000000       0.00169730      -0.00262399       0.04317925
Pt       7.01803504       4.05186408      24.58417404        2       0.00000000       0.00110698       0.00616425       0.04301320
Pt       2.80721273       6.48298349      24.58417384        2       0.00000000       0.00135675       0.00282449       0.04346042
Pt       5.61442806       6.48298330      24.58417399        2       0.00000000      -0.02143453      -0.01345476      -0.00285460
Pt       8.42164222       6.48298344      24.58417375        2       0.00000000       0.02255373      -0.01152947      -0.00284295
Pt      -0.00299396       0.00243873      26.91752809        1       0.00000000       0.00366285      -0.00456656       0.00083011
Pt       2.80721618      -0.00000761      26.90852724        1       0.00000000      -0.00004612       0.00002352      -0.01229530
Pt       5.61524007      -0.00157565      26.91698715        1       0.00000000       0.00200347       0.00376399       0.00190890
Pt       1.40458903       2.43250554      26.91683703        1       0.00000000      -0.00423690       0.00107193       0.00274280
Pt       4.21445834       2.43234591      26.91743525        1       0.00000000      -0.00589210       0.00059756       0.00157090
Pt       7.01804193       2.43123526      26.91572833        1       0.00000000       0.00000792      -0.00048870      -0.01402409
Pt       2.80721142       4.86213655      26.91445492        1       0.00000000      -0.00000865       0.00043526      -0.01245266
Pt       5.61261050       4.86243817      26.91686745        1       0.00000000       0.00237118      -0.00488551       0.00272012
Pt       8.42101801       4.85856713      26.91740016        1       0.00000000       0.00211200       0.00402300       0.00151473
O        2.80720583      -0.00000802      30.21785348        0       0.50000000       0.00001223      -0.00001507      -0.04238190
H        2.80722138       0.00000815      29.22501210        0       0.50000000       0.00000983       0.00001230       0.04814448
