38
Lattice="8.421641763931781 0.0 0.0 4.2108208819658905 7.293355709136913 0.0 0.0 0.0 46.87624170604845" Properties=species:S:1:pos:R:3:tags:I:1:initial_magmoms:R:1:forces:R:3 charge=0 spin=0 energy=-194.41491457516514 free_energy=-194.41491457516514 stress="0.01022712979465723 5.198611674472886e-08 -3.634784917494471e-08 5.198611674472886e-08 0.010227048769593239 -8.374567705971003e-09 -3.634784917494471e-08 -8.374567705971003e-09 -0.00011149607598781586" pbc="T T T"
Pt      -0.00000011      -0.00000005      19.95723442        4       0.00000000       0.00010264      -0.00057664       0.01176133
Pt       2.80721395      -0.00000019      19.95723450        4       0.00000000      -0.00000265       0.00000235       0.01172921
Pt       5.61442786      -0.00000007      19.95723452        4       0.00000000       0.00096288      -0.00104663       0.01203597
Pt       1.40360721       2.43111839      19.95723434        4       0.00000000       0.00041084       0.00137164       0.01203264
Pt       4.21082082       2.43111837      19.95723444        4       0.00000000      -0.00054050       0.00021356       0.01174113
Pt       7.01803481       2.43111844      19.95723433        4       0.00000000      -0.00000190       0.00000795       0.01196905
Pt       2.80721415       4.86223733      19.95723415        4       0.00000000       0.00000087      -0.00001100       0.00978388
Pt       5.61442796       4.86223739      19.95723433        4       0.00000000      -0.00137345      -0.00032591       0.01203052
Pt       8.42164143       4.86223725      19.95723439        4       0.00000000       0.00044137       0.00036313       0.01174486
Pt       1.40360728       0.81037261      22.29206792        3       0.00000000       0.00163724       0.00086496      -0.03803873
Pt       4.21082128       0.81037249      22.29206789        3       0.00000000      -0.00008684      -0.00182374      -0.03803057
Pt       7.01803472       0.81037258      22.29206780        3       0.00000000      -0.00094794       0.00355416      -0.03788614
Pt       2.80721447       3.24149123      22.29206774        3       0.00000000      -0.00163042       0.00261811      -0.03539942
Pt       5.61442762       3.24149120      22.29206786        3       0.00000000       0.00357010      -0.00096510      -0.03773094
Pt       8.42164156       3.24149131      22.29206806        3       0.00000000      -0.00260379      -0.00263165      -0.03776555
Pt       4.21082090       5.67260998      22.29206740        3       0.00000000      -0.00146096      -0.00271112      -0.03536296
Pt       7.01803486       5.67261041      22.29206774        3       0.00000000      -0.00156514       0.00101226      -0.03789015
Pt       9.82524817       5.67261060      22.29206803        3       0.00000000       0.00308827       0.00008077      -0.03540276
Pt      -0.00000054       1.62074568      24.58417374        2       0.00000000       0.00647297      -0.00572647       0.04055533
Pt       2.80721436       1.62074546      24.58417392        2       0.00000000      -0.00216775       0.02623430      -0.00390452
Pt       5.61442782       1.62074536      24.58417379        2       0.00000000      -0.00832893      -0.00264457       0.04072860
Pt       1.40360636       4.05186439      24.58417387        2       0.00000000      -0.00539584      -0.00181953       0.03916924
Pt       4.21082089       4.05186396      24.58417387        2       0.00000000       0.00438487      -0.00368156       0.03923573
Pt       7.01803504       4.05186408      24.58417404        2       0.00000000       0.00173337       0.00843886       0.04023883
Pt       2.80721273       6.48298349      24.58417384        2       0.00000000       0.00106789       0.00571231       0.03953647
Pt       5.61442806       6.48298330      24.58417399        2       0.00000000      -0.02156902      -0.01518524      -0.00405168
Pt       8.42164222       6.48298344      24.58417375        2       0.00000000       0.02379260      -0.01133171      -0.00391709
Pt      -0.00210874       0.00116558      26.91746839        1       0.00000000       0.00101001       0.00107451       0.00074181
Pt       2.80719066      -0.00001151      26.90733535        1       0.00000000       0.00022952       0.00012826      -0.00257332
Pt       5.61571787      -0.00063608      26.91716609        1       0.00000000      -0.00071203       0.00116834       0.00051179
Pt       1.40350616       2.43281209      26.91722450        1       0.00000000      -0.00036871      -0.00176794       0.00084137
Pt       4.21289483       2.43267390      26.91758588        1       0.00000000       0.00044334      -0.00240585       0.00075835
Pt       7.01806425       2.43111661      26.91351557        1       0.00000000      -0.00027373      -0.00064771      -0.00331341
Pt       2.80720810       4.86224777      26.91182691        1       0.00000000       0.00002544       0.00055359       0.00180209
Pt       5.61323615       4.86118584      26.91724812        1       0.00000000       0.00112570       0.00056963       0.00085973
Pt       8.42168110       4.85951646      26.91752072        1       0.00000000      -0.00150447       0.00133537       0.00095519
O        2.80719844       0.00000789      30.22604236        0       0.50000000       0.00000268       0.00000603       0.03824688
H        2.80723596      -0.00000658      29.23547115        0       0.50000000       0.00003168      -0.00000762      -0.03774264
