31
Lattice="8.421641763931781 0.0 0.0 4.2108208819658905 7.293355709136913 0.0 0.0 0.0 44.584161137365626" Properties=species:S:1:pos:R:3:tags:I:1:forces:R:3 energy=-172.57989501953125 free_energy=-172.57989501953125 stress="0.010444427840411663 1.1745323824641218e-08 1.3973667556399505e-08 1.1745323824641218e-08 0.010553091764450073 -6.762966222595423e-05 1.3973667556399505e-08 -6.762966222595423e-05 -0.0001354809064650908" pbc="T T T"
Pt       1.40360696       0.81037286      20.00000000        3       0.00172980       0.00015725      -0.00500369
Pt       4.21082088       0.81037286      20.00000000        3      -0.00172682       0.00015798      -0.00500384
Pt       7.01803480       0.81037286      20.00000000        3      -0.00000218       0.00069542      -0.00966024
Pt       2.80721392       3.24149143      20.00000000        3       0.00000087      -0.00016577      -0.00903383
Pt       5.61442784       3.24149143      20.00000000        3      -0.00022015       0.00202597       0.00114822
Pt       8.42164176       3.24149143      20.00000000        3       0.00022006       0.00202694       0.00114813
Pt       4.21082088       5.67261000      20.00000000        3       0.00215688      -0.00053310      -0.00299358
Pt       7.01803480       5.67261000      20.00000000        3      -0.00000218      -0.00165439       0.01389834
Pt       9.82524872       5.67261000      20.00000000        3      -0.00215563      -0.00053198      -0.00299269
Pt       0.00000000       1.62074571      22.29208057        2      -0.00083236       0.02238947      -0.03542387
Pt       2.80721392       1.62074571      22.29208057        2       0.00000025      -0.03676802      -0.03857429
Pt       5.61442784       1.62074571      22.29208057        2       0.00083124       0.02238908      -0.03542238
Pt       1.40360696       4.05186428      22.29208057        2      -0.06290571       0.02315730      -0.00485316
Pt       4.21082088       4.05186428      22.29208057        2       0.06290577       0.02315554      -0.00485794
Pt       7.01803480       4.05186428      22.29208057        2      -0.00000133       0.05622255       0.04125130
Pt       2.80721392       6.48298285      22.29208057        2      -0.00000113      -0.01184140      -0.04683074
Pt       5.61442784       6.48298285      22.29208057        2       0.03640089      -0.06521948       0.02287884
Pt       8.42164176       6.48298285      22.29208057        2      -0.03639994      -0.06521975       0.02288199
Pt      -0.00082435       0.00225991      24.57164948        1      -0.02059696       0.00187114       0.02614573
Pt       2.80721389      -0.01279034      24.59023714        1       0.00000186       0.03806185      -0.01323323
Pt       5.61525245       0.00225954      24.57164923        1       0.02059520       0.00187361       0.02614403
Pt       1.41015968       2.42061385      24.57383847        1       0.00786235      -0.00326807       0.01765189
Pt       4.20426813       2.42061416      24.57383994        1      -0.00785875      -0.00327451       0.01765162
Pt       7.01803516       2.43103421      24.57686665        1      -0.00000306      -0.04154696       0.01433882
Pt       2.80721429       4.86225663      24.56783194        1      -0.00000441      -0.00920077       0.03424197
Pt       5.59768360       4.85323063      24.60467362        1      -0.00095031      -0.00083506      -0.03185953
Pt       8.43838517       4.85323049      24.60467501        1       0.00095559      -0.00083545      -0.03186788
N        7.01803573       4.86337102      27.59995739        0      -0.00009885      -0.00026213       0.01550579
H        7.01803479       5.82558659      27.25215530        0       0.00000426       0.00119798       0.03858064
H        7.83850688       4.40626309      27.19199393        0      -0.00738941       0.02286345      -0.00795225
H        6.19756166       4.40626249      27.19199362        0       0.00748409       0.02291118      -0.00790426
