31
Lattice="8.421641763931781 0.0 0.0 4.2108208819658905 7.293355709136913 0.0 0.0 0.0 44.584161137365626" Properties=species:S:1:pos:R:3:tags:I:1:forces:R:3 energy=-172.80630493164062 free_energy=-172.80630493164062 stress="0.010269230231642723 1.0382125159580369e-09 -5.249647827554327e-09 1.0382125159580369e-09 0.010269240476191044 3.052658570368294e-09 -5.249647827554327e-09 3.052658570368294e-09 9.017733646032866e-06" pbc="T T T"
Pt       1.40360696       0.81037286      20.00000000        3       0.00000059      -0.00000227      -0.00881028
Pt       4.21082088       0.81037286      20.00000000        3      -0.00214134       0.00264025       0.00079542
Pt       7.01803480       0.81037286      20.00000000        3       0.00214079       0.00264038       0.00079474
Pt       2.80721392       3.24149143      20.00000000        3       0.00121703      -0.00317705       0.00079417
Pt       5.61442784       3.24149143      20.00000000        3      -0.00000192       0.00000038       0.03264153
Pt       8.42164176       3.24149143      20.00000000        3      -0.00121508      -0.00317636       0.00079322
Pt       4.21082088       5.67261000      20.00000000        3       0.00336287       0.00053575       0.00079420
Pt       7.01803480       5.67261000      20.00000000        3      -0.00336223       0.00053732       0.00079420
Pt       9.82524872       5.67261000      20.00000000        3      -0.00000158       0.00000230      -0.01720306
Pt       0.00000000       1.62074571      22.29208057        2      -0.13940904       0.08048643       0.02965227
Pt       2.80721392       1.62074571      22.29208057        2       0.13941164       0.08048771       0.02965104
Pt       5.61442784       1.62074571      22.29208057        2      -0.00000249       0.12738600       0.04131512
Pt       1.40360696       4.05186428      22.29208057        2       0.00000108      -0.04157337      -0.08074287
Pt       4.21082088       4.05186428      22.29208057        2       0.11032386      -0.06369417       0.04131456
Pt       7.01803480       4.05186428      22.29208057        2      -0.11032411      -0.06369329       0.04131622
Pt       2.80721392       6.48298285      22.29208057        2       0.03600362       0.02078779      -0.08074188
Pt       5.61442784       6.48298285      22.29208057        2      -0.00000144      -0.16097701       0.02965118
Pt       8.42164176       6.48298285      22.29208057        2      -0.03600273       0.02078949      -0.08074331
Pt       0.00154714       0.00089281      24.56436913        1       0.00933202       0.00538894      -0.00226438
Pt       2.80566745       0.00089302      24.56436839        1      -0.00933450       0.00538577      -0.00226414
Pt       5.61442765      -0.01019359      24.56513568        1       0.00000165       0.01071468       0.01351313
Pt       1.40360729       2.42933254      24.56436902        1      -0.00000272      -0.01077856      -0.00226426
Pt       4.18729705       2.41753714      24.61312461        1       0.00276617       0.00159400      -0.00094046
Pt       7.04155811       2.41753682      24.61312512        1      -0.00276187       0.00159522      -0.00093893
Pt       2.79838644       4.86733353      24.56513599        1       0.00927919      -0.00535489       0.01351459
Pt       5.61442752       4.88940001      24.61312464        1       0.00000229      -0.00318971      -0.00094087
Pt       8.43046941       4.86733352      24.56513584        1      -0.00928175      -0.00535551       0.01351531
N        5.61442744       3.24149144      26.94056628        0       0.00002429      -0.00000796      -0.03257477
H        5.61442787       4.18850035      26.51488949        0      -0.00000189       0.03001480       0.00652406
H        6.43456177       2.76798688      26.51488970        0       0.02597925      -0.01499826       0.00653282
H        4.79429439       2.76798697      26.51488922        0      -0.02600157      -0.01500898       0.00652122
