31
Lattice="8.421641763931781 0.0 0.0 4.2108208819658905 7.293355709136913 0.0 0.0 0.0 44.584161137365626" Properties=species:S:1:pos:R:3:tags:I:1:forces:R:3 energy=-172.76077270507812 free_energy=-172.76077270507812 stress="0.010311977006494999 -1.4922158698027488e-05 -0.00013859070895705372 -1.4922158698027488e-05 0.010457434691488743 -5.757160579378251e-06 -0.00013859070895705372 -5.757160579378251e-06 0.00011397858179407194" pbc="T T T"
Pt       1.40360696       0.81037286      20.00000000        3       0.00359623       0.00089413       0.00178906
Pt       4.21082088       0.81037286      20.00000000        3      -0.00257844       0.00063599       0.00243059
Pt       7.01803480       0.81037286      20.00000000        3       0.00101535       0.00300069      -0.00506589
Pt       2.80721392       3.24149143      20.00000000        3       0.00064346       0.00004673      -0.00558004
Pt       5.61442784       3.24149143      20.00000000        3      -0.00087727       0.00217704       0.01665193
Pt       8.42164176       3.24149143      20.00000000        3       0.00206084       0.00258045       0.01904222
Pt       4.21082088       5.67261000      20.00000000        3       0.00334234      -0.00202575       0.00241375
Pt       7.01803480       5.67261000      20.00000000        3       0.00170389      -0.00178931       0.03803453
Pt       9.82524872       5.67261000      20.00000000        3      -0.00218044      -0.00275826       0.00365698
Pt       0.00000000       1.62074571      22.29208057        2      -0.03199720       0.05640830      -0.03371522
Pt       2.80721392       1.62074571      22.29208057        2      -0.01448262      -0.06945220      -0.06476885
Pt       5.61442784       1.62074571      22.29208057        2       0.00526789       0.04512781      -0.03812277
Pt       1.40360696       4.05186428      22.29208057        2      -0.18541771       0.07464701       0.05175201
Pt       4.21082088       4.05186428      22.29208057        2       0.12807375       0.06054983       0.02495553
Pt       7.01803480       4.05186428      22.29208057        2       0.02192670       0.06693414       0.03638247
Pt       2.80721392       6.48298285      22.29208057        2      -0.01335603      -0.01757396      -0.05837221
Pt       5.61442784       6.48298285      22.29208057        2       0.04336399      -0.09789215      -0.00417629
Pt       8.42164176       6.48298285      22.29208057        2      -0.06064196      -0.12906328       0.03078706
Pt      -0.02582849       0.00438269      24.56952003        1       0.00097791       0.00780901      -0.00144482
Pt       2.78294449      -0.00632399      24.60469584        1      -0.00182292      -0.01913053       0.00362059
Pt       5.60478447       0.00108449      24.56933612        1      -0.00623281       0.01056005      -0.00237459
Pt       1.39613468       2.41609197      24.57114181        1      -0.00143990      -0.00899543      -0.00352281
Pt       4.18356977       2.41354078      24.57077845        1      -0.00543267      -0.00640503      -0.00210738
Pt       6.99415185       2.42616347      24.60377368        1      -0.00149973       0.01631244       0.00150147
Pt       2.79400954       4.85514492      24.55989904        1       0.02789895       0.00337562       0.00331719
Pt       5.56628752       4.85108933      24.62028288        1       0.01316281      -0.00010067       0.01262680
Pt       8.44832093       4.85079229      24.62962491        1      -0.00406397       0.00177676       0.02443476
N        6.99704425       4.86818758      26.89483369        0       0.02623378       0.00145735      -0.01394841
H        6.63332638       4.04999213      26.35085347        0       0.00258768      -0.03218620      -0.01683107
H        6.63333099       5.68662449      26.35178184        0       0.00386451       0.03328237      -0.01944366
H        7.99093192       4.86823744      26.58755360        0       0.04630360      -0.00020280      -0.00392293
