31
Lattice="8.421641763931781 0.0 0.0 4.2108208819658905 7.293355709136913 0.0 0.0 0.0 44.584161137365626" Properties=species:S:1:pos:R:3:tags:I:1:forces:R:3 energy=-172.8055419921875 free_energy=-172.8055419921875 stress="0.010267091915011406 8.367998738378901e-09 6.148849207576745e-10 8.367998738378901e-09 0.010219099931418896 -0.00011344574159011245 6.148849207576745e-10 -0.00011344574159011245 -5.9225094446446747e-05" pbc="T T T"
Pt       1.40360696       0.81037286      20.00000000        3       0.00202986       0.00306400      -0.00474995
Pt       4.21082088       0.81037286      20.00000000        3      -0.00202751       0.00306437      -0.00474945
Pt       7.01803480       0.81037286      20.00000000        3      -0.00000205       0.00165156      -0.01466027
Pt       2.80721392       3.24149143      20.00000000        3       0.00000011       0.00059720      -0.00791213
Pt       5.61442784       3.24149143      20.00000000        3      -0.00193150       0.00454711       0.00620311
Pt       8.42164176       3.24149143      20.00000000        3       0.00193148       0.00454866       0.00620309
Pt       4.21082088       5.67261000      20.00000000        3       0.00229850      -0.00216550       0.00427127
Pt       7.01803480       5.67261000      20.00000000        3      -0.00000199      -0.00018142       0.03382939
Pt       9.82524872       5.67261000      20.00000000        3      -0.00229755      -0.00216391       0.00427002
Pt       0.00000000       1.62074571      22.29208057        2       0.01726547       0.00747376      -0.08239739
Pt       2.80721392       1.62074571      22.29208057        2      -0.00000263      -0.11674445      -0.04284213
Pt       5.61442784       1.62074571      22.29208057        2      -0.01726383       0.00747523      -0.08240443
Pt       1.40360696       4.05186428      22.29208057        2      -0.16515425       0.07757403       0.05781286
Pt       4.21082088       4.05186428      22.29208057        2       0.16515668       0.07757729       0.05781031
Pt       7.01803480       4.05186428      22.29208057        2      -0.00000241       0.10183729       0.06140951
Pt       2.80721392       6.48298285      22.29208057        2       0.00000306      -0.06784964      -0.07098474
Pt       5.61442784       6.48298285      22.29208057        2       0.08122793      -0.12512678       0.02001927
Pt       8.42164176       6.48298285      22.29208057        2      -0.08123048      -0.12512755       0.02001473
Pt      -0.00349760      -0.03012157      24.56748997        1      -0.01284166       0.01348177       0.00481565
Pt       2.80721492       0.00720369      24.59225020        1      -0.00000732       0.01146292       0.01752396
Pt       5.61792521      -0.03012200      24.56748815        1       0.01284678       0.01348306       0.00482552
Pt       1.40272496       2.40139508      24.56335154        1       0.02536328       0.02806867       0.01108301
Pt       4.21170291       2.40139542      24.56334956        1      -0.02536516       0.02806833       0.01109254
Pt       7.01803421       2.37698435      24.57053471        1       0.00000452       0.04155787      -0.01219636
Pt       2.80721412       4.82862229      24.56492583        1      -0.00000209       0.01906311      -0.01172481
Pt       5.59299876       4.81991365      24.62335550        1      -0.01330753      -0.00109192      -0.02258403
Pt       8.44306984       4.81991493      24.62335505        1       0.01331048      -0.00110043      -0.02258194
N        7.01803454       5.40412613      26.90603526        0      -0.00001665       0.01399779       0.04633969
H        6.19604259       4.88531102      26.54188022        0      -0.01499070      -0.00824904      -0.00788822
H        7.01803578       6.30144488      26.37849627        0      -0.00001165      -0.00051465       0.02804662
H        7.84002739       4.88531333      26.54188102        0       0.01501875      -0.00827846      -0.00789464
