31
Lattice="8.421641763931781 0.0 0.0 4.2108208819658905 7.293355709136913 0.0 0.0 0.0 44.584161137365626" Properties=species:S:1:pos:R:3:tags:I:1:forces:R:3 energy=-172.80628967285156 free_energy=-172.80628967285156 stress="0.010336617939174175 -3.8986708306154583e-10 4.642187967363043e-09 -3.8986708306154583e-10 0.010336630046367645 2.214673999745287e-09 4.642187967363043e-09 2.214673999745287e-09 2.1099182049511e-05" pbc="T T T"
Pt       1.40360696       0.81037286      20.00000000        3       0.00129061       0.00074284      -0.00833589
Pt       4.21082088       0.81037286      20.00000000        3      -0.00128776       0.00074340      -0.00833568
Pt       7.01803480       0.81037286      20.00000000        3      -0.00000219       0.00278366      -0.00336149
Pt       2.80721392       3.24149143      20.00000000        3       0.00000093      -0.00149034      -0.00833705
Pt       5.61442784       3.24149143      20.00000000        3       0.00012215       0.00007160       0.01724911
Pt       8.42164176       3.24149143      20.00000000        3      -0.00012242       0.00007220       0.01724783
Pt       4.21082088       5.67261000      20.00000000        3       0.00241405      -0.00139152      -0.00336227
Pt       7.01803480       5.67261000      20.00000000        3      -0.00000257      -0.00014102       0.01724908
Pt       9.82524872       5.67261000      20.00000000        3      -0.00241307      -0.00138992      -0.00336230
Pt       0.00000000       1.62074571      22.29208057        2      -0.11445475       0.08732437       0.01453531
Pt       2.80721392       1.62074571      22.29208057        2      -0.00000158      -0.00000282      -0.11074124
Pt       5.61442784       1.62074571      22.29208057        2       0.11445563       0.08732428       0.01453278
Pt       1.40360696       4.05186428      22.29208057        2      -0.13285513       0.05545935       0.01453515
Pt       4.21082088       4.05186428      22.29208057        2       0.13285814       0.05546081       0.01453284
Pt       7.01803480       4.05186428      22.29208057        2      -0.00000203       0.00000091       0.08593756
Pt       2.80721392       6.48298285      22.29208057        2       0.00000039       0.00000131      -0.05644561
Pt       5.61442784       6.48298285      22.29208057        2       0.01839758      -0.14278500       0.01453396
Pt       8.42164176       6.48298285      22.29208057        2      -0.01839839      -0.14278333       0.01453443
Pt      -0.00121450      -0.00070155      24.56507421        1      -0.00108011      -0.00062380      -0.00976221
Pt       2.80721392       0.01191138      24.57002368        1       0.00000028      -0.01414566      -0.00317046
Pt       5.61564248      -0.00070163      24.56507437        1       0.00107995      -0.00062254      -0.00976305
Pt       1.41392273       2.42516266      24.57002363        1      -0.01224969       0.00707233      -0.00316989
Pt       4.20050511       2.42516268      24.57002349        1       0.01225094       0.00707122      -0.00316046
Pt       7.01803474       2.40978259      24.61315550        1      -0.00000173       0.00144716       0.00335349
Pt       2.80721396       4.86363977      24.56507458        1      -0.00000123       0.00124745      -0.00976197
Pt       5.59595023       4.87290501      24.61315547        1       0.00125594      -0.00072330       0.00335308
Pt       8.44011899       4.87290497      24.61315559        1      -0.00125310      -0.00072296       0.00335260
N        7.01803474       4.05186444      26.94874449        0      -0.00002551      -0.00000658       0.04618582
H        6.19553201       4.52673652      26.53110500        0      -0.01025006       0.00591866      -0.01334956
H        7.84053702       4.52673615      26.53110543        0       0.01027595       0.00593541      -0.01336070
H        7.01803472       3.10212046      26.53110541        0      -0.00000137      -0.01184809      -0.01335283
