31
Lattice="8.421641763931781 0.0 0.0 4.2108208819658905 7.293355709136913 0.0 0.0 0.0 44.584161137365626" Properties=species:S:1:pos:R:3:tags:I:1:forces:R:3 energy=-172.8059844970703 free_energy=-172.8059844970703 stress="0.010280258022248745 5.174879635916341e-09 -3.613128907176133e-09 5.174879635916341e-09 0.01028026919811964 4.0484455787748175e-09 -3.613128907176133e-09 4.0484455787748175e-09 -5.394609979703091e-05" pbc="T T T"
Pt       1.40360696       0.81037286      20.00000000        3       0.00105124       0.00060403      -0.00947368
Pt       4.21082088       0.81037286      20.00000000        3      -0.00104789       0.00060451      -0.00947320
Pt       7.01803480       0.81037286      20.00000000        3      -0.00000215       0.00276124      -0.00425315
Pt       2.80721392       3.24149143      20.00000000        3       0.00000080      -0.00121330      -0.00947422
Pt       5.61442784       3.24149143      20.00000000        3       0.00058998       0.00034147       0.01770321
Pt       8.42164176       3.24149143      20.00000000        3      -0.00059014       0.00034234       0.01770240
Pt       4.21082088       5.67261000      20.00000000        3       0.00239494      -0.00138028      -0.00425327
Pt       7.01803480       5.67261000      20.00000000        3      -0.00000219      -0.00068042       0.01770312
Pt       9.82524872       5.67261000      20.00000000        3      -0.00239415      -0.00137924      -0.00425339
Pt       0.00000000       1.62074571      22.29208057        2      -0.11650771       0.09124120       0.00165224
Pt       2.80721392       1.62074571      22.29208057        2       0.00000098      -0.00000177      -0.09937675
Pt       5.61442784       1.62074571      22.29208057        2       0.11650698       0.09124202       0.00165164
Pt       1.40360696       4.05186428      22.29208057        2      -0.13727289       0.05527804       0.00165143
Pt       4.21082088       4.05186428      22.29208057        2       0.13727644       0.05527779       0.00165097
Pt       7.01803480       4.05186428      22.29208057        2      -0.00000295       0.00000043       0.08201490
Pt       2.80721392       6.48298285      22.29208057        2       0.00000087       0.00000131      -0.07234997
Pt       5.61442784       6.48298285      22.29208057        2       0.02076340      -0.14652120       0.00165065
Pt       8.42164176       6.48298285      22.29208057        2      -0.02076371      -0.14651814       0.00165000
Pt      -0.00067034      -0.00038736      24.56074806        1      -0.00382827      -0.00221066       0.01202150
Pt       2.80721402       0.00600157      24.56729902        1      -0.00000066       0.04490129       0.00588310
Pt       5.61509842      -0.00038757      24.56074792        1       0.00382723      -0.00220764       0.01202112
Pt       1.40880469       2.42811778      24.56729896        1       0.03888379      -0.02245262       0.00588234
Pt       4.20562318       2.42811761      24.56729885        1      -0.03888357      -0.02245052       0.00588281
Pt       7.01803469       2.40924878      24.61408971        1       0.00000003       0.00594596       0.00152966
Pt       2.80721380       4.86301145      24.56074806        1       0.00000232       0.00442160       0.01202199
Pt       5.59548809       4.87317183      24.61409012        1       0.00514872      -0.00297280       0.00152709
Pt       8.44058103       4.87317210      24.61409017        1      -0.00515182      -0.00297447       0.00153105
N        7.01803462       4.05186446      26.95105789        0       0.00003731      -0.00002390       0.00445843
H        7.01803494       3.10511254      26.52528566        0      -0.00000272      -0.02495636       0.00171234
H        6.19812418       4.52523975      26.52528568        0      -0.02164786       0.01249831       0.00169428
H        7.83794571       4.52523979      26.52528636        0       0.02161349       0.01248176       0.00171158
