31
Lattice="8.421641763931781 0.0 0.0 4.2108208819658905 7.293355709136913 0.0 0.0 0.0 44.584161137365626" Properties=species:S:1:pos:R:3:tags:I:1:forces:R:3 energy=-172.65139770507812 free_energy=-172.65139770507812 stress="0.010359592735767365 -5.328676944138522e-10 3.3221809747630004e-09 -5.328676944138522e-10 0.01035960204899311 -8.869578405068523e-10 3.3221809747630004e-09 -8.869578405068523e-10 -4.0896447899285704e-05" pbc="T T T"
Pt       1.40360696       0.81037286      20.00000000        3       0.00000091      -0.00000235      -0.00685439
Pt       4.21082088       0.81037286      20.00000000        3      -0.00128938       0.00270263       0.00972706
Pt       7.01803480       0.81037286      20.00000000        3       0.00128900       0.00270231       0.00972554
Pt       2.80721392       3.24149143      20.00000000        3       0.00169684      -0.00247058       0.00972560
Pt       5.61442784       3.24149143      20.00000000        3      -0.00000186      -0.00000006       0.04421780
Pt       8.42164176       3.24149143      20.00000000        3      -0.00169481      -0.00246977       0.00972494
Pt       4.21082088       5.67261000      20.00000000        3       0.00299014      -0.00023276       0.00972599
Pt       7.01803480       5.67261000      20.00000000        3      -0.00299011      -0.00023194       0.00972599
Pt       9.82524872       5.67261000      20.00000000        3      -0.00000148       0.00000300      -0.00171283
Pt       0.00000000       1.62074571      22.29208057        2      -0.12749872       0.07361280      -0.01448211
Pt       2.80721392       1.62074571      22.29208057        2       0.12750201       0.07361110      -0.01447898
Pt       5.61442784       1.62074571      22.29208057        2      -0.00000296       0.08691750      -0.02148091
Pt       1.40360696       4.05186428      22.29208057        2      -0.00000025      -0.00806096      -0.05043655
Pt       4.21082088       4.05186428      22.29208057        2       0.07527633      -0.04346008      -0.02148060
Pt       7.01803480       4.05186428      22.29208057        2      -0.07527505      -0.04345765      -0.02147808
Pt       2.80721392       6.48298285      22.29208057        2       0.00698017       0.00403057      -0.05044097
Pt       5.61442784       6.48298285      22.29208057        2       0.00000126      -0.14722627      -0.01448218
Pt       8.42164176       6.48298285      22.29208057        2      -0.00698136       0.00403129      -0.05043730
Pt       0.00346076       0.00199776      24.56004416        1      -0.00291754      -0.00168692       0.02772042
Pt       2.80375360       0.00199776      24.56004524        1       0.00291843      -0.00168587       0.02771086
Pt       5.61442785      -0.00376787      24.58110118        1      -0.00000126       0.00321809      -0.00503179
Pt       1.40360719       2.42712260      24.56004528        1       0.00000114       0.00337049       0.02771199
Pt       4.18473711       2.41605879      24.61787449        1       0.01591983       0.00919233       0.04069236
Pt       7.04411883       2.41605889      24.61787439        1      -0.01592207       0.00919372       0.04069316
Pt       2.80395112       4.86412087      24.58110123        1       0.00278754      -0.00160979      -0.00503068
Pt       5.61442778       4.89235610      24.61787413        1       0.00000184      -0.01838212       0.04069190
Pt       8.42490447       4.86412093      24.58110183        1      -0.00278915      -0.00160915      -0.00503786
N        5.61442815       3.24149166      26.85605478        0      -0.00002217      -0.00000393      -0.01851501
H        5.61442769       2.32351843      26.34043558        0       0.00000152      -0.01306431      -0.00213662
H        4.81943973       3.70047815      26.34043567        0      -0.01130921       0.00652923      -0.00213176
H        6.40941545       3.70047775      26.34043573        0       0.01133052       0.00653958      -0.00214502
