31
Lattice="8.421641763931781 0.0 0.0 4.2108208819658905 7.293355709136913 0.0 0.0 0.0 44.584161137365626" Properties=species:S:1:pos:R:3:tags:I:1:forces:R:3 energy=-172.65090942382812 free_energy=-172.65090942382812 stress="0.010420480743050575 3.024752670555131e-09 -1.2792888970381e-09 3.024752670555131e-09 0.010420490987598896 -1.050201592356359e-09 -1.2792888970381e-09 -1.050201592356359e-09 -9.679675713414326e-06" pbc="T T T"
Pt       1.40360696       0.81037286      20.00000000        3       0.00000065      -0.00000229      -0.00922677
Pt       4.21082088       0.81037286      20.00000000        3      -0.00161674       0.00377633       0.01037845
Pt       7.01803480       0.81037286      20.00000000        3       0.00161650       0.00377617       0.01037765
Pt       2.80721392       3.24149143      20.00000000        3       0.00246274      -0.00329114       0.01037702
Pt       5.61442784       3.24149143      20.00000000        3      -0.00000179       0.00000002       0.05188376
Pt       8.42164176       3.24149143      20.00000000        3      -0.00246054      -0.00328998       0.01037601
Pt       4.21082088       5.67261000      20.00000000        3       0.00408303      -0.00048570       0.01037842
Pt       7.01803480       5.67261000      20.00000000        3      -0.00408357      -0.00048495       0.01037663
Pt       9.82524872       5.67261000      20.00000000        3      -0.00000114       0.00000205      -0.00294885
Pt       0.00000000       1.62074571      22.29208057        2      -0.14261785       0.08233862      -0.01450180
Pt       2.80721392       1.62074571      22.29208057        2       0.14262056       0.08234036      -0.01450207
Pt       5.61442784       1.62074571      22.29208057        2      -0.00000242       0.10560481      -0.00440192
Pt       1.40360696       4.05186428      22.29208057        2       0.00000115      -0.00523511      -0.04636735
Pt       4.21082088       4.05186428      22.29208057        2       0.09146013      -0.05280355      -0.00440109
Pt       7.01803480       4.05186428      22.29208057        2      -0.09146120      -0.05280358      -0.00440208
Pt       2.80721392       6.48298285      22.29208057        2       0.00453440       0.00261839      -0.04636896
Pt       5.61442784       6.48298285      22.29208057        2      -0.00000241      -0.16468133      -0.01450179
Pt       8.42164176       6.48298285      22.29208057        2      -0.00453145       0.00262030      -0.04636963
Pt       0.00520195       0.00300343      24.55814371        1      -0.02220123      -0.01282261       0.03848189
Pt       2.80201234       0.00300305      24.55814408        1       0.02220233      -0.01281888       0.03848325
Pt       5.61442786       0.00060298      24.57922928        1      -0.00000207      -0.02770421       0.00173254
Pt       1.40360717       2.42511165      24.55814307        1      -0.00000052       0.02564037       0.03848219
Pt       4.18051083       2.41361898      24.62834571        1       0.03289345       0.01899155      -0.01523998
Pt       7.04834458       2.41361899      24.62834594        1      -0.03289351       0.01898975      -0.01523978
Pt       2.80773616       4.86193543      24.57922975        1      -0.02399187       0.01385107       0.00173351
Pt       5.61442812       4.89723588      24.62834596        1      -0.00000299      -0.03798080      -0.01523867
Pt       8.42111865       4.86193526      24.57922935        1       0.02399675       0.01385350       0.00173505
N        5.61442760       3.24149174      26.85409093        0       0.00000546       0.00000217       0.03306198
H        4.81739303       3.70165977      26.34143986        0       0.01378672      -0.00795686      -0.00471792
H        6.41146275       3.70165915      26.34143936        0      -0.01378898      -0.00795428      -0.00471368
H        5.61442820       2.32115545      26.34143970        0      -0.00000361       0.01590976      -0.00471601
