31
Lattice="8.421641763931781 0.0 0.0 4.2108208819658905 7.293355709136913 0.0 0.0 0.0 44.584161137365626" Properties=species:S:1:pos:R:3:tags:I:1:forces:R:3 energy=-172.76075744628906 free_energy=-172.76075744628906 stress="0.01031194906681776 -1.4923121852916665e-05 -0.00013858596503268927 -1.4923121852916665e-05 0.010457425378262997 -5.758315637649503e-06 -0.00013858596503268927 -5.758315637649503e-06 0.00011396990885259584" pbc="T T T"
Pt       1.40360696       0.81037286      20.00000000        3       0.00359617       0.00089377       0.00178877
Pt       4.21082088       0.81037286      20.00000000        3      -0.00257829       0.00063613       0.00243068
Pt       7.01803480       0.81037286      20.00000000        3       0.00101497       0.00300094      -0.00506505
Pt       2.80721392       3.24149143      20.00000000        3       0.00064332       0.00004687      -0.00558004
Pt       5.61442784       3.24149143      20.00000000        3      -0.00087719       0.00217729       0.01665127
Pt       8.42164176       3.24149143      20.00000000        3       0.00206127       0.00258028       0.01904276
Pt       4.21082088       5.67261000      20.00000000        3       0.00334176      -0.00202578       0.00241396
Pt       7.01803480       5.67261000      20.00000000        3       0.00170396      -0.00178939       0.03803378
Pt       9.82524872       5.67261000      20.00000000        3      -0.00218036      -0.00275806       0.00365752
Pt       0.00000000       1.62074571      22.29208057        2      -0.03199826       0.05640835      -0.03371393
Pt       2.80721392       1.62074571      22.29208057        2      -0.01448283      -0.06944901      -0.06477161
Pt       5.61442784       1.62074571      22.29208057        2       0.00526953       0.04512577      -0.03812120
Pt       1.40360696       4.05186428      22.29208057        2      -0.18541534       0.07464908       0.05175427
Pt       4.21082088       4.05186428      22.29208057        2       0.12806869       0.06055040       0.02495655
Pt       7.01803480       4.05186428      22.29208057        2       0.02192838       0.06693207       0.03637963
Pt       2.80721392       6.48298285      22.29208057        2      -0.01335852      -0.01757484      -0.05836887
Pt       5.61442784       6.48298285      22.29208057        2       0.04336072      -0.09789190      -0.00417845
Pt       8.42164176       6.48298285      22.29208057        2      -0.06063659      -0.12906337       0.03078743
Pt      -0.02582857       0.00438282      24.56952110        1       0.00097776       0.00780893      -0.00144526
Pt       2.78294520      -0.00632405      24.60469482        1      -0.00182535      -0.01912993       0.00362895
Pt       5.60478498       0.00108448      24.56933754        1      -0.00623315       0.01055994      -0.00238375
Pt       1.39613502       2.41609222      24.57114179        1      -0.00144166      -0.00899690      -0.00352347
Pt       4.18357006       2.41354041      24.57077866        1      -0.00543130      -0.00640058      -0.00210547
Pt       6.99415225       2.42616398      24.60377309        1      -0.00149965       0.01630749       0.00149950
Pt       2.79400855       4.85514487      24.55990015        1       0.02790307       0.00337467       0.00330710
Pt       5.56628767       4.85108943      24.62028133        1       0.01315578      -0.00009950       0.01262814
Pt       8.44832043       4.85079243      24.62962600        1      -0.00406019       0.00177759       0.02443819
N        6.99704342       4.86818723      26.89483252        0       0.02616428       0.00147244      -0.01390502
H        6.63332897       5.68662489      26.35178092        0       0.00387597       0.03328066      -0.01944265
H        7.99093095       4.86823757      26.58755592        0       0.04636036      -0.00020283      -0.00395566
H        6.63332464       4.04999198      26.35085288        0       0.00259268      -0.03220052      -0.01683781
