31
Lattice="8.421641763931781 0.0 0.0 4.2108208819658905 7.293355709136913 0.0 0.0 0.0 44.584161137365626" Properties=species:S:1:pos:R:3:tags:I:1:forces:R:3 energy=-172.64501953125 free_energy=-172.64501953125 stress="0.010480818338692188 -4.975218570457685e-10 1.0828503649307208e-09 -4.975218570457685e-10 0.010480813682079315 9.168859005370678e-10 1.0828503649307208e-09 9.168859005370678e-10 5.0365738388791215e-06" pbc="T T T"
Pt       1.40360696       0.81037286      20.00000000        3       0.00206527       0.00118951      -0.00083449
Pt       4.21082088       0.81037286      20.00000000        3      -0.00206210       0.00119045      -0.00083402
Pt       7.01803480       0.81037286      20.00000000        3      -0.00000222       0.00430159       0.00125510
Pt       2.80721392       3.24149143      20.00000000        3       0.00000103      -0.00238440      -0.00083545
Pt       5.61442784       3.24149143      20.00000000        3       0.00082683       0.00047816       0.03291133
Pt       8.42164176       3.24149143      20.00000000        3      -0.00082735       0.00047912       0.03290990
Pt       4.21082088       5.67261000      20.00000000        3       0.00372900      -0.00215058       0.00125450
Pt       7.01803480       5.67261000      20.00000000        3      -0.00000253      -0.00095465       0.03291127
Pt       9.82524872       5.67261000      20.00000000        3      -0.00372846      -0.00214921       0.00125372
Pt       0.00000000       1.62074571      22.29208057        2      -0.08613328       0.09566984      -0.01345449
Pt       2.80721392       1.62074571      22.29208057        2       0.00000038      -0.00000138      -0.05686390
Pt       5.61442784       1.62074571      22.29208057        2       0.08613239       0.09567089      -0.01345567
Pt       1.40360696       4.05186428      22.29208057        2      -0.12592165       0.02675801      -0.01345549
Pt       4.21082088       4.05186428      22.29208057        2       0.12592438       0.02675791      -0.01345626
Pt       7.01803480       4.05186428      22.29208057        2      -0.00000256       0.00000039       0.03622916
Pt       2.80721392       6.48298285      22.29208057        2       0.00000054       0.00000220      -0.08502128
Pt       5.61442784       6.48298285      22.29208057        2       0.03978600      -0.12243006      -0.01345812
Pt       8.42164176       6.48298285      22.29208057        2      -0.03978641      -0.12242834      -0.01345815
Pt      -0.00147923      -0.00085479      24.55778883        1      -0.00109441      -0.00062718       0.03598881
Pt       2.80721416       0.00255801      24.58008545        1      -0.00000104       0.02804040       0.00056911
Pt       5.61590737      -0.00085475      24.55778842        1       0.00109522      -0.00062752       0.03598852
Pt       1.40582283       2.42983926      24.58008598        1       0.02428162      -0.01402057       0.00056867
Pt       4.20860545       2.42983935      24.58008527        1      -0.02428316      -0.01402106       0.00056840
Pt       7.01803424       2.40505227      24.63193117        1       0.00000096       0.03446700      -0.01020861
Pt       2.80721407       4.86394574      24.55778930        1      -0.00000016       0.00126041       0.03598852
Pt       5.59185324       4.87527029      24.63193046        1       0.02985419      -0.01723531      -0.01020861
Pt       8.44421533       4.87527026      24.63193119        1      -0.02985260      -0.01723583      -0.01020800
N        7.01803476       4.05186449      26.87787175        0      -0.00000923      -0.00001436       0.01671010
H        7.01803520       4.97111304      26.36492598        0      -0.00000261      -0.01588403      -0.00312316
H        7.81412764       3.59223996      26.36492547        0      -0.01375739       0.00794423      -0.00311825
H        6.22194192       3.59223953      26.36492533        0       0.01376919       0.00795463      -0.00311303
