31
Lattice="8.421641763931781 0.0 0.0 4.2108208819658905 7.293355709136913 0.0 0.0 0.0 44.584161137365626" Properties=species:S:1:pos:R:3:tags:I:1:forces:R:3 energy=-173.71585083007812 free_energy=-173.71585083007812 stress="0.010695424862205982 7.249384204044418e-09 -1.87186199873679e-09 7.249384204044418e-09 0.010695431381464005 -4.070211723217199e-09 -1.87186199873679e-09 -4.070211723217199e-09 5.39915963599924e-05" pbc="T T T"
Pt       1.40360696       0.81037286      20.00000000        3       0.00578182       0.00267979      -0.00904983
Pt       4.21082088       0.81037286      20.00000000        3      -0.00040935       0.00292651      -0.00573459
Pt       7.01803480       0.81037286      20.00000000        3      -0.00521566       0.00366373      -0.00904977
Pt       2.80721392       3.24149143      20.00000000        3       0.00274238      -0.00110807      -0.00573531
Pt       5.61442784       3.24149143      20.00000000        3      -0.00233181      -0.00182022      -0.00573537
Pt       8.42164176       3.24149143      20.00000000        3       0.00044926       0.00437570       0.01246920
Pt       4.21082088       5.67261000      20.00000000        3      -0.00056523      -0.00634646      -0.00904927
Pt       7.01803480       5.67261000      20.00000000        3       0.00356208      -0.00257332       0.01247069
Pt       9.82524872       5.67261000      20.00000000        3      -0.00401366      -0.00179674       0.01247036
Pt       0.00000000       1.62074571      22.29208057        2      -0.00116688       0.06463939       0.03390498
Pt       2.80721392       1.62074571      22.29208057        2      -0.00210183      -0.01191995       0.00324063
Pt       5.61442784       1.62074571      22.29208057        2       0.01137011       0.00413663       0.00324067
Pt       1.40360696       4.05186428      22.29208057        2      -0.06639431       0.03545162      -0.02262589
Pt       4.21082088       4.05186428      22.29208057        2      -0.00926766       0.00777913       0.00324058
Pt       7.01803480       4.05186428      22.29208057        2       0.06389690       0.03977350      -0.02262605
Pt       2.80721392       6.48298285      22.29208057        2      -0.05539717      -0.03333162       0.03390442
Pt       5.61442784       6.48298285      22.29208057        2       0.05656416      -0.03130755       0.03390361
Pt       8.42164176       6.48298285      22.29208057        2       0.00249628      -0.07522251      -0.02262719
Pt       0.00000029      -0.00000023      24.58918274        1      -0.00000119       0.00000004      -0.00003168
Pt       2.80932818      -0.00204245      24.60570065        1       0.00001832       0.00690193       0.00131956
Pt       5.62556421       0.01952963      24.60028234        1      -0.01657349      -0.02171011      -0.01355465
Pt       1.41495201       2.41170899      24.60028279        1      -0.01051462       0.02520910      -0.01355298
Pt       4.21082089       2.43111845      24.58864042        1       0.00000164       0.00000069       0.00205183
Pt       7.01874621       2.43397048      24.60570085        1      -0.00598752      -0.00343679       0.00132167
Pt       2.80438801       4.86142722      24.60570066        1       0.00596925      -0.00346618       0.00132146
Pt       5.59194605       4.86211689      24.60028264        1       0.02708665      -0.00349938      -0.01355377
Pt       8.42164165       4.86223698      24.65962319        1       0.00000195       0.00000219       0.02949214
N        8.42164207       4.86223760      26.72769447        0      -0.00000931      -0.00004676       0.01220238
H        9.39203900       4.86344838      27.05203860        0       0.02143487       0.00122593      -0.01454182
H        7.93749236       4.02124277      27.05203906        0      -0.00964076      -0.01914692      -0.01455130
H        7.93539461       5.70201989      27.05203897        0      -0.01178510       0.01796669      -0.01453488
