31
Lattice="8.421641763931781 0.0 0.0 4.2108208819658905 7.293355709136913 0.0 0.0 0.0 44.584161137365626" Properties=species:S:1:pos:R:3:tags:I:1:forces:R:3 energy=-172.8036651611328 free_energy=-172.8036651611328 stress="0.010319461114704609 -5.30250776620278e-09 -8.38328517716036e-09 -5.30250776620278e-09 0.010218453593552113 7.03980986145325e-05 -8.38328517716036e-09 7.03980986145325e-05 -1.0953048331430182e-05" pbc="T T T"
Pt       1.40360696       0.81037286      20.00000000        3       0.00222187       0.00139347      -0.00127253
Pt       4.21082088       0.81037286      20.00000000        3      -0.00221892       0.00139383      -0.00127307
Pt       7.01803480       0.81037286      20.00000000        3      -0.00000219      -0.00074016      -0.01569018
Pt       2.80721392       3.24149143      20.00000000        3       0.00000046      -0.00096630      -0.00621310
Pt       5.61442784       3.24149143      20.00000000        3      -0.00289021       0.00222430       0.00617582
Pt       8.42164176       3.24149143      20.00000000        3       0.00288987       0.00222546       0.00617471
Pt       4.21082088       5.67261000      20.00000000        3       0.00240579      -0.00366200       0.00331074
Pt       7.01803480       5.67261000      20.00000000        3      -0.00000213      -0.00306956       0.03510469
Pt       9.82524872       5.67261000      20.00000000        3      -0.00240502      -0.00366077       0.00331068
Pt       0.00000000       1.62074571      22.29208057        2       0.03447255       0.04056594      -0.08589171
Pt       2.80721392       1.62074571      22.29208057        2      -0.00000016      -0.08158721      -0.03736337
Pt       5.61442784       1.62074571      22.29208057        2      -0.03447225       0.04056839      -0.08589602
Pt       1.40360696       4.05186428      22.29208057        2      -0.15672183       0.10425990       0.05839918
Pt       4.21082088       4.05186428      22.29208057        2       0.15672210       0.10425799       0.05839128
Pt       7.01803480       4.05186428      22.29208057        2      -0.00000045       0.13903007       0.04898316
Pt       2.80721392       6.48298285      22.29208057        2       0.00000108      -0.02629766      -0.07216041
Pt       5.61442784       6.48298285      22.29208057        2       0.07578909      -0.09864366       0.03033462
Pt       8.42164176       6.48298285      22.29208057        2      -0.07579064      -0.09864611       0.03033540
Pt      -0.00304554       0.02275636      24.56862881        1      -0.00133478      -0.04929056       0.00071684
Pt       2.80721429       0.03047288      24.59719080        1      -0.00000001       0.00794028       0.01626840
Pt       5.61747429       0.02275695      24.56862705        1       0.00133394      -0.04929681       0.00072879
Pt       1.41147520       2.44079715      24.56838968        1       0.01229763       0.00012048      -0.01237434
Pt       4.20295318       2.44079776      24.56839019        1      -0.01229969       0.00011288      -0.01237541
Pt       7.01803474       2.42387245      24.56439501        1       0.00000072       0.01124521       0.01067609
Pt       2.80721496       4.88438624      24.56182918        1      -0.00001024      -0.04882669       0.00093566
Pt       5.58385929       4.85963143      24.62284076        1       0.01314420      -0.01176335      -0.00582170
Pt       8.45220886       4.85963175      24.62284248        1      -0.01313046      -0.01176329      -0.00583381
N        7.01803456       5.33335737      26.90726364        0       0.00005347      -0.00695717      -0.04219815
H        7.83737779       4.80788332      26.53905400        0      -0.02427870       0.03299007       0.01656038
H        6.19869346       4.80788267      26.53905392        0       0.02423428       0.03297254       0.01653160
H        7.01803607       6.22020775      26.35832091        0      -0.00000953      -0.02612941       0.04142568
