31
Lattice="8.421641763931781 0.0 0.0 4.2108208819658905 7.293355709136913 0.0 0.0 0.0 44.584161137365626" Properties=species:S:1:pos:R:3:tags:I:1:forces:R:3 energy=-172.8042755126953 free_energy=-172.8042755126953 stress="0.010287954472005367 -3.3601010862582825e-09 -5.991046769793229e-09 -3.3601010862582825e-09 0.01028794888406992 5.2782156423347715e-09 -5.991046769793229e-09 5.2782156423347715e-09 2.5817209461820312e-05" pbc="T T T"
Pt       1.40360696       0.81037286      20.00000000        3       0.00000038      -0.00000234      -0.01219195
Pt       4.21082088       0.81037286      20.00000000        3      -0.00197788       0.00239100       0.00095353
Pt       7.01803480       0.81037286      20.00000000        3       0.00218465       0.00302547       0.00097698
Pt       2.80721392       3.24149143      20.00000000        3       0.00152953      -0.00340738       0.00097656
Pt       5.61442784       3.24149143      20.00000000        3      -0.00000162       0.00000023       0.03240621
Pt       8.42164176       3.24149143      20.00000000        3      -0.00108038      -0.00291104       0.00095046
Pt       4.21082088       5.67261000      20.00000000        3       0.00306442       0.00052018       0.00095522
Pt       7.01803480       5.67261000      20.00000000        3      -0.00371780       0.00038179       0.00097471
Pt       9.82524872       5.67261000      20.00000000        3      -0.00000112       0.00000218      -0.01432890
Pt       0.00000000       1.62074571      22.29208057        2      -0.14873244       0.08592881       0.01205786
Pt       2.80721392       1.62074571      22.29208057        2       0.14879313       0.08583796       0.01205480
Pt       5.61442784       1.62074571      22.29208057        2       0.00260907       0.12158895       0.04922159
Pt       1.40360696       4.05186428      22.29208057        2      -0.00522731      -0.02981522      -0.07347839
Pt       4.21082088       4.05186428      22.29208057        2       0.10399590      -0.06305658       0.04922628
Pt       7.01803480       4.05186428      22.29208057        2      -0.10661548      -0.05853412       0.04921864
Pt       2.80721392       6.48298285      22.29208057        2       0.02844317       0.01037338      -0.07347156
Pt       5.61442784       6.48298285      22.29208057        2      -0.00006583      -0.17177531       0.01205799
Pt       8.42164176       6.48298285      22.29208057        2      -0.02319998       0.01944952      -0.07348065
Pt       0.00528321       0.00130356      24.56071595        1      -0.02640565      -0.00284389       0.02081950
Pt       2.80344198       0.00392316      24.56071370        1       0.01567073      -0.02144679       0.02084155
Pt       5.62303598      -0.01200275      24.56953919        1      -0.02005223       0.02605055      -0.00908048
Pt       1.40209495       2.42589022      24.56071264        1       0.01074006       0.02429075       0.02084111
Pt       4.18914676       2.41045944      24.61256717        1       0.01475296       0.02396871       0.01037775
Pt       7.04676236       2.42267771      24.61256654        1      -0.02813298       0.00079147       0.01038832
Pt       2.79251548       4.86078359      24.56954119        1       0.03258838       0.00433840      -0.00909083
Pt       5.60737415       4.89133605      24.61256719        1       0.01337906      -0.02475778       0.01037766
Pt       8.42773310       4.87569276      24.56953666        1      -0.01254053      -0.03038855      -0.00905998
N        5.61442750       3.24149179      26.94051469        0       0.00004101      -0.00004181      -0.04887486
H        6.47775206       2.84440942      26.52021870        0      -0.02396457      -0.00125512       0.00247434
H        4.83888252       2.69237211      26.52021891        0       0.01086091       0.02135859       0.00245764
H        5.52664859       4.18769244      26.52021903        0       0.01306256      -0.02006212       0.00244870
