31
Lattice="8.421641763931781 0.0 0.0 4.2108208819658905 7.293355709136913 0.0 0.0 0.0 44.584161137365626" Properties=species:S:1:pos:R:3:tags:I:1:forces:R:3 energy=-172.79193115234375 free_energy=-172.79193115234375 stress="0.010310139507055283 9.786464083560986e-09 -6.529750962158687e-09 9.786464083560986e-09 0.010310136713087559 -5.680883319314489e-09 -6.529750962158687e-09 -5.680883319314489e-09 -5.31816876900848e-05" pbc="T T T"
Pt       1.40360696       0.81037286      20.00000000        3       0.00082347       0.00125759      -0.00642747
Pt       4.21082088       0.81037286      20.00000000        3      -0.00150035       0.00008010      -0.00642735
Pt       7.01803480       0.81037286      20.00000000        3       0.00026573       0.00262401      -0.00198200
Pt       2.80721392       3.24149143      20.00000000        3       0.00068119      -0.00134239      -0.00642785
Pt       5.61442784       3.24149143      20.00000000        3       0.00013047      -0.00073277       0.01711357
Pt       8.42164176       3.24149143      20.00000000        3       0.00056949       0.00048197       0.01711243
Pt       4.21082088       5.67261000      20.00000000        3       0.00214221      -0.00154391      -0.00198147
Pt       7.01803480       5.67261000      20.00000000        3      -0.00070354       0.00025405       0.01711348
Pt       9.82524872       5.67261000      20.00000000        3      -0.00240910      -0.00107812      -0.00198248
Pt       0.00000000       1.62074571      22.29208057        2      -0.10593911       0.07567826       0.01753279
Pt       2.80721392       1.62074571      22.29208057        2       0.00000024      -0.00000157      -0.12336040
Pt       5.61442784       1.62074571      22.29208057        2       0.11871340       0.08205902       0.00725939
Pt       1.40360696       4.05186428      22.29208057        2      -0.13042000       0.06178105       0.00726151
Pt       4.21082088       4.05186428      22.29208057        2       0.11851302       0.05390792       0.01753361
Pt       7.01803480       4.05186428      22.29208057        2      -0.00000462      -0.00000032       0.07267439
Pt       2.80721392       6.48298285      22.29208057        2       0.00000047      -0.00000106      -0.04818344
Pt       5.61442784       6.48298285      22.29208057        2       0.01170663      -0.14384040       0.00725863
Pt       8.42164176       6.48298285      22.29208057        2      -0.01256962      -0.12958339       0.01752961
Pt       0.00401474      -0.01182693      24.56825675        1      -0.01274885       0.02477760      -0.02905653
Pt       2.79849608       0.01462063      24.57019367        1       0.02185230      -0.03447159      -0.00114815
Pt       5.62266274       0.00938988      24.56825630        1      -0.01508259      -0.02342947      -0.02905761
Pt       1.42062860       2.43135772      24.57019457        1      -0.04078205      -0.00168742      -0.00114660
Pt       4.20251766       2.41625817      24.57019390        1       0.01892955       0.03615994      -0.00114568
Pt       7.03631884       2.40891769      24.60961079        1      -0.02603402      -0.01960734      -0.00391303
Pt       2.79496484       4.86467376      24.56825799        1       0.02783006      -0.00134759      -0.02906682
Pt       5.58605937       4.85750314      24.60961088        1      -0.00396378       0.03234893      -0.00391342
Pt       8.43172512       4.88917148      24.60960945        1       0.02999841      -0.01274297      -0.00390009
N        7.01803443       4.05186384      26.91369247        0       0.00003306       0.00004436       0.03990319
H        7.69407826       4.71230624      26.47645232        0       0.01101447      -0.03062788       0.02028854
H        7.25197240       3.13617324      26.47645171        0      -0.03201785       0.00571796       0.02026731
H        6.10805421       4.30711365      26.47645124        0       0.02097137       0.02486533       0.02027169
