31
Lattice="8.421641763931781 0.0 0.0 4.2108208819658905 7.293355709136913 0.0 0.0 0.0 44.584161137365626" Properties=species:S:1:pos:R:3:tags:I:1:forces:R:3 energy=-172.80886840820312 free_energy=-172.80886840820312 stress="0.010343128815293312 -1.91481213107636e-08 -2.777184704427782e-09 -1.91481213107636e-08 0.010292665101587772 -4.937036237606662e-07 -2.777184704427782e-09 -4.937036237606662e-07 8.43219368107384e-06" pbc="T T T"
Pt       1.40360696       0.81037286      20.00000000        3       0.00099156       0.00118524      -0.00968230
Pt       4.21082088       0.81037286      20.00000000        3      -0.00098891       0.00118630      -0.00968236
Pt       7.01803480       0.81037286      20.00000000        3      -0.00000237       0.00201385      -0.00764990
Pt       2.80721392       3.24149143      20.00000000        3       0.00000051      -0.00150614      -0.00881520
Pt       5.61442784       3.24149143      20.00000000        3      -0.00076423       0.00151064       0.01716632
Pt       8.42164176       3.24149143      20.00000000        3       0.00076387       0.00151105       0.01716581
Pt       4.21082088       5.67261000      20.00000000        3       0.00310395      -0.00226818      -0.00013375
Pt       7.01803480       5.67261000      20.00000000        3      -0.00000213      -0.00184879       0.02362165
Pt       9.82524872       5.67261000      20.00000000        3      -0.00310345      -0.00226668      -0.00013277
Pt       0.00000000       1.62074571      22.29208057        2      -0.08001730       0.08058102      -0.02290681
Pt       2.80721392       1.62074571      22.29208057        2       0.00000083       0.00402450      -0.11545174
Pt       5.61442784       1.62074571      22.29208057        2       0.08001572       0.08058097      -0.02290924
Pt       1.40360696       4.05186428      22.29208057        2      -0.15491496       0.07568821       0.02985863
Pt       4.21082088       4.05186428      22.29208057        2       0.15491641       0.07568451       0.02985116
Pt       7.01803480       4.05186428      22.29208057        2      -0.00000013       0.03500702       0.08498640
Pt       2.80721392       6.48298285      22.29208057        2      -0.00000109      -0.01605156      -0.06294037
Pt       5.61442784       6.48298285      22.29208057        2       0.01797390      -0.16558510       0.01990500
Pt       8.42164176       6.48298285      22.29208057        2      -0.01797172      -0.16558592       0.01991132
Pt      -0.00383003       0.00231251      24.56366437        1       0.00767809      -0.00903324       0.00247863
Pt       2.80721358       0.01621513      24.56554189        1       0.00000567       0.00298510       0.01329657
Pt       5.61825880       0.00231389      24.56366431        1      -0.00768562      -0.00904718       0.00247890
Pt       1.41052470       2.42820960      24.56870302        1      -0.00122828      -0.00156735       0.00529696
Pt       4.20390326       2.42821013      24.56870252        1       0.00122612      -0.00157507       0.00529660
Pt       7.01803433       2.40908062      24.60324900        1       0.00000209       0.00122362       0.01185880
Pt       2.80721511       4.86098063      24.56180423        1      -0.00001392       0.01348152       0.00301546
Pt       5.59590772       4.87109679      24.62482075        1      -0.00088653       0.00053607      -0.00747431
Pt       8.44015947       4.87109604      24.62482213        1       0.00090505       0.00054487      -0.00749459
N        7.01803290       4.27634895      26.94625192        0       0.00001346       0.02831269       0.01650959
H        6.19631169       4.78218606      26.56311973        0      -0.00378561      -0.01079015      -0.00308315
H        7.83975571       4.78218103      26.56311788        0       0.00381446      -0.01072319      -0.00306136
H        7.01803839       3.36258438      26.45243659        0      -0.00004543      -0.00820875      -0.02127982
