31
Lattice="8.421641763931781 0.0 0.0 4.2108208819658905 7.293355709136913 0.0 0.0 0.0 44.584161137365626" Properties=species:S:1:pos:R:3:tags:I:1:forces:R:3 energy=-172.8053741455078 free_energy=-172.8053741455078 stress="0.010314839892089367 6.538299679448301e-09 4.98437646712091e-09 6.538299679448301e-09 0.010264919139444828 -6.443451275117695e-05 4.98437646712091e-09 -6.443451275117695e-05 -1.5528912626905367e-05" pbc="T T T"
Pt       1.40360696       0.81037286      20.00000000        3       0.00093169       0.00201284      -0.00833032
Pt       4.21082088       0.81037286      20.00000000        3      -0.00092820       0.00201317      -0.00832906
Pt       7.01803480       0.81037286      20.00000000        3      -0.00000247       0.00254296      -0.00996977
Pt       2.80721392       3.24149143      20.00000000        3       0.00000084      -0.00056337      -0.00643283
Pt       5.61442784       3.24149143      20.00000000        3      -0.00182602       0.00281454       0.01604918
Pt       8.42164176       3.24149143      20.00000000        3       0.00182585       0.00281520       0.01604730
Pt       4.21082088       5.67261000      20.00000000        3       0.00275814      -0.00174949       0.00135711
Pt       7.01803480       5.67261000      20.00000000        3      -0.00000228      -0.00165704       0.02707896
Pt       9.82524872       5.67261000      20.00000000        3      -0.00275773      -0.00174826       0.00135621
Pt       0.00000000       1.62074571      22.29208057        2      -0.05991348       0.06153189      -0.03975057
Pt       2.80721392       1.62074571      22.29208057        2       0.00000101      -0.01343493      -0.10786156
Pt       5.61442784       1.62074571      22.29208057        2       0.05991272       0.06153292      -0.03975158
Pt       1.40360696       4.05186428      22.29208057        2      -0.15452033       0.06490416       0.03627679
Pt       4.21082088       4.05186428      22.29208057        2       0.15452361       0.06490348       0.03627920
Pt       7.01803480       4.05186428      22.29208057        2      -0.00000317       0.04678756       0.07277729
Pt       2.80721392       6.48298285      22.29208057        2       0.00000113      -0.04094853      -0.07370299
Pt       5.61442784       6.48298285      22.29208057        2       0.02177998      -0.17522129       0.02285033
Pt       8.42164176       6.48298285      22.29208057        2      -0.02178014      -0.17521951       0.02285062
Pt      -0.01123102      -0.01385117      24.56335472        1       0.04619456       0.00736516       0.00769162
Pt       2.80721404       0.00059070      24.56808298        1       0.00000196       0.01147410      -0.00642852
Pt       5.62565959      -0.01385175      24.56335419        1      -0.04619744       0.00736883       0.00769141
Pt       1.40770157       2.40721552      24.57008985        1       0.01530016       0.01631409      -0.00071348
Pt       4.20672683       2.40721524      24.57008995        1      -0.01530112       0.01631667      -0.00071453
Pt       7.01803481       2.40304557      24.59457057        1      -0.00000147      -0.01717937       0.04192425
Pt       2.80721336       4.83911317      24.56370900        1       0.00000722       0.02286743      -0.00901149
Pt       5.58907298       4.85269554      24.62682748        1       0.01529505       0.02645263      -0.00762364
Pt       8.44699678       4.85269509      24.62682755        1      -0.01530130       0.02645542      -0.00762136
N        7.01803608       4.35581680      26.93230161        0      -0.00002602      -0.00950380      -0.03415549
H        7.83759034       4.87256221      26.55474905        0      -0.01874967       0.01046869       0.01214707
H        7.01803339       3.46740269      26.38941338        0       0.00001688      -0.03019579       0.02585854
H        6.19848030       4.87256120      26.55474801        0       0.01876000       0.01047966       0.01216120
