31
Lattice="8.421641763931781 0.0 0.0 4.2108208819658905 7.293355709136913 0.0 0.0 0.0 44.584161137365626" Properties=species:S:1:pos:R:3:tags:I:1:forces:R:3 energy=-172.793212890625 free_energy=-172.793212890625 stress="0.010255740955471992 6.393714446772947e-10 -4.94628649150286e-09 6.393714446772947e-10 0.01025573629885912 5.29453991759965e-09 -4.94628649150286e-09 5.29453991759965e-09 -4.6709006710443646e-05" pbc="T T T"
Pt       1.40360696       0.81037286      20.00000000        3       0.00000052      -0.00000262      -0.00486141
Pt       4.21082088       0.81037286      20.00000000        3      -0.00290395       0.00139593       0.00231442
Pt       7.01803480       0.81037286      20.00000000        3       0.00227680       0.00266027       0.00166711
Pt       2.80721392       3.24149143      20.00000000        3       0.00116623      -0.00330488       0.00166607
Pt       5.61442784       3.24149143      20.00000000        3      -0.00000193      -0.00000010       0.03026199
Pt       8.42164176       3.24149143      20.00000000        3       0.00024374      -0.00321474       0.00231287
Pt       4.21082088       5.67261000      20.00000000        3       0.00266591       0.00181859       0.00231338
Pt       7.01803480       5.67261000      20.00000000        3      -0.00344708       0.00064510       0.00166601
Pt       9.82524872       5.67261000      20.00000000        3      -0.00000159       0.00000248      -0.01544547
Pt       0.00000000       1.62074571      22.29208057        2      -0.12471271       0.08350945       0.03022529
Pt       2.80721392       1.62074571      22.29208057        2       0.13467820       0.06624712       0.03021912
Pt       5.61442784       1.62074571      22.29208057        2       0.00400543       0.11404039       0.03495254
Pt       1.40360696       4.05186428      22.29208057        2      -0.00719784      -0.04541107      -0.07373615
Pt       4.21082088       4.05186428      22.29208057        2       0.09676334      -0.06048996       0.03494997
Pt       7.01803480       4.05186428      22.29208057        2      -0.10076793      -0.05355478       0.03495334
Pt       2.80721392       6.48298285      22.29208057        2       0.04292528       0.01647335      -0.07373689
Pt       5.61442784       6.48298285      22.29208057        2      -0.00996828      -0.14975755       0.03021765
Pt       8.42164176       6.48298285      22.29208057        2      -0.03572519       0.02894254      -0.07373812
Pt      -0.00313698       0.01189108      24.56865884        1       0.01776816      -0.02652131      -0.02491452
Pt       2.79848418      -0.00866337      24.56865836        1       0.01409117       0.02865441      -0.02491342
Pt       5.62493786      -0.01354437      24.56854496        1      -0.02909887       0.03360777      -0.00102319
Pt       1.41547497       2.42788935      24.56865872        1      -0.03186734      -0.00212585      -0.02491477
Pt       4.19313629       2.40105411      24.60715553        1      -0.01622531       0.01531191      -0.00091495
Pt       7.05291263       2.43083537      24.60715583        1      -0.00514124      -0.02171382      -0.00092764
Pt       2.79022944       4.85990686      24.56854403        1       0.04365107       0.00839913      -0.00102264
Pt       5.59723343       4.89258451      24.60715505        1       0.02137748       0.00639490      -0.00091417
Pt       8.42811604       4.87811131      24.56854477        1      -0.01455366      -0.04200768      -0.00102106
N        5.61442764       3.24149175      26.89807612        0       0.00001925      -0.00003577       0.02234399
H        5.38130499       4.15848436      26.46326970        0       0.02891884      -0.00175713       0.02065888
H        6.52512819       2.98488539      26.46326894        0      -0.01601160      -0.02415483       0.02068550
H        4.93685052       2.58110461      26.46326901        0      -0.01292685       0.02594867       0.02067626
