31
Lattice="8.421641763931781 0.0 0.0 4.2108208819658905 7.293355709136913 0.0 0.0 0.0 44.584161137365626" Properties=species:S:1:pos:R:3:tags:I:1:forces:R:3 energy=-172.80453491210938 free_energy=-172.80453491210938 stress="0.0103090088814497 9.692599611810238e-09 -1.2632347612395733e-08 9.692599611810238e-09 0.010309000499546528 -1.2380680480816864e-08 -1.2632347612395733e-08 -1.2380680480816864e-08 -2.4675211534486152e-05" pbc="T T T"
Pt       1.40360696       0.81037286      20.00000000        3       0.00144641       0.00135408      -0.00842533
Pt       4.21082088       0.81037286      20.00000000        3      -0.00189501       0.00057200      -0.00842404
Pt       7.01803480       0.81037286      20.00000000        3      -0.00024811       0.00310554      -0.00555518
Pt       2.80721392       3.24149143      20.00000000        3       0.00045288      -0.00193061      -0.00842544
Pt       5.61442784       3.24149143      20.00000000        3       0.00007411      -0.00009920       0.01854762
Pt       8.42164176       3.24149143      20.00000000        3       0.00004890       0.00011662       0.01854652
Pt       4.21082088       5.67261000      20.00000000        3       0.00281560      -0.00134048      -0.00555483
Pt       7.01803480       5.67261000      20.00000000        3      -0.00012554      -0.00001408       0.01854727
Pt       9.82524872       5.67261000      20.00000000        3      -0.00256983      -0.00176318      -0.00555465
Pt       0.00000000       1.62074571      22.29208057        2      -0.10751338       0.10099290       0.00855551
Pt       2.80721392       1.62074571      22.29208057        2       0.00000240      -0.00000006      -0.10864503
Pt       5.61442784       1.62074571      22.29208057        2       0.11438497       0.09611720       0.00601930
Pt       1.40360696       4.05186428      22.29208057        2      -0.14043625       0.05100599       0.00602022
Pt       4.21082088       4.05186428      22.29208057        2       0.14122444       0.04261053       0.00855665
Pt       7.01803480       4.05186428      22.29208057        2      -0.00000215       0.00000088       0.08440641
Pt       2.80721392       6.48298285      22.29208057        2       0.00000034       0.00000059      -0.08292601
Pt       5.61442784       6.48298285      22.29208057        2       0.02604447      -0.14712277       0.00601763
Pt       8.42164176       6.48298285      22.29208057        2      -0.03370572      -0.14360687       0.00855649
Pt      -0.00295033       0.00121241      24.55878975        1       0.01111742      -0.00658098       0.02385272
Pt       2.79764932       0.01234708      24.57146124        1       0.02427052      -0.01657762      -0.01095103
Pt       5.61485270      -0.00316189      24.55879044        1       0.00013923       0.01291679       0.02385488
Pt       1.41908205       2.43322793      24.57146093        1      -0.02649215      -0.01273164      -0.01095021
Pt       4.20491010       2.41666137      24.57146263        1       0.00222077       0.02931046      -0.01096030
Pt       7.02433512       2.40983448      24.61358863        1      -0.01066710       0.00376239       0.00524928
Pt       2.80973921       4.86418543      24.55878943        1      -0.01125693      -0.00633522       0.02385564
Pt       5.59284495       4.86742306      24.61358910        1       0.00859001       0.00735691       0.00524523
Pt       8.43692333       4.87833560      24.61358945        1       0.00207956      -0.01111932       0.00523895
N        7.01803465       4.05186369      26.95090029        0       0.00006686       0.00007266      -0.01172626
H        7.09618072       3.10631073      26.52764602        0      -0.01122321       0.01347348       0.00232155
H        6.16008937       4.45696522      26.52764353        0       0.01729135       0.00296095       0.00233483
H        7.79783673       4.59231739      26.52764285        0      -0.00613482      -0.01650770       0.00237184
