31
Lattice="8.421641763931781 0.0 0.0 4.2108208819658905 7.293355709136913 0.0 0.0 0.0 44.584161137365626" Properties=species:S:1:pos:R:3:tags:I:1:forces:R:3 energy=-172.80596923828125 free_energy=-172.80596923828125 stress="0.010340826585888863 -1.1019533063816311e-09 -2.8676490071433136e-09 -1.1019533063816311e-09 0.01023809239268303 0.00010188660235144198 -2.8676490071433136e-09 0.00010188660235144198 -2.522512477298733e-05" pbc="T T T"
Pt       1.40360696       0.81037286      20.00000000        3       0.00137096       0.00058636      -0.00833735
Pt       4.21082088       0.81037286      20.00000000        3      -0.00136696       0.00058680      -0.00833458
Pt       7.01803480       0.81037286      20.00000000        3      -0.00000309       0.00054179      -0.01008832
Pt       2.80721392       3.24149143      20.00000000        3       0.00000092      -0.00272511      -0.00847331
Pt       5.61442784       3.24149143      20.00000000        3      -0.00164488       0.00133719       0.01607502
Pt       8.42164176       3.24149143      20.00000000        3       0.00164451       0.00133803       0.01607242
Pt       4.21082088       5.67261000      20.00000000        3       0.00306895      -0.00382217       0.00073114
Pt       7.01803480       5.67261000      20.00000000        3      -0.00000247      -0.00263125       0.02806708
Pt       9.82524872       5.67261000      20.00000000        3      -0.00306829      -0.00382011       0.00073156
Pt       0.00000000       1.62074571      22.29208057        2      -0.06632917       0.08840448      -0.04020588
Pt       2.80721392       1.62074571      22.29208057        2       0.00000193       0.01983061      -0.12073741
Pt       5.61442784       1.62074571      22.29208057        2       0.06632726       0.08840181      -0.04020309
Pt       1.40360696       4.05186428      22.29208057        2      -0.15750742       0.09655941       0.02518395
Pt       4.21082088       4.05186428      22.29208057        2       0.15751117       0.09655717       0.02518369
Pt       7.01803480       4.05186428      22.29208057        2      -0.00000322       0.06662302       0.08368728
Pt       2.80721392       6.48298285      22.29208057        2      -0.00000439      -0.00960023      -0.06137996
Pt       5.61442784       6.48298285      22.29208057        2       0.02929742      -0.15446350       0.02591397
Pt       8.42164176       6.48298285      22.29208057        2      -0.02929374      -0.15445969       0.02591953
Pt      -0.00201805       0.01868518      24.56279795        1      -0.01062217      -0.00948402       0.00659481
Pt       2.80721390       0.04624298      24.56969679        1       0.00000236      -0.04437007      -0.00401133
Pt       5.61644585       0.01868566      24.56280133        1       0.01062016      -0.00948763       0.00657341
Pt       1.40760318       2.45042648      24.56863057        1       0.00294520      -0.02024964       0.00781217
Pt       4.20682430       2.45042586      24.56863040        1      -0.00294095      -0.02024645       0.00781301
Pt       7.01803497       2.42384693      24.59392343        1      -0.00000275       0.00320058       0.02678855
Pt       2.80721426       4.87606285      24.56256266        1      -0.00000183       0.01987286      -0.00169486
Pt       5.59298836       4.89382217      24.62805789        1       0.02575552      -0.02177072      -0.00592848
Pt       8.44308092       4.89382174      24.62805820        1      -0.02575592      -0.02176443      -0.00592400
N        7.01803468       4.34186206      26.93106450        0       0.00000794       0.02502411      -0.01032552
H        7.01803555       3.45218946      26.38980322        0      -0.00000736       0.00736242       0.02859658
H        6.19839480       4.86425646      26.56361035        0       0.00287403      -0.01866965      -0.00305070
H        7.83767596       4.86425466      26.56361130        0      -0.00287372      -0.01866183      -0.00304937
