31
Lattice="8.421641763931781 0.0 0.0 4.2108208819658905 7.293355709136913 0.0 0.0 0.0 44.584161137365626" Properties=species:S:1:pos:R:3:tags:I:1:forces:R:3 energy=-173.70492553710938 free_energy=-173.70492553710938 stress="0.010680587962269783 2.8375907277222723e-05 0.0001695592509349808 2.8375907277222723e-05 0.010741516947746277 3.4089007385773584e-05 0.0001695592509349808 3.4089007385773584e-05 5.874271664652042e-05" pbc="T T T"
Pt       1.40360696       0.81037286      20.00000000        3       0.00031102       0.00268732      -0.00447884
Pt       4.21082088       0.81037286      20.00000000        3      -0.00810669       0.00235511      -0.00712490
Pt       7.01803480       0.81037286      20.00000000        3       0.00321599       0.00359229      -0.00810623
Pt       2.80721392       3.24149143      20.00000000        3      -0.00433377      -0.00224736      -0.00928953
Pt       5.61442784       3.24149143      20.00000000        3      -0.00249658       0.00491465       0.01746908
Pt       8.42164176       3.24149143      20.00000000        3       0.00195814      -0.00287195      -0.00715774
Pt       4.21082088       5.67261000      20.00000000        3       0.00347215      -0.00378653       0.01229087
Pt       7.01803480       5.67261000      20.00000000        3      -0.00678936      -0.00205459       0.01807556
Pt       9.82524872       5.67261000      20.00000000        3      -0.00115958      -0.00634423      -0.01386547
Pt       0.00000000       1.62074571      22.29208057        2       0.00195456       0.00614079       0.01400438
Pt       2.80721392       1.62074571      22.29208057        2       0.02918531      -0.02375295       0.00824476
Pt       5.61442784       1.62074571      22.29208057        2       0.02450356       0.07786146       0.03594733
Pt       1.40360696       4.05186428      22.29208057        2       0.02262164       0.00181844      -0.02281371
Pt       4.21082088       4.05186428      22.29208057        2       0.12589583       0.05411746       0.00332703
Pt       7.01803480       4.05186428      22.29208057        2      -0.05367224       0.03281719      -0.03437210
Pt       2.80721392       6.48298285      22.29208057        2       0.08070796      -0.01637713       0.02399294
Pt       5.61442784       6.48298285      22.29208057        2       0.02491899      -0.08010797      -0.01047141
Pt       8.42164176       6.48298285      22.29208057        2      -0.05419185      -0.01214015       0.02599738
Pt       0.02607705       0.01859233      24.60051005        1      -0.00467333      -0.00034551      -0.00945656
Pt       2.84340954       0.01017763      24.61152193        1      -0.01936211      -0.01465861      -0.00322370
Pt       5.65184512       0.01121357      24.58684331        1      -0.03366239      -0.00519673       0.00789115
Pt       1.43786872       2.43735703      24.58718567        1      -0.02070948      -0.02023296       0.00611344
Pt       4.23500561       2.42925460      24.60046765        1      -0.00737107      -0.00699803      -0.01116130
Pt       7.05373865       2.44106742      24.61236689        1      -0.01561798       0.00319874      -0.00584538
Pt       2.83773425       4.86789628      24.59716443        1      -0.02720699       0.00492721       0.01070783
Pt       5.64053571       4.87159116      24.67759478        1      -0.00385742       0.00200617      -0.02873355
Pt       8.47819637       4.86788717      24.58945690        1      -0.02780465       0.00902575       0.01438275
N        5.97039525       4.88277766      26.72392086        0      -0.00234920      -0.00540900       0.01385230
H        6.49295414       4.03326080      26.95471092        0      -0.01010084      -0.03730786       0.00940791
H        5.07398269       4.90550383      27.21669790        0       0.00709723       0.00362731      -0.04278535
H        6.53454465       5.70785792      26.94764628        0      -0.02237685       0.03074136      -0.00281869
