31
Lattice="8.421641763931781 0.0 0.0 4.2108208819658905 7.293355709136913 0.0 0.0 0.0 44.584161137365626" Properties=species:S:1:pos:R:3:tags:I:1:forces:R:3 energy=-173.70989990234375 free_energy=-173.70989990234375 stress="0.010813934728503227 1.3475120574923949e-08 -7.435414062229029e-09 1.3475120574923949e-08 0.010813937522470951 -3.6777463296999713e-09 -7.435414062229029e-09 -3.6777463296999713e-09 0.0001200883270939812" pbc="T T T"
Pt       1.40360696       0.81037286      20.00000000        3       0.00496257       0.00286219      -0.00772381
Pt       4.21082088       0.81037286      20.00000000        3       0.00000252       0.00341874      -0.00427127
Pt       7.01803480       0.81037286      20.00000000        3      -0.00496420       0.00286286      -0.00772369
Pt       2.80721392       3.24149143      20.00000000        3       0.00296325      -0.00171069      -0.00427359
Pt       5.61442784       3.24149143      20.00000000        3      -0.00296396      -0.00170997      -0.00427222
Pt       8.42164176       3.24149143      20.00000000        3       0.00000103       0.00448161       0.01262677
Pt       4.21082088       5.67261000      20.00000000        3       0.00000228      -0.00572838      -0.00772333
Pt       7.01803480       5.67261000      20.00000000        3       0.00387865      -0.00223855       0.01262823
Pt       9.82524872       5.67261000      20.00000000        3      -0.00388209      -0.00223813       0.01262823
Pt       0.00000000       1.62074571      22.29208057        2       0.00000120       0.05747534       0.04723158
Pt       2.80721392       1.62074571      22.29208057        2      -0.00187029      -0.00108147       0.02037199
Pt       5.61442784       1.62074571      22.29208057        2       0.00186877      -0.00108151       0.02037116
Pt       1.40360696       4.05186428      22.29208057        2      -0.06378084       0.03682447      -0.01406286
Pt       4.21082088       4.05186428      22.29208057        2       0.00000238       0.00216036       0.02037186
Pt       7.01803480       4.05186428      22.29208057        2       0.06377854       0.03682479      -0.01406260
Pt       2.80721392       6.48298285      22.29208057        2      -0.04977694      -0.02873816       0.04723136
Pt       5.61442784       6.48298285      22.29208057        2       0.04977601      -0.02873804       0.04723051
Pt       8.42164176       6.48298285      22.29208057        2       0.00000156      -0.07364593      -0.01406429
Pt       0.00000028      -0.00000024      24.59664063        1      -0.00000020      -0.00000008      -0.03495663
Pt       2.80263426       0.00774840      24.60512663        1       0.00224543       0.00079810      -0.01533262
Pt       5.61900769       0.00774842      24.60512650        1      -0.00224544       0.00079675      -0.01533386
Pt       1.40802785       2.42327779      24.60512697        1       0.00181267       0.00154608      -0.01533246
Pt       4.21082118       2.43111825      24.59749829        1      -0.00000055       0.00000085      -0.03699377
Pt       7.01361394       2.42327791      24.60512692        1      -0.00181429       0.00154411      -0.01533177
Pt       2.81621444       4.86232896      24.60512679        1      -0.00043126      -0.00234304      -0.01533312
Pt       5.60542735       4.86232897      24.60512678        1       0.00043146      -0.00234297      -0.01533403
Pt       8.42164093       4.86223696      24.66416368        1       0.00000132      -0.00000113      -0.02247059
N        8.42164219       4.86223720      26.72911499        0      -0.00006467      -0.00001456       0.01966667
H        8.42164196       5.83329083      27.05108332        0       0.00000097      -0.00093456       0.00141974
H        9.26259888       4.37671091      27.05108366        0      -0.00079188       0.00045740       0.00142220
H        7.58068410       4.37671042      27.05108587        0       0.00085595       0.00049345       0.00139627
