31
Lattice="8.421641763931781 0.0 0.0 4.2108208819658905 7.293355709136913 0.0 0.0 0.0 44.584161137365626" Properties=species:S:1:pos:R:3:tags:I:1:forces:R:3 energy=-173.7102813720703 free_energy=-173.7102813720703 stress="0.01071226317435503 2.4054175540300093e-08 -1.651922865164579e-08 2.4054175540300093e-08 0.01071227341890335 3.5872820269844397e-09 -1.651922865164579e-08 3.5872820269844397e-09 4.417578111315379e-06" pbc="T T T"
Pt       1.40360696       0.81037286      20.00000000        3       0.00529922       0.00305615      -0.00948292
Pt       4.21082088       0.81037286      20.00000000        3       0.00000227       0.00307825      -0.00639072
Pt       7.01803480       0.81037286      20.00000000        3      -0.00530055       0.00305729      -0.00948358
Pt       2.80721392       3.24149143      20.00000000        3       0.00266804      -0.00154005      -0.00639224
Pt       5.61442784       3.24149143      20.00000000        3      -0.00266945      -0.00153965      -0.00639224
Pt       8.42164176       3.24149143      20.00000000        3       0.00000118       0.00475496       0.01274958
Pt       4.21082088       5.67261000      20.00000000        3       0.00000211      -0.00611693      -0.00948355
Pt       7.01803480       5.67261000      20.00000000        3       0.00411534      -0.00237495       0.01275110
Pt       9.82524872       5.67261000      20.00000000        3      -0.00411867      -0.00237434       0.01275107
Pt       0.00000000       1.62074571      22.29208057        2       0.00000152       0.06343967       0.03027289
Pt       2.80721392       1.62074571      22.29208057        2      -0.00684131      -0.00395177      -0.00154277
Pt       5.61442784       1.62074571      22.29208057        2       0.00683997      -0.00395229      -0.00154365
Pt       1.40360696       4.05186428      22.29208057        2      -0.07011675       0.04048273      -0.02523402
Pt       4.21082088       4.05186428      22.29208057        2       0.00000209       0.00790040      -0.00154342
Pt       7.01803480       4.05186428      22.29208057        2       0.07011531       0.04048302      -0.02523390
Pt       2.80721392       6.48298285      22.29208057        2      -0.05494198      -0.03171966       0.03027110
Pt       5.61442784       6.48298285      22.29208057        2       0.05494107      -0.03171919       0.03027122
Pt       8.42164176       6.48298285      22.29208057        2       0.00000113      -0.08096210      -0.02523466
Pt       0.00000021      -0.00000033      24.58850384        1       0.00000210       0.00000081       0.00132203
Pt       2.80355209       0.00802504      24.60119116        1      -0.00458987      -0.00414383      -0.00084987
Pt       5.61809005       0.00802495      24.60119109        1       0.00458750      -0.00414412      -0.00085029
Pt       1.40872612       2.42393448      24.60119111        1      -0.00588303      -0.00190406      -0.00084864
Pt       4.21082104       2.43111855      24.58865123        1      -0.00000119      -0.00000136       0.00399435
Pt       7.01291561       2.42393443      24.60119133        1       0.00588381      -0.00190391      -0.00084853
Pt       2.81599488       4.86139620      24.60119109        1      -0.00129408       0.00604480      -0.00084861
Pt       5.60564673       4.86139576      24.60119125        1       0.00129373       0.00604796      -0.00084963
Pt       8.42164090       4.86223693      24.66375108        1       0.00000119       0.00000103       0.01511106
N        8.42164321       4.86223696      26.73315958        0      -0.00014411       0.00001869      -0.02635485
H        9.26401309       4.37589408      27.05193214        0      -0.02547425       0.01470940       0.00333434
H        7.57927003       4.37589356      27.05193437        0       0.02561130       0.01478100       0.00327787
H        8.42164192       5.83492417      27.05193321        0       0.00000649      -0.02950804       0.00330120
