31
Lattice="8.421641763931781 0.0 0.0 4.2108208819658905 7.293355709136913 0.0 0.0 0.0 44.584161137365626" Properties=species:S:1:pos:R:3:tags:I:1:forces:R:3 energy=-172.57716369628906 free_energy=-172.57716369628906 stress="0.010478955693542957 8.625563041597673e-10 -5.876775732716055e-10 8.625563041597673e-10 0.010478963144123554 1.033877206069178e-09 -5.876775732716055e-10 1.033877206069178e-09 -0.00018221323261968791" pbc="T T T"
Pt       1.40360696       0.81037286      20.00000000        3       0.00106708       0.00043585      -0.00487110
Pt       4.21082088       0.81037286      20.00000000        3      -0.00091039       0.00070278      -0.00487047
Pt       7.01803480       0.81037286      20.00000000        3      -0.00009060       0.00047795      -0.00420833
Pt       2.80721392       3.24149143      20.00000000        3      -0.00015273      -0.00114283      -0.00487205
Pt       5.61442784       3.24149143      20.00000000        3       0.00003959       0.00009015       0.00331888
Pt       8.42164176       3.24149143      20.00000000        3      -0.00009742      -0.00000849       0.00331753
Pt       4.21082088       5.67261000      20.00000000        3       0.00046177      -0.00016230      -0.00420830
Pt       7.01803480       5.67261000      20.00000000        3       0.00005501      -0.00007845       0.00331834
Pt       9.82524872       5.67261000      20.00000000        3      -0.00037283      -0.00031381      -0.00420934
Pt       0.00000000       1.62074571      22.29208057        2      -0.02726761       0.03339192      -0.00388955
Pt       2.80721392       1.62074571      22.29208057        2       0.00000029      -0.00000125      -0.05327018
Pt       5.61442784       1.62074571      22.29208057        2       0.02598071       0.03246891      -0.00567625
Pt       1.40360696       4.05186428      22.29208057        2      -0.04111129       0.00626626      -0.00567319
Pt       4.21082088       4.05186428      22.29208057        2       0.04255692       0.00691784      -0.00389056
Pt       7.01803480       4.05186428      22.29208057        2      -0.00000231       0.00000004       0.05031895
Pt       2.80721392       6.48298285      22.29208057        2       0.00000004       0.00000158      -0.03515355
Pt       5.61442784       6.48298285      22.29208057        2       0.01512689      -0.03873565      -0.00567606
Pt       8.42164176       6.48298285      22.29208057        2      -0.01528428      -0.04031023      -0.00389173
Pt      -0.00188908      -0.00020536      24.57707634        1       0.00315286       0.00671014      -0.00708368
Pt       2.80770920       0.00689241      24.57902241        1       0.00323699      -0.01788777      -0.00410721
Pt       5.61554986      -0.00153368      24.57707614        1      -0.00738634      -0.00062641      -0.00708458
Pt       1.40932859       2.42724354      24.57902255        1      -0.01710923       0.00614021      -0.00410724
Pt       4.20460445       2.42810108      24.57902241        1       0.01386959       0.01174831      -0.00410756
Pt       7.01544300       2.41651278      24.58942641        1      -0.00550465       0.02318285       0.00538571
Pt       2.80798104       4.86397595      24.57707634        1       0.00423286      -0.00608598      -0.00708324
Pt       5.60307449       4.87178439      24.58942621        1       0.02283021      -0.00682094       0.00538501
Pt       8.43558644       4.86729586      24.58942647        1      -0.01732133      -0.01636068       0.00538559
N        7.01803498       4.05186437      27.59415658        0      -0.00000763      -0.00000013       0.00236237
H        6.54966036       3.23095295      27.19876103        0       0.03267463       0.00887215       0.03304847
H        6.54129203       4.86794392      27.19876099        0      -0.00865404      -0.03272733       0.03304843
H        7.96315176       4.05669574      27.19876105        0      -0.02401274       0.02385524       0.03304502
