31
Lattice="8.421641763931781 0.0 0.0 4.2108208819658905 7.293355709136913 0.0 0.0 0.0 44.584161137365626" Properties=species:S:1:pos:R:3:tags:I:1:forces:R:3 energy=-173.7161865234375 free_energy=-173.7161865234375 stress="0.01066664420068264 1.7537823637781003e-08 9.608936757388165e-09 1.7537823637781003e-08 0.01066670287400484 8.770271620051062e-09 9.608936757388165e-09 8.770271620051062e-09 -1.8390336435913923e-06" pbc="T T T"
Pt       1.40360696       0.81037286      20.00000000        3       0.00502234       0.00367333      -0.00957429
Pt       4.21082088       0.81037286      20.00000000        3       0.00067048       0.00312249      -0.00628382
Pt       7.01803480       0.81037286      20.00000000        3      -0.00569613       0.00250904      -0.00957558
Pt       2.80721392       3.24149143      20.00000000        3       0.00237179      -0.00214147      -0.00628638
Pt       5.61442784       3.24149143      20.00000000        3      -0.00304140      -0.00098297      -0.00628620
Pt       8.42164176       3.24149143      20.00000000        3       0.00054128       0.00469325       0.01201871
Pt       4.21082088       5.67261000      20.00000000        3       0.00067453      -0.00618551      -0.00957504
Pt       7.01803480       5.67261000      20.00000000        3       0.00379223      -0.00281071       0.01201892
Pt       9.82524872       5.67261000      20.00000000        3      -0.00433552      -0.00187661       0.01201841
Pt       0.00000000       1.62074571      22.29208057        2       0.00612074       0.06274151       0.02846895
Pt       2.80721392       1.62074571      22.29208057        2      -0.00941596       0.00433068      -0.00398359
Pt       5.61442784       1.62074571      22.29208057        2       0.00095354      -0.01032536      -0.00398112
Pt       1.40360696       4.05186428      22.29208057        2      -0.07003634       0.03508432      -0.02903674
Pt       4.21082088       4.05186428      22.29208057        2       0.00846709       0.00598725      -0.00398562
Pt       7.01803480       4.05186428      22.29208057        2       0.06539853       0.04310889      -0.02903623
Pt       2.80721392       6.48298285      22.29208057        2      -0.05739669      -0.02607061       0.02846710
Pt       5.61442784       6.48298285      22.29208057        2       0.05128003      -0.03666831       0.02846910
Pt       8.42164176       6.48298285      22.29208057        2       0.00463440      -0.07819121      -0.02903482
Pt       0.00000140      -0.00000014      24.58874805        1       0.00000105      -0.00000035      -0.00018767
Pt       2.80256879       0.01090817      24.59462477        1      -0.00539996       0.00065995       0.01185319
Pt       5.61709969       0.00668476      24.60592500        1      -0.00698537      -0.01683070      -0.00246619
Pt       1.40806366       2.42546320      24.60592482        1      -0.01109228       0.01445655      -0.00246559
Pt       4.21082152       2.43111912      24.58900186        1       0.00000589      -0.00000619      -0.00094032
Pt       7.01091325       2.42163963      24.59462508        1       0.00211526      -0.00501034       0.01185440
Pt       2.81898380       4.86080722      24.59462439        1       0.00327355       0.00434597       0.01186393
Pt       5.60730244       4.86120711      24.60592519        1       0.01806838       0.00237508      -0.00246508
Pt       8.42164017       4.86223508      24.65974503        1      -0.00000553       0.00000797       0.03701666
N        8.42163580       4.86223543      26.72996404        0       0.00015590       0.00011209      -0.04312921
H        8.90516745       4.01818286      27.04813453        0      -0.00425751       0.00503713       0.00142460
H        7.44890330       4.86551786      27.04814085        0       0.00641070       0.00115638       0.00142808
H        8.91084906       5.70301360      27.04812955        0      -0.00229503      -0.00630155       0.00139124
