31
Lattice="8.421641763931781 0.0 0.0 4.2108208819658905 7.293355709136913 0.0 0.0 0.0 44.584161137365626" Properties=species:S:1:pos:R:3:tags:I:1:forces:R:3 energy=-172.5950164794922 free_energy=-172.5950164794922 stress="0.010540773160755634 1.564374407792002e-08 -2.3151740080606942e-08 1.564374407792002e-08 0.01054078433662653 -7.672457669194443e-10 -2.3151740080606942e-08 -7.672457669194443e-10 -0.00010158922668779269" pbc="T T T"
Pt       1.40360696       0.81037286      20.00000000        3       0.00000047      -0.00000218      -0.00804365
Pt       4.21082088       0.81037286      20.00000000        3      -0.00033389       0.00056137      -0.00361979
Pt       7.01803480       0.81037286      20.00000000        3       0.00033361       0.00056198      -0.00362015
Pt       2.80721392       3.24149143      20.00000000        3       0.00032077      -0.00057269      -0.00362062
Pt       5.61442784       3.24149143      20.00000000        3      -0.00000137      -0.00000010       0.00279957
Pt       8.42164176       3.24149143      20.00000000        3      -0.00031894      -0.00057192      -0.00362080
Pt       4.21082088       5.67261000      20.00000000        3       0.00065800       0.00001066      -0.00362030
Pt       7.01803480       5.67261000      20.00000000        3      -0.00065815       0.00001146      -0.00362110
Pt       9.82524872       5.67261000      20.00000000        3      -0.00000123       0.00000240      -0.00901982
Pt       0.00000000       1.62074571      22.29208057        2      -0.02765010       0.01596476      -0.01667496
Pt       2.80721392       1.62074571      22.29208057        2       0.02765062       0.01596198      -0.01667841
Pt       5.61442784       1.62074571      22.29208057        2      -0.00000027       0.02752771       0.02986771
Pt       1.40360696       4.05186428      22.29208057        2      -0.00000025      -0.01516622      -0.02845007
Pt       4.21082088       4.05186428      22.29208057        2       0.02384284      -0.01376609       0.02986704
Pt       7.01803480       4.05186428      22.29208057        2      -0.02384252      -0.01376775       0.02987055
Pt       2.80721392       6.48298285      22.29208057        2       0.01313203       0.00758418      -0.02845214
Pt       5.61442784       6.48298285      22.29208057        2      -0.00000013      -0.03192653      -0.01668446
Pt       8.42164176       6.48298285      22.29208057        2      -0.01313125       0.00758592      -0.02845246
Pt       0.00435991       0.00251510      24.57790425        1      -0.02783969      -0.01606245       0.01102218
Pt       2.80285559       0.00251541      24.57790491        1       0.02783556      -0.01606207       0.01101321
Pt       5.61442757      -0.00781481      24.57844179        1       0.00000145       0.04039088       0.01039925
Pt       1.40360758       2.42608540      24.57790510        1      -0.00000683       0.03213491       0.01101252
Pt       4.20815390       2.42957871      24.59062757        1      -0.02003669      -0.01157313       0.00456892
Pt       7.02070083       2.42957774      24.59062876        1       0.02004427      -0.01156857       0.00455961
Pt       2.80044669       4.86614382      24.57844220        1       0.03497782      -0.02019163       0.01039952
Pt       5.61442745       4.86531681      24.59062744        1       0.00000199       0.02313190       0.00456992
Pt       8.42840854       4.86614426      24.57844246        1      -0.03497811      -0.02019924       0.01040128
N        5.61442539       3.24149120      27.94718674        0       0.00015541       0.00000903      -0.00696090
H        4.79943779       3.71202752      27.54979947        0       0.00666273      -0.00386639       0.00355985
H        6.42941829       3.71202605      27.54979869        0      -0.00679490      -0.00391582       0.00363443
H        5.61442872       2.30042142      27.54979835        0      -0.00002315       0.00777349       0.00359379
