31
Lattice="8.421641763931781 0.0 0.0 4.2108208819658905 7.293355709136913 0.0 0.0 0.0 44.584161137365626" Properties=species:S:1:pos:R:3:tags:I:1:forces:R:3 energy=-173.70553588867188 free_energy=-173.70553588867188 stress="0.010602384805679321 -2.620989289425779e-05 -0.0001584615238243714 -2.620989289425779e-05 0.010675087571144104 2.9834482120350003e-05 -0.0001584615238243714 2.9834482120350003e-05 1.3906478670833167e-06" pbc="T T T"
Pt       1.40360696       0.81037286      20.00000000        3       0.00810033       0.00230086      -0.00730398
Pt       4.21082088       0.81037286      20.00000000        3      -0.00053745       0.00226171      -0.00494874
Pt       7.01803480       0.81037286      20.00000000        3      -0.00363349       0.00380949      -0.00837588
Pt       2.80721392       3.24149143      20.00000000        3       0.00391562      -0.00243272      -0.00999212
Pt       5.61442784       3.24149143      20.00000000        3      -0.00183777      -0.00250381      -0.00630081
Pt       8.42164176       3.24149143      20.00000000        3       0.00196713       0.00459311       0.01668611
Pt       4.21082088       5.67261000      20.00000000        3       0.00161731      -0.00621605      -0.01457718
Pt       7.01803480       5.67261000      20.00000000        3       0.00587477      -0.00198251       0.01730949
Pt       9.82524872       5.67261000      20.00000000        3      -0.00380939      -0.00329303       0.01096901
Pt       0.00000000       1.62074571      22.29208057        2      -0.02240812       0.08026153       0.02943238
Pt       2.80721392       1.62074571      22.29208057        2      -0.02905749      -0.02446795       0.00047297
Pt       5.61442784       1.62074571      22.29208057        2       0.00403141       0.00814104       0.00723178
Pt       1.40360696       4.05186428      22.29208057        2      -0.12266104       0.05270009       0.00200760
Pt       4.21082088       4.05186428      22.29208057        2      -0.01272427       0.00070796      -0.02861087
Pt       7.01803480       4.05186428      22.29208057        2       0.04903297       0.02792408      -0.04450520
Pt       2.80721392       6.48298285      22.29208057        2      -0.07940438      -0.01347701       0.02048533
Pt       5.61442784       6.48298285      22.29208057        2       0.05713889      -0.01411011       0.01102414
Pt       8.42164176       6.48298285      22.29208057        2      -0.01932932      -0.07756346      -0.02272556
Pt      -0.02839409       0.01105726      24.58386673        1       0.00239598       0.00125851       0.02097604
Pt       2.77629673       0.00591338      24.61011876        1       0.01721152       0.01350042       0.00390792
Pt       5.59244202       0.01944030      24.59870509        1       0.02380096      -0.01030958      -0.00494358
Pt       1.38416391       2.42873219      24.59964995        1       0.00872011       0.00167355      -0.01141825
Pt       4.18025965       2.43431289      24.58414115        1       0.02543504      -0.00945357       0.01988184
Pt       6.98806284       2.44127751      24.61104439        1       0.00692677      -0.00087509      -0.00115752
Pt       2.78652838       4.86699753      24.59286389        1      -0.00561790       0.00985693       0.02486725
Pt       5.56244943       4.86976136      24.59104244        1       0.02065927      -0.01889094       0.00377806
Pt       8.39771549       4.87347710      24.67085746        1       0.02800583      -0.02032042       0.00977558
N        8.05806948       4.88154364      26.71794171        0       0.02497715      -0.00866219       0.00655872
H        8.95267199       4.90426636      27.21351265        0       0.00761087       0.00654066      -0.04001509
H        7.53573966       4.03247151      26.95093030        0      -0.00271678      -0.03782573      -0.00255924
H        7.49596130       5.70835989      26.93909245        0       0.00631574       0.03685412       0.00206995
