31
Lattice="8.421641763931781 0.0 0.0 4.2108208819658905 7.293355709136913 0.0 0.0 0.0 44.584161137365626" Properties=species:S:1:pos:R:3:tags:I:1:forces:R:3 energy=-172.80535888671875 free_energy=-172.80535888671875 stress="0.010314821265637875 -1.4226155808927388e-09 -4.294974598195722e-09 -1.4226155808927388e-09 0.010264900512993336 -6.443816528189927e-05 -4.294974598195722e-09 -6.443816528189927e-05 -1.5549579984508455e-05" pbc="T T T"
Pt       1.40360696       0.81037286      20.00000000        3       0.00093162       0.00201236      -0.00832987
Pt       4.21082088       0.81037286      20.00000000        3      -0.00092835       0.00201276      -0.00832909
Pt       7.01803480       0.81037286      20.00000000        3      -0.00000200       0.00254297      -0.00997022
Pt       2.80721392       3.24149143      20.00000000        3       0.00000059      -0.00056333      -0.00643253
Pt       5.61442784       3.24149143      20.00000000        3      -0.00182660       0.00281434       0.01604816
Pt       8.42164176       3.24149143      20.00000000        3       0.00182580       0.00281535       0.01604894
Pt       4.21082088       5.67261000      20.00000000        3       0.00275792      -0.00174987       0.00135675
Pt       7.01803480       5.67261000      20.00000000        3      -0.00000243      -0.00165667       0.02707827
Pt       9.82524872       5.67261000      20.00000000        3      -0.00275690      -0.00174884       0.00135708
Pt       0.00000000       1.62074571      22.29208057        2      -0.05991314       0.06153491      -0.03975191
Pt       2.80721392       1.62074571      22.29208057        2       0.00000030      -0.01343445      -0.10786071
Pt       5.61442784       1.62074571      22.29208057        2       0.05991291       0.06153476      -0.03975431
Pt       1.40360696       4.05186428      22.29208057        2      -0.15451995       0.06490352       0.03627862
Pt       4.21082088       4.05186428      22.29208057        2       0.15452087       0.06490169       0.03627394
Pt       7.01803480       4.05186428      22.29208057        2      -0.00000016       0.04678470       0.07277317
Pt       2.80721392       6.48298285      22.29208057        2      -0.00000031      -0.04095028      -0.07370942
Pt       5.61442784       6.48298285      22.29208057        2       0.02178118      -0.17521921       0.02284620
Pt       8.42164176       6.48298285      22.29208057        2      -0.02178043      -0.17522022       0.02284941
Pt      -0.01123129      -0.01385147      24.56335313        1       0.04619960       0.00736965       0.00770125
Pt       2.80721398       0.00059004      24.56808271        1       0.00000259       0.01147953      -0.00642979
Pt       5.62565966      -0.01385181      24.56335348        1      -0.04620130       0.00736710       0.00770140
Pt       1.40770168       2.40721555      24.57009020        1       0.01530103       0.01631407      -0.00071457
Pt       4.20672691       2.40721581      24.57008949        1      -0.01530398       0.01631110      -0.00071502
Pt       7.01803441       2.40304563      24.59457068        1       0.00000214      -0.01718479       0.04192048
Pt       2.80721445       4.83911401      24.56370870        1      -0.00000535       0.02286112      -0.00901161
Pt       5.58907351       4.85269462      24.62682618        1       0.01529682       0.02645797      -0.00760991
Pt       8.44699577       4.85269384      24.62682702        1      -0.01528974       0.02646022      -0.00762657
N        7.01803490       4.35581104      26.93230245        0       0.00003806      -0.00950339      -0.03413177
H        6.19848122       4.87255717      26.55474952        0       0.01872458       0.01047473       0.01213128
H        7.83759045       4.87255530      26.55474933        0      -0.01874831       0.01047885       0.01216010
H        7.01803623       3.46739633      26.38941535        0      -0.00001691      -0.03020065       0.02585202
