31
Lattice="8.421641763931781 0.0 0.0 4.2108208819658905 7.293355709136913 0.0 0.0 0.0 44.584161137365626" Properties=species:S:1:pos:R:3:tags:I:1:forces:R:3 energy=-173.71630859375 free_energy=-173.71630859375 stress="0.010681790299713612 8.887263369672382e-09 8.305026888422162e-09 8.887263369672382e-09 0.010681793093681335 1.258745552235041e-08 8.305026888422162e-09 1.258745552235041e-08 -9.13045005290769e-06" pbc="T T T"
Pt       1.40360696       0.81037286      20.00000000        3       0.00577882       0.00242980      -0.00921327
Pt       4.21082088       0.81037286      20.00000000        3      -0.00072417       0.00293280      -0.00620496
Pt       7.01803480       0.81037286      20.00000000        3      -0.00499823       0.00378597      -0.00921392
Pt       2.80721392       3.24149143      20.00000000        3       0.00290609      -0.00083910      -0.00620636
Pt       5.61442784       3.24149143      20.00000000        3      -0.00218102      -0.00209721      -0.00620648
Pt       8.42164176       3.24149143      20.00000000        3      -0.00056691       0.00471550       0.01214984
Pt       4.21082088       5.67261000      20.00000000        3      -0.00078009      -0.00621868      -0.00921264
Pt       7.01803480       5.67261000      20.00000000        3       0.00436385      -0.00186308       0.01214945
Pt       9.82524872       5.67261000      20.00000000        3      -0.00380011      -0.00284611       0.01214975
Pt       0.00000000       1.62074571      22.29208057        2      -0.00683503       0.06181676       0.03175567
Pt       2.80721392       1.62074571      22.29208057        2      -0.00188715      -0.01192129      -0.00064181
Pt       5.61442784       1.62074571      22.29208057        2       0.01126633       0.00432535      -0.00063989
Pt       1.40360696       4.05186428      22.29208057        2      -0.06377102       0.04237038      -0.03006610
Pt       4.21082088       4.05186428      22.29208057        2      -0.00937665       0.00759480      -0.00064056
Pt       7.01803480       4.05186428      22.29208057        2       0.06857885       0.03404267      -0.03006465
Pt       2.80721392       6.48298285      22.29208057        2      -0.05011538      -0.03682783       0.03175399
Pt       5.61442784       6.48298285      22.29208057        2       0.05695242      -0.02498722       0.03175424
Pt       8.42164176       6.48298285      22.29208057        2      -0.00480744      -0.07641014      -0.03007201
Pt       0.00000054       0.00000042      24.58907069        1       0.00000142      -0.00000549      -0.00157753
Pt       2.80602080       0.00563268      24.60735866        1      -0.00186379      -0.00922483      -0.00838186
Pt       5.61924811       0.01080665      24.59508749        1       0.01014357       0.00612606       0.01003356
Pt       1.41055623       2.42154081      24.59508676        1       0.00022683      -0.01182617       0.01003312
Pt       4.21082120       2.43111874      24.58876312        1       0.00000407      -0.00000010       0.00031373
Pt       7.01375524       2.42726958      24.60735963        1       0.00891785       0.00300801      -0.00838137
Pt       2.81268979       4.86045459      24.60735976        1      -0.00705792       0.00622260      -0.00838163
Pt       5.60266087       4.86100792      24.59508647        1      -0.01036308       0.00572351       0.01003183
Pt       8.42164522       4.86224269      24.65981809        1      -0.00000199      -0.00000868       0.00925520
N        8.42164122       4.86223988      26.72696988        0      -0.00001511      -0.00005901      -0.00701404
H        7.93317812       5.70312502      27.04606734        0       0.00186414      -0.00557970       0.00023950
H        9.39410133       4.86480568      27.04607015        0      -0.00579455       0.00118522       0.00023374
H        7.93763300       4.01877207      27.04604297        0       0.00393546       0.00443517       0.00026566
