31
Lattice="8.421641763931781 0.0 0.0 4.2108208819658905 7.293355709136913 0.0 0.0 0.0 44.584161137365626" Properties=species:S:1:pos:R:3:tags:I:1:forces:R:3 energy=-172.76148986816406 free_energy=-172.76148986816406 stress="0.010289736092090607 -1.7949943867279217e-05 -0.0001431812415830791 -1.7949943867279217e-05 0.01045588031411171 2.1034179553680588e-06 -0.0001431812415830791 2.1034179553680588e-06 3.074949199799448e-05" pbc="T T T"
Pt       1.40360696       0.81037286      20.00000000        3       0.00350898       0.00066576       0.00237894
Pt       4.21082088       0.81037286      20.00000000        3      -0.00218604       0.00061585       0.00321895
Pt       7.01803480       0.81037286      20.00000000        3       0.00083602       0.00284046      -0.00485641
Pt       2.80721392       3.24149143      20.00000000        3       0.00090347      -0.00002961      -0.00353885
Pt       5.61442784       3.24149143      20.00000000        3      -0.00146598       0.00183435       0.01590353
Pt       8.42164176       3.24149143      20.00000000        3       0.00228637       0.00241180       0.01940781
Pt       4.21082088       5.67261000      20.00000000        3       0.00348737      -0.00157636       0.00172207
Pt       7.01803480       5.67261000      20.00000000        3       0.00195058      -0.00240385       0.03659740
Pt       9.82524872       5.67261000      20.00000000        3      -0.00199652      -0.00220060       0.00399670
Pt       0.00000000       1.62074571      22.29208057        2      -0.02897107       0.06047456      -0.03392783
Pt       2.80721392       1.62074571      22.29208057        2      -0.01690009      -0.06630196      -0.05670045
Pt       5.61442784       1.62074571      22.29208057        2      -0.00070069       0.04354865      -0.04282733
Pt       1.40360696       4.05186428      22.29208057        2      -0.18250117       0.07137591       0.06492397
Pt       4.21082088       4.05186428      22.29208057        2       0.11816750       0.05243444       0.01836026
Pt       7.01803480       4.05186428      22.29208057        2       0.02830769       0.06735814       0.02686611
Pt       2.80721392       6.48298285      22.29208057        2      -0.01797829      -0.01324935      -0.05894750
Pt       5.61442784       6.48298285      22.29208057        2       0.03652232      -0.09004738      -0.01967184
Pt       8.42164176       6.48298285      22.29208057        2      -0.05331831      -0.12697375       0.02739085
Pt      -0.02980878       0.00975731      24.57063935        1      -0.00259911       0.00682482      -0.00686052
Pt       2.77876461      -0.01586908      24.60179827        1       0.01504544       0.03898385       0.00962463
Pt       5.60391411       0.00627067      24.57091199        1      -0.00372821      -0.00179124      -0.01211894
Pt       1.39503555       2.41224975      24.57390673        1       0.00815419       0.01363368      -0.02147529
Pt       4.18120187       2.41098373      24.57289366        1      -0.02226498      -0.00303431      -0.01404622
Pt       6.98930475       2.43565378      24.60072211        1       0.01824465      -0.01234299       0.01103218
Pt       2.79800583       4.85843522      24.55895308        1      -0.00364735      -0.01374460       0.00541633
Pt       5.56165038       4.85389444      24.61622903        1       0.00414315      -0.01563899       0.00467430
Pt       8.45328409       4.85352795      24.62803466        1       0.01854107      -0.01474477      -0.01593567
N        7.00396433       4.87508640      26.87165583        0       0.03196507       0.00025944       0.02693912
H        6.64501150       5.69696683      26.32759699        0       0.02060428      -0.01515561       0.00022888
H        8.00072895       4.87025152      26.56867060        0       0.00440066      -0.00256673       0.01815235
H        6.63752145       4.05406652      26.33079226        0       0.02118909       0.01854037      -0.00592756
