31
Lattice="8.421641763931781 0.0 0.0 4.2108208819658905 7.293355709136913 0.0 0.0 0.0 44.584161137365626" Properties=species:S:1:pos:R:3:tags:I:1:forces:R:3 energy=-173.71585083007812 free_energy=-173.71585083007812 stress="0.01069540623575449 -2.018645339774139e-08 -2.318061742556665e-09 -2.018645339774139e-08 0.01069539412856102 -1.0768648195380592e-08 -2.318061742556665e-09 -1.0768648195380592e-08 5.400228110374883e-05" pbc="T T T"
Pt       1.40360696       0.81037286      20.00000000        3       0.00521449       0.00366317      -0.00904927
Pt       4.21082088       0.81037286      20.00000000        3       0.00041375       0.00292621      -0.00573355
Pt       7.01803480       0.81037286      20.00000000        3      -0.00578345       0.00267982      -0.00904968
Pt       2.80721392       3.24149143      20.00000000        3       0.00233104      -0.00182084      -0.00573546
Pt       5.61442784       3.24149143      20.00000000        3      -0.00274359      -0.00110711      -0.00573492
Pt       8.42164176       3.24149143      20.00000000        3      -0.00044676       0.00437472       0.01246771
Pt       4.21082088       5.67261000      20.00000000        3       0.00057015      -0.00634656      -0.00904921
Pt       7.01803480       5.67261000      20.00000000        3       0.00400989      -0.00179648       0.01246944
Pt       9.82524872       5.67261000      20.00000000        3      -0.00356519      -0.00257260       0.01246959
Pt       0.00000000       1.62074571      22.29208057        2       0.00117011       0.06463918       0.03390488
Pt       2.80721392       1.62074571      22.29208057        2      -0.01137147       0.00413744       0.00323771
Pt       5.61442784       1.62074571      22.29208057        2       0.00209930      -0.01192035       0.00323812
Pt       1.40360696       4.05186428      22.29208057        2      -0.06389585       0.03977299      -0.02262679
Pt       4.21082088       4.05186428      22.29208057        2       0.00927252       0.00777854       0.00323790
Pt       7.01803480       4.05186428      22.29208057        2       0.06638999       0.03545103      -0.02262695
Pt       2.80721392       6.48298285      22.29208057        2      -0.05656555      -0.03130762       0.03390392
Pt       5.61442784       6.48298285      22.29208057        2       0.05539553      -0.03333155       0.03390300
Pt       8.42164176       6.48298285      22.29208057        2      -0.00249470      -0.07521968      -0.02262867
Pt       0.00000037      -0.00000035      24.58918256        1      -0.00000093      -0.00000017      -0.00003052
Pt       2.79607710       0.01953138      24.60028286        1       0.01657395      -0.02172001      -0.01355350
Pt       5.61231273      -0.00204286      24.60570053        1      -0.00001321       0.00689927       0.00131968
Pt       1.40289566       2.43397097      24.60570053        1       0.00598135      -0.00343465       0.00132151
Pt       4.21082076       2.43111829      24.58864069        1       0.00000180       0.00000160       0.00205198
Pt       7.00668843       2.41170775      24.60028317        1       0.01051953       0.02521390      -0.01355208
Pt       2.82969732       4.86211619      24.60028282        1      -0.02709730      -0.00349573      -0.01355271
Pt       5.61725392       4.86142695      24.60570083        1      -0.00596626      -0.00346367       0.00132008
Pt       8.42164159       4.86223686      24.65962070        1       0.00000209       0.00000127       0.02954081
N        8.42164225       4.86223819      26.72769365        0      -0.00003362      -0.00010741       0.01214302
H        8.90579179       4.02124257      27.05203700        0       0.00963618      -0.01913770      -0.01455081
H        7.45124435       4.86344856      27.05203675        0      -0.02141733       0.00122664      -0.01454105
H        8.90788936       5.70201955      27.05203630        0       0.01181346       0.01801637      -0.01451414
