31
Lattice="8.421641763931781 0.0 0.0 4.2108208819658905 7.293355709136913 0.0 0.0 0.0 44.584161137365626" Properties=species:S:1:pos:R:3:tags:I:1:forces:R:3 energy=-172.5792236328125 free_energy=-172.5792236328125 stress="0.010448805056512356 -5.199943253764161e-10 -1.8691412861926437e-09 -5.199943253764161e-10 0.010548647493124008 6.267352728173137e-05 -1.8691412861926437e-09 6.267352728173137e-05 -0.0001397351734340191" pbc="T T T"
Pt       1.40360696       0.81037286      20.00000000        3       0.00087961      -0.00016973      -0.00785068
Pt       4.21082088       0.81037286      20.00000000        3      -0.00087643      -0.00016821      -0.00785008
Pt       7.01803480       0.81037286      20.00000000        3      -0.00000219       0.00113359      -0.00677171
Pt       2.80721392       3.24149143      20.00000000        3       0.00000061      -0.00101623      -0.00977787
Pt       5.61442784       3.24149143      20.00000000        3       0.00030724       0.00149360       0.00436297
Pt       8.42164176       3.24149143      20.00000000        3      -0.00030748       0.00149434       0.00436208
Pt       4.21082088       5.67261000      20.00000000        3       0.00175619      -0.00096268      -0.00325793
Pt       7.01803480       5.67261000      20.00000000        3      -0.00000199      -0.00278907       0.01129678
Pt       9.82524872       5.67261000      20.00000000        3      -0.00175552      -0.00096178      -0.00325751
Pt       0.00000000       1.62074571      22.29208057        2      -0.02080075       0.03952514      -0.02779070
Pt       2.80721392       1.62074571      22.29208057        2       0.00000192      -0.01375328      -0.04704478
Pt       5.61442784       1.62074571      22.29208057        2       0.02079828       0.03952666      -0.02778763
Pt       1.40360696       4.05186428      22.29208057        2      -0.07028501       0.02672301      -0.00506669
Pt       4.21082088       4.05186428      22.29208057        2       0.07028712       0.02671855      -0.00506755
Pt       7.01803480       4.05186428      22.29208057        2      -0.00000164       0.04517188       0.05191388
Pt       2.80721392       6.48298285      22.29208057        2      -0.00000071      -0.00527731      -0.04578943
Pt       5.61442784       6.48298285      22.29208057        2       0.02188312      -0.06464221       0.01217326
Pt       8.42164176       6.48298285      22.29208057        2      -0.02188288      -0.06464259       0.01217462
Pt      -0.00531967       0.01005771      24.57148183        1      -0.01083326       0.00406246       0.02710655
Pt       2.80721437       0.00070662      24.57805102        1      -0.00000145       0.04293256       0.01029895
Pt       5.61974786       0.01005746      24.57148188        1       0.01083409       0.00406555       0.02710730
Pt       1.40531612       2.42820523      24.57342178        1       0.02012286      -0.00095335       0.01956061
Pt       4.20911138       2.42820497      24.57342381        1      -0.02011551      -0.00095251       0.01954949
Pt       7.01803518       2.44506293      24.58929064        1      -0.00000792      -0.04041131      -0.01082407
Pt       2.80721426       4.86172019      24.56720457        1      -0.00000308       0.00767737       0.03754148
Pt       5.59795983       4.86991866      24.60530459        1      -0.00143676      -0.00019105      -0.03416383
Pt       8.43810880       4.86991858      24.60530571        1       0.00144156      -0.00018715      -0.03417204
N        7.01803427       4.86235551      27.60063854        0       0.00001132       0.00176993       0.01746675
H        7.83848354       5.31827134      27.19143398        0      -0.00657181      -0.02232035      -0.00896006
H        7.01803523       3.89905080      27.25580614        0      -0.00000723      -0.00056987       0.03948175
H        6.19758628       5.31827173      27.19143403        0       0.00656769      -0.02232593      -0.00896393
