31
Lattice="8.421641763931781 0.0 0.0 4.2108208819658905 7.293355709136913 0.0 0.0 0.0 44.584161137365626" Properties=species:S:1:pos:R:3:tags:I:1:forces:R:3 energy=-173.71566772460938 free_energy=-173.71566772460938 stress="0.010731198824942112 1.2648672331749822e-08 -1.557481610348077e-08 1.2648672331749822e-08 0.010731165297329426 1.0738720135350377e-08 -1.557481610348077e-08 1.0738720135350377e-08 2.107413820340298e-05" pbc="T T T"
Pt       1.40360696       0.81037286      20.00000000        3       0.00481547       0.00361725      -0.00801727
Pt       4.21082088       0.81037286      20.00000000        3       0.00056948       0.00240737      -0.00491881
Pt       7.01803480       0.81037286      20.00000000        3      -0.00554350       0.00235930      -0.00801772
Pt       2.80721392       3.24149143      20.00000000        3       0.00180314      -0.00169652      -0.00492057
Pt       5.61442784       3.24149143      20.00000000        3      -0.00237191      -0.00071311      -0.00492007
Pt       8.42164176       3.24149143      20.00000000        3      -0.00012669       0.00453745       0.01194948
Pt       4.21082088       5.67261000      20.00000000        3       0.00072861      -0.00597864      -0.00801796
Pt       7.01803480       5.67261000      20.00000000        3       0.00399083      -0.00215538       0.01194951
Pt       9.82524872       5.67261000      20.00000000        3      -0.00386588      -0.00237658       0.01195025
Pt       0.00000000       1.62074571      22.29208057        2       0.00345796       0.05798777       0.04052379
Pt       2.80721392       1.62074571      22.29208057        2      -0.01074731       0.00534036       0.01779583
Pt       5.61442784       1.62074571      22.29208057        2       0.00074554      -0.01198026       0.01779420
Pt       1.40360696       4.05186428      22.29208057        2      -0.05763688       0.03345826      -0.03198780
Pt       4.21082088       4.05186428      22.29208057        2       0.01000200       0.00663704       0.01779531
Pt       7.01803480       4.05186428      22.29208057        2       0.05779227       0.03318694      -0.03198788
Pt       2.80721392       6.48298285      22.29208057        2      -0.05194885      -0.02600153       0.04052342
Pt       5.61442784       6.48298285      22.29208057        2       0.04849133      -0.03198678       0.04052231
Pt       8.42164176       6.48298285      22.29208057        2      -0.00015581      -0.06664256      -0.03198865
Pt       0.00000018      -0.00000013      24.59135470        1       0.00000034      -0.00000172      -0.01072595
Pt       2.79901330       0.01404791      24.60009035        1      -0.00886548       0.02333657      -0.01379925
Pt       5.61088608      -0.00383822      24.60838642        1       0.02137688       0.04126771      -0.01027960
Pt       1.40205382       2.43610478      24.60838648        1       0.02505269      -0.03914811      -0.01027878
Pt       4.21082126       2.43111857      24.59176340        1      -0.00000284      -0.00000072      -0.01548862
Pt       7.00996881       2.41699224      24.60009050        1      -0.01577228      -0.01934375      -0.01379849
Pt       2.82348026       4.86231473      24.60009036        1       0.02464108      -0.00398754      -0.01379874
Pt       5.61952248       4.86108882      24.60838615        1      -0.04643102      -0.00212124      -0.01027820
Pt       8.42164095       4.86223762      24.65832708        1       0.00000210       0.00000035      -0.02940407
N        8.42164321       4.86223669      26.72027206        0      -0.00013691       0.00006603       0.04298377
H        8.90743755       5.70332441      27.04136569        0       0.00976436       0.01450571       0.00294618
H        8.90714741       4.02098225      27.04136340        0       0.00772654      -0.01576992       0.00297689
H        7.45034036       4.86240353      27.04136625        0      -0.01735523       0.00119628       0.00291748
