31
Lattice="8.421641763931781 0.0 0.0 4.2108208819658905 7.293355709136913 0.0 0.0 0.0 44.584161137365626" Properties=species:S:1:pos:R:3:tags:I:1:forces:R:3 energy=-173.7161865234375 free_energy=-173.7161865234375 stress="0.010666698217391968 -2.5180353357967533e-09 -5.044232587181341e-09 -2.5180353357967533e-09 0.010666713118553162 1.6508027167461137e-09 -5.044232587181341e-09 1.6508027167461137e-09 -1.8180581946580787e-06" pbc="T T T"
Pt       1.40360696       0.81037286      20.00000000        3       0.00569441       0.00250868      -0.00957477
Pt       4.21082088       0.81037286      20.00000000        3      -0.00066603       0.00312295      -0.00628415
Pt       7.01803480       0.81037286      20.00000000        3      -0.00502432       0.00367424      -0.00957474
Pt       2.80721392       3.24149143      20.00000000        3       0.00304104      -0.00098381      -0.00628629
Pt       5.61442784       3.24149143      20.00000000        3      -0.00237299      -0.00214137      -0.00628501
Pt       8.42164176       3.24149143      20.00000000        3      -0.00053852       0.00469353       0.01201963
Pt       4.21082088       5.67261000      20.00000000        3      -0.00066929      -0.00618557      -0.00957486
Pt       7.01803480       5.67261000      20.00000000        3       0.00433113      -0.00187699       0.01202005
Pt       9.82524872       5.67261000      20.00000000        3      -0.00379607      -0.00281091       0.01201952
Pt       0.00000000       1.62074571      22.29208057        2      -0.00611813       0.06274505       0.02847129
Pt       2.80721392       1.62074571      22.29208057        2      -0.00095397      -0.01032424      -0.00398524
Pt       5.61442784       1.62074571      22.29208057        2       0.00941741       0.00433359      -0.00398108
Pt       1.40360696       4.05186428      22.29208057        2      -0.06540547       0.04311270      -0.02902905
Pt       4.21082088       4.05186428      22.29208057        2      -0.00845905       0.00598824      -0.00398349
Pt       7.01803480       4.05186428      22.29208057        2       0.07003513       0.03508575      -0.02902783
Pt       2.80721392       6.48298285      22.29208057        2      -0.05128089      -0.03666982       0.02846966
Pt       5.61442784       6.48298285      22.29208057        2       0.05739845      -0.02607439       0.02846863
Pt       8.42164176       6.48298285      22.29208057        2      -0.00463179      -0.07819690      -0.02902904
Pt       0.00000112      -0.00000011      24.58874944        1      -0.00000306      -0.00000106      -0.00018737
Pt       2.80454360       0.00668716      24.60592494        1       0.00698338      -0.01684943      -0.00246620
Pt       5.61907496       0.01090732      24.59462515        1       0.00539499       0.00065986       0.01185407
Pt       1.41073132       2.42164009      24.59462540        1      -0.00213237      -0.00500160       0.01185523
Pt       4.21082081       2.43111833      24.58900221        1       0.00000702       0.00000112      -0.00093925
Pt       7.01358022       2.42546127      24.60592570        1       0.01108787       0.01446721      -0.00247434
Pt       2.81434022       4.86120686      24.60592491        1      -0.01807619       0.00237420      -0.00246465
Pt       5.60265750       4.86080726      24.59462573        1      -0.00326631       0.00434138       0.01185489
Pt       8.42164010       4.86223558      24.65974738        1      -0.00000193       0.00000492       0.03699672
N        8.42163974       4.86223715      26.72996735        0       0.00000101       0.00001592      -0.04315364
H        7.93811238       4.01818191      27.04813934        0       0.00426026       0.00505717       0.00141933
H        7.93243159       5.70301427      27.04813607        0       0.00225405      -0.00623293       0.00141975
H        9.39437903       4.86551759      27.04813106        0      -0.00650972       0.00116229       0.00143250
