31
Lattice="8.421641763931781 0.0 0.0 4.2108208819658905 7.293355709136913 0.0 0.0 0.0 44.584161137365626" Properties=species:S:1:pos:R:3:tags:I:1:forces:R:3 energy=-172.76075744628906 free_energy=-172.76075744628906 stress="0.010311959311366081 1.492163664806867e-05 0.00013858184684067965 1.492163664806867e-05 0.010457453317940235 -5.752166543970816e-06 0.00013858184684067965 -5.752166543970816e-06 0.00011398098286008462" pbc="T T T"
Pt       1.40360696       0.81037286      20.00000000        3       0.00258110       0.00063526       0.00243095
Pt       4.21082088       0.81037286      20.00000000        3      -0.00359296       0.00089447       0.00178823
Pt       7.01803480       0.81037286      20.00000000        3      -0.00101948       0.00300097      -0.00506419
Pt       2.80721392       3.24149143      20.00000000        3      -0.00064261       0.00004756      -0.00557983
Pt       5.61442784       3.24149143      20.00000000        3      -0.00206085       0.00257973       0.01904371
Pt       8.42164176       3.24149143      20.00000000        3       0.00087642       0.00217735       0.01665071
Pt       4.21082088       5.67261000      20.00000000        3       0.00218126      -0.00275932       0.00365686
Pt       7.01803480       5.67261000      20.00000000        3      -0.00170895      -0.00178952       0.03803405
Pt       9.82524872       5.67261000      20.00000000        3      -0.00334051      -0.00202435       0.00241220
Pt       0.00000000       1.62074571      22.29208057        2      -0.00526864       0.04512855      -0.03811717
Pt       2.80721392       1.62074571      22.29208057        2       0.01447950      -0.06945202      -0.06476718
Pt       5.61442784       1.62074571      22.29208057        2       0.03200167       0.05640901      -0.03371475
Pt       1.40360696       4.05186428      22.29208057        2      -0.12806962       0.06054715       0.02495665
Pt       4.21082088       4.05186428      22.29208057        2       0.18542169       0.07464878       0.05175003
Pt       7.01803480       4.05186428      22.29208057        2      -0.02193193       0.06693128       0.03638171
Pt       2.80721392       6.48298285      22.29208057        2       0.01335805      -0.01757307      -0.05837052
Pt       5.61442784       6.48298285      22.29208057        2       0.06064082      -0.12906443       0.03078683
Pt       8.42164176       6.48298285      22.29208057        2      -0.04336417      -0.09789029      -0.00417589
Pt       0.00964391       0.00108432      24.56933687        1       0.00622998       0.01056006      -0.00237364
Pt       2.83148356      -0.00632458      24.60469640        1       0.00182288      -0.01912347       0.00361983
Pt       5.64025634       0.00438240      24.56952109        1      -0.00097356       0.00781121      -0.00144622
Pt       1.43085836       2.41354105      24.57077908        1       0.00543142      -0.00640770      -0.00211591
Pt       4.21829365       2.41609232      24.57114067        1       0.00143969      -0.00899918      -0.00351387
Pt       7.04191762       2.42616424      24.60377412        1       0.00149966       0.01630448       0.00149255
Pt       2.82041860       4.85514457      24.55989893        1      -0.02789602       0.00337984       0.00331745
Pt       5.58774950       4.85079214      24.62962502        1       0.00405571       0.00177882       0.02443517
Pt       8.46978168       4.85108941      24.62028327        1      -0.01315971      -0.00010129       0.01262873
N        7.03902314       4.86818788      26.89483386        0      -0.02614019       0.00143331      -0.01392779
H        7.40274228       4.04999093      26.35085575        0      -0.00260312      -0.03215781      -0.01681834
H        6.04513665       4.86823745      26.58755633        0      -0.04637648      -0.00020188      -0.00395369
H        7.40273751       5.68662550      26.35178469        0      -0.00387102       0.03327660      -0.01944640
