31
Lattice="8.421641763931781 0.0 0.0 4.2108208819658905 7.293355709136913 0.0 0.0 0.0 44.584161137365626" Properties=species:S:1:pos:R:3:tags:I:1:forces:R:3 energy=-172.80630493164062 free_energy=-172.80630493164062 stress="0.010269240476191044 1.7069207158826316e-10 -3.126118253149457e-09 1.7069207158826316e-10 0.010269228368997574 9.582409532526981e-09 -3.126118253149457e-09 9.582409532526981e-09 9.020758625410963e-06" pbc="T T T"
Pt       1.40360696       0.81037286      20.00000000        3       0.00000070      -0.00000259      -0.00881010
Pt       4.21082088       0.81037286      20.00000000        3      -0.00214119       0.00264048       0.00079542
Pt       7.01803480       0.81037286      20.00000000        3       0.00214125       0.00264025       0.00079465
Pt       2.80721392       3.24149143      20.00000000        3       0.00121739      -0.00317730       0.00079447
Pt       5.61442784       3.24149143      20.00000000        3      -0.00000172       0.00000052       0.03264225
Pt       8.42164176       3.24149143      20.00000000        3      -0.00121549      -0.00317665       0.00079364
Pt       4.21082088       5.67261000      20.00000000        3       0.00336253       0.00053610       0.00079459
Pt       7.01803480       5.67261000      20.00000000        3      -0.00336255       0.00053727       0.00079378
Pt       9.82524872       5.67261000      20.00000000        3      -0.00000156       0.00000194      -0.01720384
Pt       0.00000000       1.62074571      22.29208057        2      -0.13941176       0.08048721       0.02965562
Pt       2.80721392       1.62074571      22.29208057        2       0.13941167       0.08048823       0.02965271
Pt       5.61442784       1.62074571      22.29208057        2      -0.00000029       0.12738751       0.04131859
Pt       1.40360696       4.05186428      22.29208057        2       0.00000069      -0.04157441      -0.08074285
Pt       4.21082088       4.05186428      22.29208057        2       0.11032378      -0.06369481       0.04131585
Pt       7.01803480       4.05186428      22.29208057        2      -0.11032428      -0.06369613       0.04131779
Pt       2.80721392       6.48298285      22.29208057        2       0.03600389       0.02078935      -0.08074336
Pt       5.61442784       6.48298285      22.29208057        2      -0.00000144      -0.16097598       0.02965133
Pt       8.42164176       6.48298285      22.29208057        2      -0.03600257       0.02078961      -0.08074287
Pt       0.00154682       0.00089261      24.56436875        1       0.00933352       0.00539161      -0.00226438
Pt       2.80566741       0.00089272      24.56436885        1      -0.00933403       0.00539067      -0.00226447
Pt       5.61442768      -0.01019378      24.56513664        1       0.00000067       0.01071818       0.01351330
Pt       1.40360681       2.42933271      24.56436853        1       0.00000104      -0.01078072      -0.00226429
Pt       4.18729699       2.41753707      24.61312553        1       0.00276498       0.00159453      -0.00094054
Pt       7.04155861       2.41753707      24.61312687        1      -0.00276409       0.00159339      -0.00095021
Pt       2.79838639       4.86733377      24.56513588        1       0.00928141      -0.00535817       0.01351532
Pt       5.61442782       4.88940034      24.61312509        1      -0.00000126      -0.00319345      -0.00094090
Pt       8.43046932       4.86733351      24.56513551        1      -0.00928098      -0.00535662       0.01351559
N        5.61442737       3.24149175      26.94056729        0       0.00001670      -0.00004457      -0.03254658
H        4.79429380       2.76798648      26.51488992        0      -0.02599761      -0.01500645       0.00651709
H        5.61442817       4.18850015      26.51489029        0      -0.00000353       0.03005332       0.00650368
H        6.43456231       2.76798671      26.51489007        0       0.02598402      -0.01500271       0.00652881
