31
Lattice="8.421641763931781 0.0 0.0 4.2108208819658905 7.293355709136913 0.0 0.0 0.0 44.584161137365626" Properties=species:S:1:pos:R:3:tags:I:1:forces:R:3 energy=-172.8036651611328 free_energy=-172.8036651611328 stress="0.010319440625607967 -9.07626329649247e-09 -8.771632309390043e-09 -9.07626329649247e-09 0.010218441486358643 7.038625335553661e-05 -8.771632309390043e-09 7.038625335553661e-05 -1.0951492185995448e-05" pbc="T T T"
Pt       1.40360696       0.81037286      20.00000000        3       0.00222268       0.00139312      -0.00127193
Pt       4.21082088       0.81037286      20.00000000        3      -0.00221925       0.00139398      -0.00127131
Pt       7.01803480       0.81037286      20.00000000        3      -0.00000240      -0.00074032      -0.01569110
Pt       2.80721392       3.24149143      20.00000000        3       0.00000062      -0.00096611      -0.00621238
Pt       5.61442784       3.24149143      20.00000000        3      -0.00289043       0.00222470       0.00617602
Pt       8.42164176       3.24149143      20.00000000        3       0.00288970       0.00222479       0.00617400
Pt       4.21082088       5.67261000      20.00000000        3       0.00240619      -0.00366176       0.00331062
Pt       7.01803480       5.67261000      20.00000000        3      -0.00000204      -0.00306941       0.03510463
Pt       9.82524872       5.67261000      20.00000000        3      -0.00240501      -0.00366052       0.00331008
Pt       0.00000000       1.62074571      22.29208057        2       0.03447453       0.04056251      -0.08589330
Pt       2.80721392       1.62074571      22.29208057        2       0.00000220      -0.08159005      -0.03735577
Pt       5.61442784       1.62074571      22.29208057        2      -0.03447817       0.04056453      -0.08589628
Pt       1.40360696       4.05186428      22.29208057        2      -0.15671736       0.10425770       0.05839286
Pt       4.21082088       4.05186428      22.29208057        2       0.15672049       0.10425501       0.05839343
Pt       7.01803480       4.05186428      22.29208057        2      -0.00000311       0.13903069       0.04898167
Pt       2.80721392       6.48298285      22.29208057        2       0.00000064      -0.02629814      -0.07215697
Pt       5.61442784       6.48298285      22.29208057        2       0.07579065      -0.09864311       0.03033590
Pt       8.42164176       6.48298285      22.29208057        2      -0.07579117      -0.09864096       0.03033714
Pt      -0.00304488       0.02275552      24.56862772        1      -0.00133879      -0.04929217       0.00071712
Pt       2.80721368       0.03047090      24.59719241        1       0.00000160       0.00795113       0.01625571
Pt       5.61747356       0.02275653      24.56862845        1       0.00133507      -0.04930051       0.00071859
Pt       1.41147464       2.44079711      24.56839021        1       0.01230375       0.00010722      -0.01237568
Pt       4.20295396       2.44079675      24.56839124        1      -0.01230788       0.00010933      -0.01238480
Pt       7.01803385       2.42387036      24.56439379        1       0.00000629       0.01125389       0.01068673
Pt       2.80721414       4.88438456      24.56182888        1      -0.00000013      -0.04882053       0.00093386
Pt       5.58385871       4.85962991      24.62284166        1       0.01314674      -0.01176026      -0.00582641
Pt       8.45221082       4.85963007      24.62284082        1      -0.01314608      -0.01176060      -0.00582265
N        7.01803452       5.33335326      26.90726069        0       0.00006156      -0.00691930      -0.04218742
H        6.19869452       4.80787925      26.53905059        0       0.02419929       0.03294408       0.01652867
H        7.01803532       6.22020135      26.35831452        0      -0.00000427      -0.02612507       0.04143520
H        7.83737659       4.80787908      26.53905114        0      -0.02425601       0.03297620       0.01655337
