31
Lattice="8.421641763931781 0.0 0.0 4.2108208819658905 7.293355709136913 0.0 0.0 0.0 44.584161137365626" Properties=species:S:1:pos:R:3:tags:I:1:forces:R:3 energy=-173.70989990234375 free_energy=-173.70989990234375 stress="0.010813928209245205 -4.2446968162579424e-10 -1.7266430507589803e-09 -4.2446968162579424e-10 0.010813934728503227 7.57893248160002e-10 -1.7266430507589803e-09 7.57893248160002e-10 0.00012009299825876951" pbc="T T T"
Pt       1.40360696       0.81037286      20.00000000        3       0.00496287       0.00286262      -0.00772384
Pt       4.21082088       0.81037286      20.00000000        3       0.00000232       0.00341852      -0.00427079
Pt       7.01803480       0.81037286      20.00000000        3      -0.00496432       0.00286247      -0.00772405
Pt       2.80721392       3.24149143      20.00000000        3       0.00296331      -0.00171063      -0.00427225
Pt       5.61442784       3.24149143      20.00000000        3      -0.00296424      -0.00171030      -0.00427216
Pt       8.42164176       3.24149143      20.00000000        3       0.00000111       0.00448138       0.01262641
Pt       4.21082088       5.67261000      20.00000000        3       0.00000209      -0.00572826      -0.00772405
Pt       7.01803480       5.67261000      20.00000000        3       0.00387880      -0.00223838       0.01262784
Pt       9.82524872       5.67261000      20.00000000        3      -0.00388200      -0.00223786       0.01262802
Pt       0.00000000       1.62074571      22.29208057        2       0.00000170       0.05747490       0.04723159
Pt       2.80721392       1.62074571      22.29208057        2      -0.00186839      -0.00108015       0.02037438
Pt       5.61442784       1.62074571      22.29208057        2       0.00186654      -0.00108057       0.02037296
Pt       1.40360696       4.05186428      22.29208057        2      -0.06377971       0.03682410      -0.01406236
Pt       4.21082088       4.05186428      22.29208057        2       0.00000229       0.00215690       0.02037387
Pt       7.01803480       4.05186428      22.29208057        2       0.06377762       0.03682431      -0.01406339
Pt       2.80721392       6.48298285      22.29208057        2      -0.04977681      -0.02873765       0.04723078
Pt       5.61442784       6.48298285      22.29208057        2       0.04977535      -0.02873743       0.04723040
Pt       8.42164176       6.48298285      22.29208057        2       0.00000126      -0.07364485      -0.01406455
Pt       0.00000023      -0.00000030      24.59664131        1       0.00000074      -0.00000007      -0.03495595
Pt       2.80263423       0.00774849      24.60512651        1       0.00224494       0.00079909      -0.01533301
Pt       5.61900765       0.00774815      24.60512748        1      -0.00224692       0.00079980      -0.01533271
Pt       1.40802762       2.42327795      24.60512678        1       0.00181552       0.00154692      -0.01533261
Pt       4.21082098       2.43111823      24.59749916        1      -0.00000152       0.00000092      -0.03700307
Pt       7.01361421       2.42327795      24.60512710        1      -0.00181557       0.00154472      -0.01533149
Pt       2.81621433       4.86232896      24.60512705        1      -0.00043240      -0.00234574      -0.01533186
Pt       5.60542745       4.86232908      24.60512680        1       0.00042886      -0.00234383      -0.01533283
Pt       8.42164083       4.86223764      24.66416362        1       0.00000367      -0.00000035      -0.02246860
N        8.42164153       4.86223739      26.72911492        0       0.00000495      -0.00000408       0.01967376
H        7.58068518       4.37670991      27.05108600        0       0.00081708       0.00047373       0.00140822
H        8.42164206       5.83329046      27.05108621        0      -0.00000006      -0.00094517       0.00140830
H        9.26259922       4.37671009      27.05108228        0      -0.00081921       0.00047460       0.00141320
