31
Lattice="8.421641763931781 0.0 0.0 4.2108208819658905 7.293355709136913 0.0 0.0 0.0 44.584161137365626" Properties=species:S:1:pos:R:3:tags:I:1:forces:R:3 energy=-172.8042755126953 free_energy=-172.8042755126953 stress="0.010287926532328129 -1.8446546512507211e-09 -3.6974716621784864e-09 -1.8446546512507211e-09 0.010287938639521599 1.9602857115330607e-09 -3.6974716621784864e-09 1.9602857115330607e-09 2.577174200268928e-05" pbc="T T T"
Pt       1.40360696       0.81037286      20.00000000        3       0.00000092      -0.00000166      -0.01219046
Pt       4.21082088       0.81037286      20.00000000        3      -0.00218437       0.00302559       0.00097641
Pt       7.01803480       0.81037286      20.00000000        3       0.00197795       0.00239071       0.00095266
Pt       2.80721392       3.24149143      20.00000000        3       0.00108205      -0.00291200       0.00095290
Pt       5.61442784       3.24149143      20.00000000        3      -0.00000203      -0.00000032       0.03240669
Pt       8.42164176       3.24149143      20.00000000        3      -0.00152660      -0.00340675       0.00097477
Pt       4.21082088       5.67261000      20.00000000        3       0.00371755       0.00038127       0.00097451
Pt       7.01803480       5.67261000      20.00000000        3      -0.00306460       0.00052128       0.00095108
Pt       9.82524872       5.67261000      20.00000000        3      -0.00000143       0.00000256      -0.01433074
Pt       0.00000000       1.62074571      22.29208057        2      -0.14878571       0.08583778       0.01206170
Pt       2.80721392       1.62074571      22.29208057        2       0.14872907       0.08593524       0.01206182
Pt       5.61442784       1.62074571      22.29208057        2      -0.00261302       0.12159258       0.04922115
Pt       1.40360696       4.05186428      22.29208057        2       0.00523762      -0.02982686      -0.07348675
Pt       4.21082088       4.05186428      22.29208057        2       0.10661300      -0.05853764       0.04921828
Pt       7.01803480       4.05186428      22.29208057        2      -0.10400026      -0.06306205       0.04922016
Pt       2.80721392       6.48298285      22.29208057        2       0.02320595       0.01944895      -0.07348716
Pt       5.61442784       6.48298285      22.29208057        2       0.00005792      -0.17177081       0.01205549
Pt       8.42164176       6.48298285      22.29208057        2      -0.02844211       0.01038118      -0.07348575
Pt       0.00377017       0.00392294      24.56071258        1      -0.01565494      -0.02143704       0.02083988
Pt       2.80193140       0.00130242      24.56071379        1       0.02639566      -0.00283586       0.02083051
Pt       5.60582019      -0.01200343      24.56953855        1       0.02005042       0.02606207      -0.00907268
Pt       1.40511964       2.42589138      24.56071702        1      -0.01073799       0.02427695       0.02081905
Pt       4.18209321       2.42267627      24.61256669        1       0.02812961       0.00079299       0.01037972
Pt       7.03970960       2.41046081      24.61256750        1      -0.01475095       0.02396401       0.01037251
Pt       2.80112220       4.87569401      24.56953653        1       0.01254866      -0.03039987      -0.00906023
Pt       5.62148110       4.89133621      24.61256650        1      -0.01337928      -0.02475833       0.01038036
Pt       8.43634181       4.86078419      24.56953614        1      -0.03260330       0.00433589      -0.00905800
N        5.61442740       3.24149184      26.94051030        0       0.00002978      -0.00002078      -0.04886210
H        5.70218211       4.18769723      26.52021735        0      -0.01306759      -0.02010612       0.00245557
H        6.38998927       2.69239080      26.52021869        0      -0.01089820       0.02138342       0.00247303
H        4.75111292       2.84438506      26.52021727        0       0.02393621      -0.00125623       0.00245551
