31
Lattice="8.421641763931781 0.0 0.0 4.2108208819658905 7.293355709136913 0.0 0.0 0.0 44.584161137365626" Properties=species:S:1:pos:R:3:tags:I:1:forces:R:3 energy=-172.80076599121094 free_energy=-172.80076599121094 stress="0.010380477644503117 2.660873521520557e-09 -3.914449653308338e-09 2.660873521520557e-09 0.010380477644503117 -5.98560506714918e-11 -3.914449653308338e-09 -5.98560506714918e-11 0.00013817688159178942" pbc="T T T"
Pt       1.40360696       0.81037286      20.00000000        3       0.00000106      -0.00000239      -0.00917050
Pt       4.21082088       0.81037286      20.00000000        3      -0.00175512       0.00301242       0.00178018
Pt       7.01803480       0.81037286      20.00000000        3       0.00208421       0.00282859       0.00179273
Pt       2.80721392       3.24149143      20.00000000        3       0.00140841      -0.00322289       0.00179219
Pt       5.61442784       3.24149143      20.00000000        3      -0.00000150      -0.00000021       0.03522819
Pt       8.42164176       3.24149143      20.00000000        3      -0.00173033      -0.00302817       0.00177860
Pt       4.21082088       5.67261000      20.00000000        3       0.00349058       0.00001642       0.00177985
Pt       7.01803480       5.67261000      20.00000000        3      -0.00349676       0.00039466       0.00179228
Pt       9.82524872       5.67261000      20.00000000        3      -0.00000145       0.00000257      -0.01458389
Pt       0.00000000       1.62074571      22.29208057        2      -0.14292036       0.07742891       0.03907794
Pt       2.80721392       1.62074571      22.29208057        2       0.13851929       0.08505702       0.03907831
Pt       5.61442784       1.62074571      22.29208057        2      -0.00085280       0.12743451       0.05055038
Pt       1.40360696       4.05186428      22.29208057        2       0.00004379      -0.03188248      -0.06162747
Pt       4.21082088       4.05186428      22.29208057        2       0.11079030      -0.06298219       0.05054999
Pt       7.01803480       4.05186428      22.29208057        2      -0.10994086      -0.06445467       0.05054964
Pt       2.80721392       6.48298285      22.29208057        2       0.02758976       0.01597893      -0.06162834
Pt       5.61442784       6.48298285      22.29208057        2       0.00440120      -0.16248956       0.03907817
Pt       8.42164176       6.48298285      22.29208057        2      -0.02763097       0.01590729      -0.06162814
Pt       0.00294907      -0.00332176      24.56545545        1       0.00257776       0.02801386      -0.00535151
Pt       2.80861603       0.00421445      24.56545583        1      -0.02555146      -0.01177866      -0.00535145
Pt       5.61588190      -0.00628134      24.56941934        1       0.00359052      -0.02452826      -0.00743780
Pt       1.39925597       2.43022514      24.56545584        1       0.02297598      -0.01623851      -0.00535157
Pt       4.18525271       2.41956378      24.61814453        1       0.01125076      -0.01083615      -0.00881920
Pt       7.04082563       2.41475323      24.61814476        1       0.00375509       0.01515829      -0.00881735
Pt       2.80104725       4.86411832      24.56941948        1      -0.02303906       0.00915652      -0.00743677
Pt       5.61720486       4.89015641      24.61814476        1      -0.01500760      -0.00432014      -0.00881995
Pt       8.42635385       4.86663691      24.56942000        1       0.01944988       0.01537525      -0.00743605
N        5.61442746       3.24149210      26.94316042        0       0.00000783       0.00000125      -0.00882992
H        5.45526969       4.17742054      26.52136309        0       0.02449238      -0.00391515      -0.01084522
H        6.50454523       2.91136400      26.52136252        0      -0.01564595      -0.01926605      -0.01084521
H        4.88346894       2.63569213      26.52136236        0      -0.00885440       0.02317908      -0.01084812
