31
Lattice="8.421641763931781 0.0 0.0 4.2108208819658905 7.293355709136913 0.0 0.0 0.0 44.584161137365626" Properties=species:S:1:pos:R:3:tags:I:1:forces:R:3 energy=-173.71286010742188 free_energy=-173.71286010742188 stress="0.010689347051084042 1.3234814133511463e-08 3.7886160875189034e-09 1.3234814133511463e-08 0.010689335875213146 2.1480159873021876e-09 3.7886160875189034e-09 2.1480159873021876e-09 -7.939198098938505e-07" pbc="T T T"
Pt       1.40360696       0.81037286      20.00000000        3       0.00540802       0.00311985      -0.00960845
Pt       4.21082088       0.81037286      20.00000000        3       0.00000222       0.00326090      -0.00671309
Pt       7.01803480       0.81037286      20.00000000        3      -0.00541016       0.00312040      -0.00960848
Pt       2.80721392       3.24149143      20.00000000        3       0.00282636      -0.00163167      -0.00671425
Pt       5.61442784       3.24149143      20.00000000        3      -0.00282709      -0.00163147      -0.00671399
Pt       8.42164176       3.24149143      20.00000000        3       0.00000090       0.00504183       0.01241800
Pt       4.21082088       5.67261000      20.00000000        3       0.00000247      -0.00624308      -0.00960842
Pt       7.01803480       5.67261000      20.00000000        3       0.00436289      -0.00251815       0.01241848
Pt       9.82524872       5.67261000      20.00000000        3      -0.00436691      -0.00251756       0.01241910
Pt       0.00000000       1.62074571      22.29208057        2       0.00000220       0.06238480       0.03128665
Pt       2.80721392       1.62074571      22.29208057        2      -0.00560794      -0.00324008      -0.00202381
Pt       5.61442784       1.62074571      22.29208057        2       0.00560848      -0.00324023      -0.00202397
Pt       1.40360696       4.05186428      22.29208057        2      -0.07025579       0.04056265      -0.02787478
Pt       4.21082088       4.05186428      22.29208057        2       0.00000265       0.00647628      -0.00202395
Pt       7.01803480       4.05186428      22.29208057        2       0.07025391       0.04056165      -0.02787502
Pt       2.80721392       6.48298285      22.29208057        2      -0.05402775      -0.03119243       0.03128560
Pt       5.61442784       6.48298285      22.29208057        2       0.05402807      -0.03119234       0.03128573
Pt       8.42164176       6.48298285      22.29208057        2       0.00000254      -0.08112253      -0.02787752
Pt       0.00000168      -0.00000015      24.58984483        1      -0.00000044      -0.00000206      -0.00326747
Pt       2.80433310       0.00911877      24.60032784        1      -0.00181698      -0.00595008       0.00254993
Pt       5.61731182       0.00911830      24.60032751        1       0.00181057      -0.00595032       0.00254968
Pt       1.41006434       2.42406319      24.60032772        1      -0.00606329       0.00140544       0.00255036
Pt       4.21082211       2.43111861      24.58937904        1       0.00000106      -0.00000034      -0.00328109
Pt       7.01158041       2.42406200      24.60032785        1       0.00605811       0.00141105       0.00254971
Pt       2.81655270       4.86017374      24.60032785        1      -0.00424793       0.00454819       0.00255018
Pt       5.60508985       4.86017414      24.60032795        1       0.00425004       0.00454430       0.00255032
Pt       8.42164159       4.86223770      24.66258149        1      -0.00000636      -0.00000389       0.01705176
N        8.42163633       4.86223749      26.73160131        0       0.00008267       0.00001590      -0.00476015
H        9.26324434       5.34813816      27.05269058        0      -0.01588899      -0.00917203      -0.00450199
H        8.42163870       3.89043531      27.05269300        0       0.00000175       0.01828240      -0.00449172
H        7.58003352       5.34813741      27.05269790        0       0.01581480      -0.00912724      -0.00449745
