31
Lattice="8.421641763931781 0.0 0.0 4.2108208819658905 7.293355709136913 0.0 0.0 0.0 44.584161137365626" Properties=species:S:1:pos:R:3:tags:I:1:forces:R:3 energy=-172.8042755126953 free_energy=-172.8042755126953 stress="0.010287951678037643 -2.715288216492695e-09 -4.309635759369712e-09 -2.715288216492695e-09 0.010287960059940815 3.6566605299270805e-09 -4.309635759369712e-09 3.6566605299270805e-09 2.580260297690984e-05" pbc="T T T"
Pt       1.40360696       0.81037286      20.00000000        3       0.00000126      -0.00000188      -0.01219112
Pt       4.21082088       0.81037286      20.00000000        3      -0.00218444       0.00302565       0.00097653
Pt       7.01803480       0.81037286      20.00000000        3       0.00197821       0.00239136       0.00095344
Pt       2.80721392       3.24149143      20.00000000        3       0.00108200      -0.00291260       0.00095212
Pt       5.61442784       3.24149143      20.00000000        3      -0.00000163       0.00000007       0.03240705
Pt       8.42164176       3.24149143      20.00000000        3      -0.00152718      -0.00340677       0.00097534
Pt       4.21082088       5.67261000      20.00000000        3       0.00371779       0.00038139       0.00097486
Pt       7.01803480       5.67261000      20.00000000        3      -0.00306465       0.00052178       0.00095230
Pt       9.82524872       5.67261000      20.00000000        3      -0.00000196       0.00000263      -0.01432914
Pt       0.00000000       1.62074571      22.29208057        2      -0.14878917       0.08583696       0.01205918
Pt       2.80721392       1.62074571      22.29208057        2       0.14873147       0.08593374       0.01205783
Pt       5.61442784       1.62074571      22.29208057        2      -0.00261249       0.12159015       0.04922333
Pt       1.40360696       4.05186428      22.29208057        2       0.00523474      -0.02981997      -0.07348198
Pt       4.21082088       4.05186428      22.29208057        2       0.10661422      -0.05853631       0.04921909
Pt       7.01803480       4.05186428      22.29208057        2      -0.10399970      -0.06305921       0.04922354
Pt       2.80721392       6.48298285      22.29208057        2       0.02320240       0.01944887      -0.07348224
Pt       5.61442784       6.48298285      22.29208057        2       0.00005860      -0.17177412       0.01205613
Pt       8.42164176       6.48298285      22.29208057        2      -0.02843996       0.01037953      -0.07348025
Pt       0.00377099       0.00392260      24.56071227        1      -0.01566312      -0.02143999       0.02083945
Pt       2.80193093       0.00130327      24.56071459        1       0.02639913      -0.00283950       0.02083063
Pt       5.60582027      -0.01200312      24.56953931        1       0.02005291       0.02605711      -0.00908168
Pt       1.40511877       2.42589104      24.56071404        1      -0.01073526       0.02428370       0.02082928
Pt       4.18209330       2.42267623      24.61256676        1       0.02813262       0.00079453       0.01038464
Pt       7.03970990       2.41046107      24.61256739        1      -0.01475640       0.02396333       0.01037335
Pt       2.80112296       4.87569284      24.56953567        1       0.01253831      -0.03039358      -0.00906149
Pt       5.62148032       4.89133657      24.61256809        1      -0.01337635      -0.02476092       0.01037748
Pt       8.43634060       4.86078502      24.56953835        1      -0.03259115       0.00433375      -0.00907050
N        5.61442807       3.24149126      26.94051292        0       0.00002226      -0.00001764      -0.04890579
H        4.75111066       2.84439279      26.52021807        0       0.02395427      -0.00125755       0.00246734
H        5.70218786       4.18769634      26.52021892        0      -0.01306310      -0.02011757       0.00246680
H        6.38998527       2.69238633      26.52021672        0      -0.01091364       0.02139325       0.00248451
