31
Lattice="8.421641763931781 0.0 0.0 4.2108208819658905 7.293355709136913 0.0 0.0 0.0 44.584161137365626" Properties=species:S:1:pos:R:3:tags:I:1:forces:R:3 energy=-173.71255493164062 free_energy=-173.71255493164062 stress="0.010737687349319458 1.1384964970773126e-08 7.092942233555277e-09 1.1384964970773126e-08 0.010737706907093525 -2.228277562466019e-09 7.092942233555277e-09 -2.228277562466019e-09 1.2317722394072916e-05" pbc="T T T"
Pt       1.40360696       0.81037286      20.00000000        3       0.00546896       0.00315439      -0.01009402
Pt       4.21082088       0.81037286      20.00000000        3       0.00000243       0.00356989      -0.00688505
Pt       7.01803480       0.81037286      20.00000000        3      -0.00547036       0.00315498      -0.01009384
Pt       2.80721392       3.24149143      20.00000000        3       0.00309392      -0.00178573      -0.00688678
Pt       5.61442784       3.24149143      20.00000000        3      -0.00309530      -0.00178555      -0.00688627
Pt       8.42164176       3.24149143      20.00000000        3       0.00000120       0.00539068       0.01372832
Pt       4.21082088       5.67261000      20.00000000        3       0.00000195      -0.00631290      -0.01009417
Pt       7.01803480       5.67261000      20.00000000        3       0.00466508      -0.00269267       0.01372951
Pt       9.82524872       5.67261000      20.00000000        3      -0.00466846      -0.00269234       0.01373008
Pt       0.00000000       1.62074571      22.29208057        2       0.00000167       0.06621450       0.03225609
Pt       2.80721392       1.62074571      22.29208057        2      -0.00482931      -0.00279033       0.00163878
Pt       5.61442784       1.62074571      22.29208057        2       0.00482808      -0.00279051       0.00163844
Pt       1.40360696       4.05186428      22.29208057        2      -0.07609574       0.04393449      -0.02059964
Pt       4.21082088       4.05186428      22.29208057        2       0.00000222       0.00557664       0.00163853
Pt       7.01803480       4.05186428      22.29208057        2       0.07609412       0.04393474      -0.02059978
Pt       2.80721392       6.48298285      22.29208057        2      -0.05734536      -0.03310737       0.03225590
Pt       5.61442784       6.48298285      22.29208057        2       0.05734416      -0.03310678       0.03225457
Pt       8.42164176       6.48298285      22.29208057        2       0.00000161      -0.08786618      -0.02060053
Pt       0.00000025      -0.00000030      24.58858455        1      -0.00000107       0.00000080       0.00282070
Pt       2.80441162       0.00900064      24.60083889        1      -0.00085901      -0.00627162       0.00067542
Pt       5.61723035       0.00900060      24.60083900        1       0.00085849      -0.00627140       0.00067429
Pt       1.41000074       2.42419093      24.60083911        1      -0.00586011       0.00239048       0.00067525
Pt       4.21082084       2.43111855      24.59054657        1       0.00000128      -0.00000024      -0.00889426
Pt       7.01164105       2.42419098      24.60083969        1       0.00585902       0.00238924       0.00067572
Pt       2.81641026       4.86016363      24.60083956        1      -0.00500156       0.00387979       0.00067557
Pt       5.60523194       4.86016360      24.60083919        1       0.00500075       0.00387918       0.00067545
Pt       8.42164178       4.86223669      24.67001189        1       0.00000193       0.00000358      -0.03261378
N        8.42164135       4.86223753      26.73726650        0       0.00005519      -0.00003679      -0.01463622
H        8.42164180       3.88851168      27.05381847        0      -0.00000069       0.04902984       0.00637254
H        7.57837108       5.34909975      27.05381647        0       0.04240386      -0.02448104       0.00639629
H        9.26491256       5.34909996      27.05381717        0      -0.04245894      -0.02451204       0.00637262
