31
Lattice="8.421641763931781 0.0 0.0 4.2108208819658905 7.293355709136913 0.0 0.0 0.0 44.584161137365626" Properties=species:S:1:pos:R:3:tags:I:1:forces:R:3 energy=-172.60189819335938 free_energy=-172.60189819335938 stress="0.010518869385123253 -1.3400459408785537e-08 -1.8283303759858427e-08 -1.3400459408785537e-08 0.0105188749730587 -2.8322795220248054e-09 -1.8283303759858427e-08 -2.8322795220248054e-09 -1.5807352610863745e-05" pbc="T T T"
Pt       1.40360696       0.81037286      20.00000000        3       0.00000073      -0.00000226      -0.00634727
Pt       4.21082088       0.81037286      20.00000000        3      -0.00067218       0.00123283      -0.00134337
Pt       7.01803480       0.81037286      20.00000000        3       0.00067229       0.00123194      -0.00134319
Pt       2.80721392       3.24149143      20.00000000        3       0.00073270      -0.00120133      -0.00134391
Pt       5.61442784       3.24149143      20.00000000        3      -0.00000205       0.00000018       0.01187229
Pt       8.42164176       3.24149143      20.00000000        3      -0.00073076      -0.00120023      -0.00134513
Pt       4.21082088       5.67261000      20.00000000        3       0.00140836      -0.00003212      -0.00134379
Pt       7.01803480       5.67261000      20.00000000        3      -0.00140837      -0.00003134      -0.00134403
Pt       9.82524872       5.67261000      20.00000000        3      -0.00000117       0.00000225      -0.00859964
Pt       0.00000000       1.62074571      22.29208057        2      -0.04278685       0.02470121      -0.01080609
Pt       2.80721392       1.62074571      22.29208057        2       0.04278933       0.02470251      -0.01080741
Pt       5.61442784       1.62074571      22.29208057        2      -0.00000229       0.05406177       0.04110605
Pt       1.40360696       4.05186428      22.29208057        2       0.00000090      -0.01914821      -0.03130628
Pt       4.21082088       4.05186428      22.29208057        2       0.04682286      -0.02703224       0.04110550
Pt       7.01803480       4.05186428      22.29208057        2      -0.04682358      -0.02703165       0.04110676
Pt       2.80721392       6.48298285      22.29208057        2       0.01658278       0.00957542      -0.03130674
Pt       5.61442784       6.48298285      22.29208057        2      -0.00000147      -0.04940648      -0.01080779
Pt       8.42164176       6.48298285      22.29208057        2      -0.01658153       0.00957736      -0.03130814
Pt       0.00154949       0.00089435      24.57688579        1      -0.00320358      -0.00184847      -0.00631142
Pt       2.80566463       0.00089449      24.57688585        1       0.00320169      -0.00184926      -0.00631067
Pt       5.61442776      -0.00688266      24.57748794        1       0.00000200       0.02061261      -0.00907770
Pt       1.40360717       2.42932949      24.57688599        1       0.00000008       0.00369875      -0.00630993
Pt       4.19942460       2.42453892      24.59691475        1       0.01709149       0.00986820       0.02064766
Pt       7.02943075       2.42453899      24.59691476        1      -0.01709159       0.00986654       0.02064911
Pt       2.80125354       4.86567851      24.57748787        1       0.01785035      -0.01030460      -0.00907636
Pt       5.61442773       4.87539631      24.59691466        1       0.00000031      -0.01973537       0.02064851
Pt       8.42760218       4.86567860      24.57748804        1      -0.01785099      -0.01030805      -0.00907546
N        5.61442659       3.24149120      27.59226976        0       0.00011431       0.00001819      -0.02897626
H        5.61442787       4.18641782      27.19286770        0      -0.00000729      -0.02892536       0.00912299
H        6.43275834       2.76902811      27.19286743        0      -0.02508727       0.01448002       0.00914244
H        4.79609854       2.76902878      27.19286800        0       0.02498089       0.01442712       0.00908894
