31
Lattice="8.421641763931781 0.0 0.0 4.2108208819658905 7.293355709136913 0.0 0.0 0.0 44.584161137365626" Properties=species:S:1:pos:R:3:tags:I:1:forces:R:3 energy=-173.71035766601562 free_energy=-173.71035766601562 stress="0.010695246048271656 5.441340711342946e-09 -3.900165967962721e-09 5.441340711342946e-09 0.010695250704884529 1.73582548335105e-09 -3.900165967962721e-09 1.73582548335105e-09 3.037736178157502e-06" pbc="T T T"
Pt       1.40360696       0.81037286      20.00000000        3       0.00519100       0.00299383      -0.00957790
Pt       4.21082088       0.81037286      20.00000000        3       0.00000208       0.00324861      -0.00614461
Pt       7.01803480       0.81037286      20.00000000        3      -0.00519237       0.00299430      -0.00957799
Pt       2.80721392       3.24149143      20.00000000        3       0.00281574      -0.00162564      -0.00614613
Pt       5.61442784       3.24149143      20.00000000        3      -0.00281653      -0.00162534      -0.00614619
Pt       8.42164176       3.24149143      20.00000000        3       0.00000117       0.00468081       0.01237097
Pt       4.21082088       5.67261000      20.00000000        3       0.00000206      -0.00599138      -0.00957778
Pt       7.01803480       5.67261000      20.00000000        3       0.00405050      -0.00233750       0.01237243
Pt       9.82524872       5.67261000      20.00000000        3      -0.00405409      -0.00233741       0.01237163
Pt       0.00000000       1.62074571      22.29208057        2       0.00000193       0.06262194       0.02821899
Pt       2.80721392       1.62074571      22.29208057        2      -0.00442350      -0.00255654      -0.00152494
Pt       5.61442784       1.62074571      22.29208057        2       0.00442352      -0.00255638      -0.00152221
Pt       1.40360696       4.05186428      22.29208057        2      -0.06926565       0.03999189      -0.02597901
Pt       4.21082088       4.05186428      22.29208057        2       0.00000296       0.00510966      -0.00152329
Pt       7.01803480       4.05186428      22.29208057        2       0.06926460       0.03999110      -0.02597835
Pt       2.80721392       6.48298285      22.29208057        2      -0.05423295      -0.03131122       0.02821779
Pt       5.61442784       6.48298285      22.29208057        2       0.05423369      -0.03131137       0.02821671
Pt       8.42164176       6.48298285      22.29208057        2       0.00000199      -0.07997947      -0.02598115
Pt       0.00000177      -0.00000046      24.58918395        1      -0.00000141      -0.00000021      -0.00196674
Pt       2.80293062       0.00806904      24.60058631        1       0.00136996      -0.00474301       0.00236626
Pt       5.61871386       0.00806838      24.60058566        1      -0.00137268      -0.00473894       0.00236389
Pt       1.40845401       2.42337339      24.60058569        1      -0.00342500       0.00356000       0.00236623
Pt       4.21082160       2.43111838      24.59012596        1       0.00000420      -0.00000113      -0.00373876
Pt       7.01319080       2.42337304      24.60058584        1       0.00341813       0.00355987       0.00236486
Pt       2.81634482       4.86191302      24.60058591        1      -0.00479251       0.00118415       0.00236550
Pt       5.60529853       4.86191262      24.60058577        1       0.00479211       0.00118392       0.00236538
Pt       8.42164189       4.86223801      24.66291023        1      -0.00000728      -0.00000076       0.02309549
N        8.42163790       4.86223809      26.73259075        0      -0.00000864      -0.00001132      -0.02159518
H        8.42163828       5.83391390      27.05342818        0       0.00000202      -0.01094730      -0.00069369
H        9.26313521       4.37639913      27.05342321        0      -0.00948173       0.00547424      -0.00067905
H        7.58014145       4.37639921      27.05342897        0       0.00949673       0.00548069      -0.00070307
