31
Lattice="8.421641763931781 0.0 0.0 4.2108208819658905 7.293355709136913 0.0 0.0 0.0 44.584161137365626" Properties=species:S:1:pos:R:3:tags:I:1:forces:R:3 energy=-172.57989501953125 free_energy=-172.57989501953125 stress="0.01044447347521782 -3.737587306318346e-08 -3.8000429469775554e-08 -3.737587306318346e-08 0.010553085245192051 -6.760285032214597e-05 -3.8000429469775554e-08 -6.760285032214597e-05 -0.00013547144772019237" pbc="T T T"
Pt       1.40360696       0.81037286      20.00000000        3       0.00173014       0.00015730      -0.00500399
Pt       4.21082088       0.81037286      20.00000000        3      -0.00172693       0.00015783      -0.00500405
Pt       7.01803480       0.81037286      20.00000000        3      -0.00000221       0.00069500      -0.00966096
Pt       2.80721392       3.24149143      20.00000000        3       0.00000037      -0.00016574      -0.00903451
Pt       5.61442784       3.24149143      20.00000000        3      -0.00021967       0.00202621       0.00114810
Pt       8.42164176       3.24149143      20.00000000        3       0.00021975       0.00202674       0.00114730
Pt       4.21082088       5.67261000      20.00000000        3       0.00215706      -0.00053272      -0.00299361
Pt       7.01803480       5.67261000      20.00000000        3      -0.00000239      -0.00165478       0.01389888
Pt       9.82524872       5.67261000      20.00000000        3      -0.00215598      -0.00053165      -0.00299233
Pt       0.00000000       1.62074571      22.29208057        2      -0.00083231       0.02238834      -0.03542070
Pt       2.80721392       1.62074571      22.29208057        2      -0.00000175      -0.03676938      -0.03857630
Pt       5.61442784       1.62074571      22.29208057        2       0.00083392       0.02238845      -0.03542345
Pt       1.40360696       4.05186428      22.29208057        2      -0.06290550       0.02315753      -0.00485342
Pt       4.21082088       4.05186428      22.29208057        2       0.06290758       0.02315934      -0.00485766
Pt       7.01803480       4.05186428      22.29208057        2      -0.00000254       0.05622401       0.04125141
Pt       2.80721392       6.48298285      22.29208057        2       0.00000032      -0.01184190      -0.04682860
Pt       5.61442784       6.48298285      22.29208057        2       0.03639952      -0.06522091       0.02288027
Pt       8.42164176       6.48298285      22.29208057        2      -0.03640062      -0.06522053       0.02288030
Pt      -0.00082431       0.00225952      24.57164931        1      -0.02059832       0.00187406       0.02614349
Pt       2.80721400      -0.01279124      24.59023744        1      -0.00000018       0.03806729      -0.01323184
Pt       5.61525227       0.00225936      24.57164947        1       0.02059832       0.00187426       0.02614403
Pt       1.41015988       2.42061388      24.57383889        1       0.00785969      -0.00327136       0.01765022
Pt       4.20426794       2.42061394      24.57383815        1      -0.00785860      -0.00327491       0.01766199
Pt       7.01803475       2.43103480      24.57686691        1      -0.00000154      -0.04155240       0.01433833
Pt       2.80721427       4.86225619      24.56783186        1      -0.00000334      -0.00919827       0.03424171
Pt       5.59768352       4.85323058      24.60467464        1      -0.00095266      -0.00083604      -0.03186817
Pt       8.43838520       4.85323043      24.60467472        1       0.00095681      -0.00083720      -0.03186449
N        7.01803278       4.86337319      27.59995891        0       0.00024380      -0.00046582       0.01545307
H        6.19756303       4.40626348      27.19199368        0       0.00739227       0.02288498      -0.00794262
H        7.01803422       5.82558682      27.25215751        0      -0.00000791       0.00128439       0.03854358
H        7.83850922       4.40626147      27.19199251        0      -0.00762708       0.02300783      -0.00782610
