31
Lattice="8.421641763931781 0.0 0.0 4.2108208819658905 7.293355709136913 0.0 0.0 0.0 44.584161137365626" Properties=species:S:1:pos:R:3:tags:I:1:forces:R:3 energy=-172.8042755126953 free_energy=-172.8042755126953 stress="0.010287909768521786 4.312356249869254e-09 2.459539683030698e-09 4.312356249869254e-09 0.010287918150424957 3.4607681165255144e-09 2.459539683030698e-09 3.4607681165255144e-09 2.577983286755625e-05" pbc="T T T"
Pt       1.40360696       0.81037286      20.00000000        3       0.00000052      -0.00000258      -0.01219150
Pt       4.21082088       0.81037286      20.00000000        3      -0.00218447       0.00302571       0.00097603
Pt       7.01803480       0.81037286      20.00000000        3       0.00197838       0.00239101       0.00095251
Pt       2.80721392       3.24149143      20.00000000        3       0.00108278      -0.00291241       0.00095290
Pt       5.61442784       3.24149143      20.00000000        3      -0.00000203       0.00000071       0.03240618
Pt       8.42164176       3.24149143      20.00000000        3      -0.00152746      -0.00340643       0.00097421
Pt       4.21082088       5.67261000      20.00000000        3       0.00371782       0.00038067       0.00097626
Pt       7.01803480       5.67261000      20.00000000        3      -0.00306555       0.00052116       0.00095388
Pt       9.82524872       5.67261000      20.00000000        3      -0.00000118       0.00000252      -0.01432964
Pt       0.00000000       1.62074571      22.29208057        2      -0.14878760       0.08583373       0.01205687
Pt       2.80721392       1.62074571      22.29208057        2       0.14873096       0.08593499       0.01205793
Pt       5.61442784       1.62074571      22.29208057        2      -0.00261415       0.12158947       0.04921661
Pt       1.40360696       4.05186428      22.29208057        2       0.00523802      -0.02981865      -0.07347697
Pt       4.21082088       4.05186428      22.29208057        2       0.10661100      -0.05853261       0.04921744
Pt       7.01803480       4.05186428      22.29208057        2      -0.10400005      -0.06305539       0.04921838
Pt       2.80721392       6.48298285      22.29208057        2       0.02320644       0.01944446      -0.07347730
Pt       5.61442784       6.48298285      22.29208057        2       0.00005638      -0.17177457       0.01205773
Pt       8.42164176       6.48298285      22.29208057        2      -0.02844104       0.01037803      -0.07347587
Pt       0.00377207       0.00392333      24.56071415        1      -0.01567151      -0.02144944       0.02082999
Pt       2.80192973       0.00130460      24.56071413        1       0.02641238      -0.00284843       0.02082987
Pt       5.60582091      -0.01200215      24.56953749        1       0.02004523       0.02604333      -0.00907411
Pt       1.40511815       2.42589012      24.56071391        1      -0.01073161       0.02429439       0.02083090
Pt       4.18209427       2.42267721      24.61256662        1       0.02812158       0.00078879       0.01038357
Pt       7.03970821       2.41046146      24.61256686        1      -0.01474668       0.02395744       0.01038347
Pt       2.80112392       4.87569241      24.56953800        1       0.01252909      -0.03038603      -0.00907131
Pt       5.62148082       4.89133550      24.61256717        1      -0.01337712      -0.02474649       0.01037245
Pt       8.43633912       4.86078376      24.56953735        1      -0.03258009       0.00434743      -0.00907108
N        5.61442845       3.24149164      26.94051264        0      -0.00003316      -0.00002453      -0.04880401
H        6.38997272       2.69237231      26.52021759        0      -0.01081672       0.02133384       0.00243749
H        4.75110494       2.84440852      26.52021822        0       0.02390756      -0.00127806       0.00245066
H        5.70220605       4.18769232      26.52021762        0      -0.01305760      -0.02003190       0.00243659
