31
Lattice="8.421641763931781 0.0 0.0 4.2108208819658905 7.293355709136913 0.0 0.0 0.0 44.584161137365626" Properties=species:S:1:pos:R:3:tags:I:1:forces:R:3 energy=-172.80596923828125 free_energy=-172.80596923828125 stress="0.010340851731598377 9.707115111723397e-10 5.732933239244176e-09 9.707115111723397e-10 0.01023808866739273 0.00010187739098910242 5.732933239244176e-09 0.00010187739098910242 -2.5211304091499187e-05" pbc="T T T"
Pt       1.40360696       0.81037286      20.00000000        3       0.00136996       0.00058615      -0.00833610
Pt       4.21082088       0.81037286      20.00000000        3      -0.00136674       0.00058734      -0.00833556
Pt       7.01803480       0.81037286      20.00000000        3      -0.00000226       0.00054181      -0.01008907
Pt       2.80721392       3.24149143      20.00000000        3       0.00000086      -0.00272433      -0.00847256
Pt       5.61442784       3.24149143      20.00000000        3      -0.00164506       0.00133775       0.01607350
Pt       8.42164176       3.24149143      20.00000000        3       0.00164477       0.00133849       0.01607341
Pt       4.21082088       5.67261000      20.00000000        3       0.00306887      -0.00382216       0.00073206
Pt       7.01803480       5.67261000      20.00000000        3      -0.00000230      -0.00263167       0.02806669
Pt       9.82524872       5.67261000      20.00000000        3      -0.00306813      -0.00382081       0.00073233
Pt       0.00000000       1.62074571      22.29208057        2      -0.06632622       0.08840074      -0.04020476
Pt       2.80721392       1.62074571      22.29208057        2       0.00000053       0.01983479      -0.12073785
Pt       5.61442784       1.62074571      22.29208057        2       0.06632523       0.08839920      -0.04020431
Pt       1.40360696       4.05186428      22.29208057        2      -0.15750381       0.09656109       0.02519006
Pt       4.21082088       4.05186428      22.29208057        2       0.15750556       0.09655952       0.02518799
Pt       7.01803480       4.05186428      22.29208057        2      -0.00000119       0.06662621       0.08368687
Pt       2.80721392       6.48298285      22.29208057        2      -0.00000125      -0.00960521      -0.06137452
Pt       5.61442784       6.48298285      22.29208057        2       0.02929343      -0.15446481       0.02591629
Pt       8.42164176       6.48298285      22.29208057        2      -0.02929143      -0.15446413       0.02591850
Pt      -0.00201816       0.01868460      24.56279895        1      -0.01062058      -0.00948050       0.00658435
Pt       2.80721474       0.04624218      24.56969545        1      -0.00000372      -0.04437064      -0.00400119
Pt       5.61644629       0.01868410      24.56280217        1       0.01062170      -0.00947819       0.00657463
Pt       1.40760311       2.45042565      24.56862977        1       0.00294488      -0.02024901       0.00781220
Pt       4.20682473       2.45042520      24.56863107        1      -0.00294520      -0.02024636       0.00781159
Pt       7.01803425       2.42384800      24.59392183        1       0.00000133       0.00319612       0.02679978
Pt       2.80721382       4.87606219      24.56256677        1       0.00000155       0.01986809      -0.00171436
Pt       5.59298747       4.89382087      24.62805680        1       0.02575869      -0.02176417      -0.00592717
Pt       8.44308165       4.89382132      24.62805862        1      -0.02576022      -0.02176890      -0.00593260
N        7.01803565       4.34186772      26.93106398        0      -0.00004112       0.02507325      -0.01032382
H        6.19839398       4.86426115      26.56361098        0       0.00290650      -0.01867721      -0.00303200
H        7.83767589       4.86426203      26.56361128        0      -0.00287800      -0.01867334      -0.00305066
H        7.01803397       3.45219634      26.38980218        0       0.00001349       0.00733076       0.02857634
