31
Lattice="8.421641763931781 0.0 0.0 4.2108208819658905 7.293355709136913 0.0 0.0 0.0 44.584161137365626" Properties=species:S:1:pos:R:3:tags:I:1:forces:R:3 energy=-172.80535888671875 free_energy=-172.80535888671875 stress="0.01031483057886362 9.780195542319348e-10 1.4800769498890531e-09 9.780195542319348e-10 0.010264898650348186 -6.444776954595e-05 1.4800769498890531e-09 -6.444776954595e-05 -1.5545834685326554e-05" pbc="T T T"
Pt       1.40360696       0.81037286      20.00000000        3       0.00093181       0.00201244      -0.00833035
Pt       4.21082088       0.81037286      20.00000000        3      -0.00092867       0.00201265      -0.00832942
Pt       7.01803480       0.81037286      20.00000000        3      -0.00000210       0.00254266      -0.00997093
Pt       2.80721392       3.24149143      20.00000000        3       0.00000021      -0.00056332      -0.00643191
Pt       5.61442784       3.24149143      20.00000000        3      -0.00182601       0.00281460       0.01604798
Pt       8.42164176       3.24149143      20.00000000        3       0.00182564       0.00281505       0.01604760
Pt       4.21082088       5.67261000      20.00000000        3       0.00275790      -0.00174962       0.00135681
Pt       7.01803480       5.67261000      20.00000000        3      -0.00000234      -0.00165676       0.02707732
Pt       9.82524872       5.67261000      20.00000000        3      -0.00275734      -0.00174876       0.00135696
Pt       0.00000000       1.62074571      22.29208057        2      -0.05991217       0.06153136      -0.03975243
Pt       2.80721392       1.62074571      22.29208057        2       0.00000071      -0.01343453      -0.10786341
Pt       5.61442784       1.62074571      22.29208057        2       0.05991191       0.06153211      -0.03975191
Pt       1.40360696       4.05186428      22.29208057        2      -0.15451518       0.06490327       0.03627873
Pt       4.21082088       4.05186428      22.29208057        2       0.15451658       0.06490206       0.03627624
Pt       7.01803480       4.05186428      22.29208057        2      -0.00000114       0.04678276       0.07277228
Pt       2.80721392       6.48298285      22.29208057        2      -0.00000017      -0.04095044      -0.07370183
Pt       5.61442784       6.48298285      22.29208057        2       0.02177867      -0.17521721       0.02284683
Pt       8.42164176       6.48298285      22.29208057        2      -0.02177812      -0.17521730       0.02284645
Pt      -0.01123071      -0.01385155      24.56335451        1       0.04619628       0.00736401       0.00769189
Pt       2.80721440       0.00059006      24.56808252        1      -0.00000289       0.01147553      -0.00642811
Pt       5.62565890      -0.01385191      24.56335460        1      -0.04619346       0.00736713       0.00769296
Pt       1.40770227       2.40721489      24.57009013        1       0.01529863       0.01631794      -0.00071217
Pt       4.20672605       2.40721493      24.57008935        1      -0.01529517       0.01631780      -0.00071338
Pt       7.01803544       2.40304428      24.59456972        1      -0.00000455      -0.01717693       0.04192425
Pt       2.80721390       4.83911391      24.56371035        1      -0.00000068       0.02286338      -0.00902194
Pt       5.58907386       4.85269390      24.62682401        1       0.01529720       0.02645687      -0.00760264
Pt       8.44699535       4.85269398      24.62682440        1      -0.01529595       0.02645539      -0.00760894
N        7.01803522       4.35581487      26.93230218        0      -0.00001024      -0.00946630      -0.03413889
H        7.01803586       3.46740101      26.38941504        0      -0.00000225      -0.03022473       0.02584073
H        6.19848084       4.87256066      26.55474887        0       0.01876286       0.01046417       0.01215167
H        7.83759137       4.87255946      26.55475004        0      -0.01875009       0.01047495       0.01214947
