31
Lattice="8.421641763931781 0.0 0.0 4.2108208819658905 7.293355709136913 0.0 0.0 0.0 44.584161137365626" Properties=species:S:1:pos:R:3:tags:I:1:forces:R:3 energy=-173.71035766601562 free_energy=-173.71035766601562 stress="0.010695290751755238 -2.5788800428472314e-08 8.313229216128093e-09 -2.5788800428472314e-08 0.01069531962275505 6.731085022693151e-09 8.313229216128093e-09 6.731085022693151e-09 3.087513277932885e-06" pbc="T T T"
Pt       1.40360696       0.81037286      20.00000000        3       0.00519066       0.00299381      -0.00957751
Pt       4.21082088       0.81037286      20.00000000        3       0.00000221       0.00324789      -0.00614417
Pt       7.01803480       0.81037286      20.00000000        3      -0.00519238       0.00299440      -0.00957850
Pt       2.80721392       3.24149143      20.00000000        3       0.00281575      -0.00162549      -0.00614667
Pt       5.61442784       3.24149143      20.00000000        3      -0.00281639      -0.00162462      -0.00614515
Pt       8.42164176       3.24149143      20.00000000        3       0.00000104       0.00468090       0.01237121
Pt       4.21082088       5.67261000      20.00000000        3       0.00000232      -0.00599117      -0.00957879
Pt       7.01803480       5.67261000      20.00000000        3       0.00405031      -0.00233762       0.01237291
Pt       9.82524872       5.67261000      20.00000000        3      -0.00405450      -0.00233718       0.01237288
Pt       0.00000000       1.62074571      22.29208057        2       0.00000239       0.06262165       0.02822569
Pt       2.80721392       1.62074571      22.29208057        2      -0.00442449      -0.00255771      -0.00151590
Pt       5.61442784       1.62074571      22.29208057        2       0.00442392      -0.00255664      -0.00151604
Pt       1.40360696       4.05186428      22.29208057        2      -0.06926617       0.03999051      -0.02597479
Pt       4.21082088       4.05186428      22.29208057        2       0.00000469       0.00510870      -0.00151841
Pt       7.01803480       4.05186428      22.29208057        2       0.06926176       0.03998969      -0.02597508
Pt       2.80721392       6.48298285      22.29208057        2      -0.05423379      -0.03130768       0.02822241
Pt       5.61442784       6.48298285      22.29208057        2       0.05423397      -0.03130964       0.02822405
Pt       8.42164176       6.48298285      22.29208057        2       0.00000152      -0.07997710      -0.02597458
Pt       0.00000130       0.00000033      24.58918553        1       0.00000209       0.00000104      -0.00197476
Pt       2.80293106       0.00806974      24.60058697        1       0.00136695      -0.00474377       0.00235677
Pt       5.61871343       0.00806852      24.60058702        1      -0.00137514      -0.00474341       0.00235665
Pt       1.40845428       2.42337441      24.60058693        1      -0.00342576       0.00355540       0.00235675
Pt       4.21082151       2.43111939      24.59012785        1       0.00000301      -0.00000312      -0.00374654
Pt       7.01319019       2.42337305      24.60058731        1       0.00341696       0.00355797       0.00235856
Pt       2.81634439       4.86191406      24.60058682        1      -0.00479605       0.00118189       0.00236638
Pt       5.60529756       4.86191382      24.60058742        1       0.00479204       0.00118394       0.00235870
Pt       8.42163953       4.86223604      24.66291059        1      -0.00000163       0.00000152       0.02309525
N        8.42163610       4.86223417      26.73259087        0       0.00017821       0.00007930      -0.02155578
H        9.26313770       4.37639727      27.05342337        0      -0.00958223       0.00552471      -0.00071698
H        7.58014303       4.37639755      27.05343453        0       0.00942554       0.00544222      -0.00068390
H        8.42164004       5.83391384      27.05342502        0      -0.00000670      -0.01104043      -0.00071432
