31
Lattice="8.421641763931781 0.0 0.0 4.2108208819658905 7.293355709136913 0.0 0.0 0.0 44.584161137365626" Properties=species:S:1:pos:R:3:tags:I:1:forces:R:3 energy=-173.71286010742188 free_energy=-173.71286010742188 stress="0.010689331218600273 -6.849276701359486e-09 -1.2682280114972855e-08 -6.849276701359486e-09 0.010689349845051765 -2.383359065660784e-09 -1.2682280114972855e-08 -2.383359065660784e-09 -8.097816248664458e-07" pbc="T T T"
Pt       1.40360696       0.81037286      20.00000000        3       0.00540849       0.00312006      -0.00960836
Pt       4.21082088       0.81037286      20.00000000        3       0.00000198       0.00326098      -0.00671276
Pt       7.01803480       0.81037286      20.00000000        3      -0.00540988       0.00312079      -0.00960839
Pt       2.80721392       3.24149143      20.00000000        3       0.00282655      -0.00163164      -0.00671440
Pt       5.61442784       3.24149143      20.00000000        3      -0.00282724      -0.00163109      -0.00671369
Pt       8.42164176       3.24149143      20.00000000        3       0.00000094       0.00504147       0.01241800
Pt       4.21082088       5.67261000      20.00000000        3       0.00000242      -0.00624329      -0.00960839
Pt       7.01803480       5.67261000      20.00000000        3       0.00436279      -0.00251847       0.01241857
Pt       9.82524872       5.67261000      20.00000000        3      -0.00436699      -0.00251837       0.01241851
Pt       0.00000000       1.62074571      22.29208057        2       0.00000233       0.06238453       0.03128612
Pt       2.80721392       1.62074571      22.29208057        2      -0.00560806      -0.00324015      -0.00202360
Pt       5.61442784       1.62074571      22.29208057        2       0.00560782      -0.00323984      -0.00202386
Pt       1.40360696       4.05186428      22.29208057        2      -0.07025477       0.04056236      -0.02787591
Pt       4.21082088       4.05186428      22.29208057        2       0.00000287       0.00647658      -0.00202377
Pt       7.01803480       4.05186428      22.29208057        2       0.07025333       0.04056177      -0.02787761
Pt       2.80721392       6.48298285      22.29208057        2      -0.05402797      -0.03119271       0.03128503
Pt       5.61442784       6.48298285      22.29208057        2       0.05402734      -0.03119260       0.03128505
Pt       8.42164176       6.48298285      22.29208057        2       0.00000244      -0.08112142      -0.02787847
Pt       0.00000101      -0.00000039      24.58984532        1       0.00000291       0.00000018      -0.00326580
Pt       2.80433254       0.00911854      24.60032753        1      -0.00181587      -0.00594936       0.00255023
Pt       5.61731147       0.00911819      24.60032788        1       0.00180925      -0.00595006       0.00255021
Pt       1.41006408       2.42406298      24.60032760        1      -0.00606406       0.00140560       0.00254965
Pt       4.21082156       2.43111826      24.58937921        1       0.00000245      -0.00000035      -0.00328103
Pt       7.01158027       2.42406229      24.60032782        1       0.00605563       0.00140591       0.00255142
Pt       2.81655248       4.86017386      24.60032761        1      -0.00424771       0.00454511       0.00255068
Pt       5.60509023       4.86017377      24.60032761        1       0.00424325       0.00454565       0.00255103
Pt       8.42164085       4.86223761      24.66258153        1       0.00000071       0.00000002       0.01703754
N        8.42163870       4.86223811      26.73160048        0      -0.00006389      -0.00004160      -0.00470698
H        7.58003436       5.34813790      27.05269920        0       0.01587089      -0.00915581      -0.00453041
H        9.26324344       5.34813785      27.05269115        0      -0.01580671      -0.00912899      -0.00448214
H        8.42163858       3.89043574      27.05269371        0       0.00000872       0.01832448      -0.00451615
