31
Lattice="8.421641763931781 0.0 0.0 4.2108208819658905 7.293355709136913 0.0 0.0 0.0 44.584161137365626" Properties=species:S:1:pos:R:3:tags:I:1:forces:R:3 energy=-173.71633911132812 free_energy=-173.71633911132812 stress="0.010684151202440262 -4.219171678698785e-09 -1.6746600550732182e-08 -4.219171678698785e-09 0.010684150271117687 3.5634757367120073e-09 -1.6746600550732182e-08 3.5634757367120073e-09 -3.817294327745913e-06" pbc="T T T"
Pt       1.40360696       0.81037286      20.00000000        3       0.00502898       0.00377297      -0.00913873
Pt       4.21082088       0.81037286      20.00000000        3       0.00070068       0.00299350      -0.00606254
Pt       7.01803480       0.81037286      20.00000000        3      -0.00578590       0.00246554      -0.00913921
Pt       2.80721392       3.24149143      20.00000000        3       0.00224619      -0.00210290      -0.00606456
Pt       5.61442784       3.24149143      20.00000000        3      -0.00294492      -0.00089389      -0.00606421
Pt       8.42164176       3.24149143      20.00000000        3       0.00051991       0.00464936       0.01214585
Pt       4.21082088       5.67261000      20.00000000        3       0.00075760      -0.00624126      -0.00913909
Pt       7.01803480       5.67261000      20.00000000        3       0.00376422      -0.00277159       0.01214555
Pt       9.82524872       5.67261000      20.00000000        3      -0.00428754      -0.00187236       0.01214710
Pt       0.00000000       1.62074571      22.29208057        2       0.00646298       0.06193403       0.03263694
Pt       2.80721392       1.62074571      22.29208057        2      -0.01087227       0.00429748      -0.00002899
Pt       5.61442784       1.62074571      22.29208057        2       0.00171371      -0.01156691      -0.00002891
Pt       1.40360696       4.05186428      22.29208057        2      -0.06801076       0.03419277      -0.02865914
Pt       4.21082088       4.05186428      22.29208057        2       0.00915889       0.00726781      -0.00002843
Pt       7.01803480       4.05186428      22.29208057        2       0.06361510       0.04180505      -0.02867217
Pt       2.80721392       6.48298285      22.29208057        2      -0.05686942      -0.02537231       0.03264021
Pt       5.61442784       6.48298285      22.29208057        2       0.05040542      -0.03656037       0.03263172
Pt       8.42164176       6.48298285      22.29208057        2       0.00440221      -0.07599331      -0.02866727
Pt       0.00000187       0.00000003      24.58945591        1      -0.00000923       0.00000385      -0.00312722
Pt       2.80201523       0.01134288      24.59564189        1      -0.00740261       0.00254466       0.00772643
Pt       5.61576555       0.00572184      24.60743080        1      -0.00026315      -0.01161991      -0.00825210
Pt       1.40789335       2.42710059      24.60743086        1      -0.00992222       0.00604646      -0.00825164
Pt       4.21082160       2.43111907      24.58918456        1       0.00000221       0.00000165      -0.00129381
Pt       7.01081285       2.42094614      24.59564222        1       0.00150200      -0.00769231       0.00772652
Pt       2.81963930       4.86106874      24.59564202        1       0.00587589       0.00514803       0.00772370
Pt       5.60880803       4.86053654      24.60743077        1       0.01016497       0.00556578      -0.00824964
Pt       8.42163577       4.86223901      24.65959737        1       0.00003628       0.00000156       0.00531688
N        8.42163924       4.86223579      26.72620675        0      -0.00008509      -0.00003344      -0.00096649
H        7.44953753       4.86479599      27.04597299        0      -0.00099286       0.00120297      -0.00037035
H        8.90990950       5.70282016      27.04596318        0       0.00159403       0.00031511      -0.00031754
H        8.90547186       4.01908579      27.04595511        0      -0.00050524      -0.00148834      -0.00031888
