31
Lattice="8.421641763931781 0.0 0.0 4.2108208819658905 7.293355709136913 0.0 0.0 0.0 44.584161137365626" Properties=species:S:1:pos:R:3:tags:I:1:forces:R:3 energy=-173.7161865234375 free_energy=-173.7161865234375 stress="0.010666740126907825 -1.181204734024277e-08 1.2700366092133208e-08 -1.181204734024277e-08 0.01066670287400484 9.75653602353077e-09 1.2700366092133208e-08 9.75653602353077e-09 -1.7816385025071213e-06" pbc="T T T"
Pt       1.40360696       0.81037286      20.00000000        3       0.00569506       0.00250945      -0.00957394
Pt       4.21082088       0.81037286      20.00000000        3      -0.00066626       0.00312266      -0.00628439
Pt       7.01803480       0.81037286      20.00000000        3      -0.00502384       0.00367450      -0.00957552
Pt       2.80721392       3.24149143      20.00000000        3       0.00304088      -0.00098401      -0.00628573
Pt       5.61442784       3.24149143      20.00000000        3      -0.00237362      -0.00214075      -0.00628576
Pt       8.42164176       3.24149143      20.00000000        3      -0.00053800       0.00469352       0.01201946
Pt       4.21082088       5.67261000      20.00000000        3      -0.00066993      -0.00618579      -0.00957400
Pt       7.01803480       5.67261000      20.00000000        3       0.00433147      -0.00187708       0.01202029
Pt       9.82524872       5.67261000      20.00000000        3      -0.00379558      -0.00281132       0.01202002
Pt       0.00000000       1.62074571      22.29208057        2      -0.00611544       0.06274444       0.02847177
Pt       2.80721392       1.62074571      22.29208057        2      -0.00095680      -0.01032316      -0.00398037
Pt       5.61442784       1.62074571      22.29208057        2       0.00941364       0.00433061      -0.00397921
Pt       1.40360696       4.05186428      22.29208057        2      -0.06540326       0.04311155      -0.02902617
Pt       4.21082088       4.05186428      22.29208057        2      -0.00846051       0.00599150      -0.00397718
Pt       7.01803480       4.05186428      22.29208057        2       0.07003383       0.03508865      -0.02902658
Pt       2.80721392       6.48298285      22.29208057        2      -0.05128222      -0.03667094       0.02847419
Pt       5.61442784       6.48298285      22.29208057        2       0.05739642      -0.02607580       0.02847179
Pt       8.42164176       6.48298285      22.29208057        2      -0.00463094      -0.07819525      -0.02902693
Pt      -0.00000099       0.00000074      24.58874914        1       0.00000106      -0.00000447      -0.00018641
Pt       2.80454202       0.00668668      24.60592527        1       0.00698376      -0.01684026      -0.00246601
Pt       5.61907319       0.01090783      24.59462709        1       0.00539589       0.00066207       0.01184389
Pt       1.41072905       2.42164073      24.59462700        1      -0.00212262      -0.00500501       0.01184545
Pt       4.21081930       2.43111933      24.58900247        1       0.00000441      -0.00000161      -0.00093952
Pt       7.01357865       2.42546233      24.60592541        1       0.01108932       0.01446732      -0.00246604
Pt       2.81433940       4.86120813      24.60592625        1      -0.01807226       0.00237170      -0.00247422
Pt       5.60265789       4.86080815      24.59462725        1      -0.00327263       0.00434014       0.01184443
Pt       8.42164102       4.86223594      24.65974807        1      -0.00000069       0.00000201       0.03701681
N        8.42164342       4.86223433      26.72996970        0       0.00013003       0.00008917      -0.04318982
H        9.39438387       4.86551578      27.04813795        0      -0.00658736       0.00115809       0.00139785
H        7.93811630       4.01818021      27.04813804        0       0.00421436       0.00498451       0.00145614
H        7.93243534       5.70301251      27.04813332        0       0.00224166      -0.00622658       0.00143592
