31
Lattice="8.421641763931781 0.0 0.0 4.2108208819658905 7.293355709136913 0.0 0.0 0.0 44.584161137365626" Properties=species:S:1:pos:R:3:tags:I:1:forces:R:3 energy=-173.71585083007812 free_energy=-173.71585083007812 stress="0.010695378296077251 -2.604418369855921e-08 -5.509477318810241e-09 -2.604418369855921e-08 0.010695368982851505 -1.4030802297781975e-08 -5.509477318810241e-09 -1.4030802297781975e-08 5.396418055170216e-05" pbc="T T T"
Pt       1.40360696       0.81037286      20.00000000        3       0.00521429       0.00366299      -0.00904921
Pt       4.21082088       0.81037286      20.00000000        3       0.00041367       0.00292599      -0.00573379
Pt       7.01803480       0.81037286      20.00000000        3      -0.00578330       0.00268019      -0.00904980
Pt       2.80721392       3.24149143      20.00000000        3       0.00233095      -0.00182073      -0.00573543
Pt       5.61442784       3.24149143      20.00000000        3      -0.00274356      -0.00110753      -0.00573492
Pt       8.42164176       3.24149143      20.00000000        3      -0.00044729       0.00437525       0.01246858
Pt       4.21082088       5.67261000      20.00000000        3       0.00056997      -0.00634635      -0.00905022
Pt       7.01803480       5.67261000      20.00000000        3       0.00401025      -0.00179659       0.01246899
Pt       9.82524872       5.67261000      20.00000000        3      -0.00356499      -0.00257271       0.01246911
Pt       0.00000000       1.62074571      22.29208057        2       0.00117108       0.06463953       0.03390423
Pt       2.80721392       1.62074571      22.29208057        2      -0.01137211       0.00413749       0.00323648
Pt       5.61442784       1.62074571      22.29208057        2       0.00209905      -0.01191869       0.00323510
Pt       1.40360696       4.05186428      22.29208057        2      -0.06389605       0.03977200      -0.02262893
Pt       4.21082088       4.05186428      22.29208057        2       0.00927099       0.00777746       0.00323469
Pt       7.01803480       4.05186428      22.29208057        2       0.06639126       0.03545045      -0.02262943
Pt       2.80721392       6.48298285      22.29208057        2      -0.05656455      -0.03130848       0.03390195
Pt       5.61442784       6.48298285      22.29208057        2       0.05539584      -0.03332949       0.03390121
Pt       8.42164176       6.48298285      22.29208057        2      -0.00249602      -0.07522043      -0.02263138
Pt       0.00000021      -0.00000025      24.58918276        1       0.00000043       0.00000111      -0.00003061
Pt       2.79607701       0.01953145      24.60028297        1       0.01657356      -0.02171973      -0.01355305
Pt       5.61231297      -0.00204250      24.60570044        1      -0.00001415       0.00689722       0.00132807
Pt       1.40289579       2.43397105      24.60570062        1       0.00597990      -0.00343737       0.00132243
Pt       4.21082082       2.43111849      24.58864064        1       0.00000125       0.00000021       0.00205192
Pt       7.00668831       2.41170771      24.60028357        1       0.01052206       0.02521444      -0.01355235
Pt       2.82969707       4.86211623      24.60028337        1      -0.02709829      -0.00349367      -0.01355247
Pt       5.61725352       4.86142688      24.60570044        1      -0.00596311      -0.00346324       0.00132874
Pt       8.42164147       4.86223721      24.65961996        1       0.00000072       0.00000396       0.02952000
N        8.42164215       4.86223873      26.72769240        0      -0.00005312      -0.00016612       0.01213914
H        7.45124465       4.86344825      27.05203472        0      -0.02143614       0.00123058      -0.01453621
H        8.90788863       5.70201897      27.05203366        0       0.01184551       0.01807061      -0.01449269
H        8.90579131       4.02124241      27.05203389        0       0.00964198      -0.01913866      -0.01455024
