31
Lattice="8.421641763931781 0.0 0.0 4.2108208819658905 7.293355709136913 0.0 0.0 0.0 44.584161137365626" Properties=species:S:1:pos:R:3:tags:I:1:forces:R:3 energy=-172.5789794921875 free_energy=-172.5789794921875 stress="0.010473093017935753 -4.555011479112636e-09 9.326661221109589e-09 -4.555011479112636e-09 0.01047307625412941 8.39889224835133e-09 9.326661221109589e-09 8.39889224835133e-09 -0.00020023257820867002" pbc="T T T"
Pt       1.40360696       0.81037286      20.00000000        3       0.00000098      -0.00000238      -0.00540259
Pt       4.21082088       0.81037286      20.00000000        3      -0.00074435       0.00084718      -0.00204429
Pt       7.01803480       0.81037286      20.00000000        3       0.00079350       0.00067886      -0.00220048
Pt       2.80721392       3.24149143      20.00000000        3       0.00019262      -0.00103028      -0.00220114
Pt       5.61442784       3.24149143      20.00000000        3      -0.00000169      -0.00000005       0.00783741
Pt       8.42164176       3.24149143      20.00000000        3      -0.00036020      -0.00107006      -0.00204661
Pt       4.21082088       5.67261000      20.00000000        3       0.00111019       0.00022346      -0.00204489
Pt       7.01803480       5.67261000      20.00000000        3      -0.00099031       0.00035120      -0.00220156
Pt       9.82524872       5.67261000      20.00000000        3      -0.00000139       0.00000226      -0.00681728
Pt       0.00000000       1.62074571      22.29208057        2      -0.03240087       0.01846146      -0.02422013
Pt       2.80721392       1.62074571      22.29208057        2       0.03219185       0.01882873      -0.02422118
Pt       5.61442784       1.62074571      22.29208057        2      -0.00152947       0.04198284       0.02925860
Pt       1.40360696       4.05186428      22.29208057        2      -0.00078374      -0.01329055      -0.03097443
Pt       4.21082088       4.05186428      22.29208057        2       0.03712370      -0.01966856       0.02926154
Pt       7.01803480       4.05186428      22.29208057        2      -0.03559669      -0.02231273       0.02926247
Pt       2.80721392       6.48298285      22.29208057        2       0.01190466       0.00596557      -0.03097756
Pt       5.61442784       6.48298285      22.29208057        2       0.00020974      -0.03729289      -0.02422185
Pt       8.42164176       6.48298285      22.29208057        2      -0.01111791       0.00732653      -0.03097804
Pt       0.00192659       0.00033102      24.57723220        1      -0.00364913      -0.00612828      -0.00424245
Pt       2.80596394       0.00150253      24.57723227        1       0.00713260      -0.00009459      -0.00424287
Pt       5.61385813      -0.00636842      24.57875340        1      -0.00299102       0.01932344      -0.00732130
Pt       1.40293084       2.42928456      24.57723236        1      -0.00348311       0.00622411      -0.00424176
Pt       4.19613064       2.42546243      24.58945437        1       0.01929988       0.01753294       0.00628366
Pt       7.03027814       2.42122450      24.58945463        1      -0.02483378       0.00794725       0.00628427
Pt       2.80198369       4.86591454      24.57875359        1       0.01822971      -0.00707091      -0.00733149
Pt       5.61687452       4.87778747      24.58945442        1       0.00553272      -0.02548223       0.00628310
Pt       8.42744147       4.86492836      24.57875367        1      -0.01523839      -0.01225241      -0.00733116
N        5.61442839       3.24149195      27.59559737        0      -0.00006738      -0.00004738       0.00371858
H        6.08240190       4.06216549      27.19906569        0      -0.03359198      -0.00868702       0.03567082
H        6.09116554       2.42587674      27.19906538        0       0.00925295       0.03347839       0.03569300
H        4.66971560       3.23643170      27.19906531        0       0.02440640      -0.02474409       0.03570957
