31
Lattice="8.421641763931781 0.0 0.0 4.2108208819658905 7.293355709136913 0.0 0.0 0.0 44.584161137365626" Properties=species:S:1:pos:R:3:tags:I:1:forces:R:3 energy=-173.71286010742188 free_energy=-173.71286010742188 stress="0.01068934891372919 -1.9388345151583053e-08 -1.2767023882531703e-08 -1.9388345151583053e-08 0.010689346119761467 -4.788484053719344e-10 -1.2767023882531703e-08 -4.788484053719344e-10 -7.818451877028565e-07" pbc="T T T"
Pt       1.40360696       0.81037286      20.00000000        3       0.00540901       0.00312026      -0.00960845
Pt       4.21082088       0.81037286      20.00000000        3       0.00000199       0.00326116      -0.00671253
Pt       7.01803480       0.81037286      20.00000000        3      -0.00541041       0.00312073      -0.00960821
Pt       2.80721392       3.24149143      20.00000000        3       0.00282609      -0.00163197      -0.00671414
Pt       5.61442784       3.24149143      20.00000000        3      -0.00282766      -0.00163129      -0.00671318
Pt       8.42164176       3.24149143      20.00000000        3       0.00000122       0.00504168       0.01241863
Pt       4.21082088       5.67261000      20.00000000        3       0.00000193      -0.00624349      -0.00960875
Pt       7.01803480       5.67261000      20.00000000        3       0.00436355      -0.00251818       0.01241833
Pt       9.82524872       5.67261000      20.00000000        3      -0.00436696      -0.00251822       0.01241899
Pt       0.00000000       1.62074571      22.29208057        2       0.00000301       0.06238502       0.03128560
Pt       2.80721392       1.62074571      22.29208057        2      -0.00560618      -0.00323842      -0.00202123
Pt       5.61442784       1.62074571      22.29208057        2       0.00560608      -0.00323893      -0.00202144
Pt       1.40360696       4.05186428      22.29208057        2      -0.07025442       0.04056299      -0.02787482
Pt       4.21082088       4.05186428      22.29208057        2       0.00000304       0.00647532      -0.00202111
Pt       7.01803480       4.05186428      22.29208057        2       0.07025289       0.04056219      -0.02787699
Pt       2.80721392       6.48298285      22.29208057        2      -0.05402841      -0.03119224       0.03128589
Pt       5.61442784       6.48298285      22.29208057        2       0.05402794      -0.03119165       0.03128545
Pt       8.42164176       6.48298285      22.29208057        2       0.00000274      -0.08112170      -0.02787617
Pt       0.00000150       0.00000076      24.58984519        1       0.00000271      -0.00000323      -0.00326657
Pt       2.80433343       0.00911922      24.60032799        1      -0.00181567      -0.00594953       0.00255042
Pt       5.61731189       0.00911874      24.60032772        1       0.00180691      -0.00595175       0.00254938
Pt       1.41006426       2.42406369      24.60032814        1      -0.00606030       0.00140418       0.00255039
Pt       4.21082233       2.43111947      24.58937974        1      -0.00000000      -0.00000224      -0.00329071
Pt       7.01158034       2.42406300      24.60032827        1       0.00605472       0.00140532       0.00255129
Pt       2.81655299       4.86017482      24.60032779        1      -0.00424819       0.00454512       0.00255014
Pt       5.60509047       4.86017493      24.60032833        1       0.00424206       0.00454348       0.00255039
Pt       8.42164076       4.86223643      24.66258301        1       0.00000487      -0.00000011       0.01705420
N        8.42163801       4.86223476      26.73160202        0      -0.00008717       0.00000508      -0.00473535
H        8.42163877       3.89043366      27.05269751        0       0.00000076       0.01830041      -0.00451285
H        7.58003219       5.34813699      27.05269732        0       0.01589891      -0.00917680      -0.00452970
H        9.26324318       5.34813560      27.05268984        0      -0.01580514      -0.00912330      -0.00447678
