31
Lattice="8.421641763931781 0.0 0.0 4.2108208819658905 7.293355709136913 0.0 0.0 0.0 44.584161137365626" Properties=species:S:1:pos:R:3:tags:I:1:forces:R:3 energy=-172.80453491210938 free_energy=-172.80453491210938 stress="0.010308987461030483 5.060556973468522e-10 4.2443382142209884e-10 5.060556973468522e-10 0.01030899677425623 3.3250717734745194e-09 4.2443382142209884e-10 3.3250717734745194e-09 -2.459160896250978e-05" pbc="T T T"
Pt       1.40360696       0.81037286      20.00000000        3       0.00144640       0.00135413      -0.00842530
Pt       4.21082088       0.81037286      20.00000000        3      -0.00189529       0.00057189      -0.00842389
Pt       7.01803480       0.81037286      20.00000000        3      -0.00024741       0.00310546      -0.00555584
Pt       2.80721392       3.24149143      20.00000000        3       0.00045256      -0.00193023      -0.00842634
Pt       5.61442784       3.24149143      20.00000000        3       0.00007410      -0.00009954       0.01854926
Pt       8.42164176       3.24149143      20.00000000        3       0.00004932       0.00011578       0.01854727
Pt       4.21082088       5.67261000      20.00000000        3       0.00281533      -0.00134035      -0.00555533
Pt       7.01803480       5.67261000      20.00000000        3      -0.00012594      -0.00001377       0.01854771
Pt       9.82524872       5.67261000      20.00000000        3      -0.00256957      -0.00176303      -0.00555578
Pt       0.00000000       1.62074571      22.29208057        2      -0.10750602       0.10099760       0.00855613
Pt       2.80721392       1.62074571      22.29208057        2       0.00000314      -0.00000121      -0.10861684
Pt       5.61442784       1.62074571      22.29208057        2       0.11438043       0.09612421       0.00601347
Pt       1.40360696       4.05186428      22.29208057        2      -0.14043437       0.05099525       0.00601292
Pt       4.21082088       4.05186428      22.29208057        2       0.14122580       0.04260151       0.00855641
Pt       7.01803480       4.05186428      22.29208057        2      -0.00000547      -0.00000165       0.08441640
Pt       2.80721392       6.48298285      22.29208057        2       0.00000067       0.00000167      -0.08294459
Pt       5.61442784       6.48298285      22.29208057        2       0.02605131      -0.14712062       0.00601208
Pt       8.42164176       6.48298285      22.29208057        2      -0.03371380      -0.14359660       0.00855259
Pt      -0.00295059       0.00120935      24.55878817        1       0.01113075      -0.00656100       0.02387089
Pt       2.79764674       0.01234159      24.57146209        1       0.02428286      -0.01653060      -0.01096128
Pt       5.61485595      -0.00315899      24.55878880        1       0.00011762       0.01291263       0.02387051
Pt       1.41908035       2.43323130      24.57146255        1      -0.02646286      -0.01275784      -0.01096042
Pt       4.20491543       2.41666142      24.57146397        1       0.00217681       0.02929585      -0.01096955
Pt       7.02433774       2.40983122      24.61359276        1      -0.01066262       0.00381337       0.00527106
Pt       2.80973729       4.86418706      24.55878868        1      -0.01125008      -0.00635630       0.02387223
Pt       5.59284082       4.86742233      24.61359234        1       0.00863524       0.00732998       0.00526975
Pt       8.43692564       4.87833972      24.61359085        1       0.00202895      -0.01114754       0.00528747
N        7.01803426       4.05186424      26.95093434        0      -0.00000918      -0.00001816      -0.01177490
H        6.16006962       4.45691253      26.52766768        0       0.01725107       0.00300480       0.00232523
H        7.79779984       4.59236016      26.52767093        0      -0.00601727      -0.01643118       0.00230929
H        7.09623580       3.10632044      26.52766837        0      -0.01122251       0.01344541       0.00232971
