31
Lattice="8.421641763931781 0.0 0.0 4.2108208819658905 7.293355709136913 0.0 0.0 0.0 44.584161137365626" Properties=species:S:1:pos:R:3:tags:I:1:forces:R:3 energy=-172.8047332763672 free_energy=-172.8047332763672 stress="0.010281560942530632 1.0164646013777201e-08 -6.448129141745085e-09 1.0164646013777201e-08 0.010281571187078953 -1.9330783640469917e-09 -6.448129141745085e-09 -1.9330783640469917e-09 -4.773862019646913e-05" pbc="T T T"
Pt       1.40360696       0.81037286      20.00000000        3       0.00132750       0.00095570      -0.01031372
Pt       4.21082088       0.81037286      20.00000000        3      -0.00149037       0.00066803      -0.01031399
Pt       7.01803480       0.81037286      20.00000000        3       0.00020482       0.00323946      -0.00451568
Pt       2.80721392       3.24149143      20.00000000        3       0.00016699      -0.00162824      -0.01031449
Pt       5.61442784       3.24149143      20.00000000        3       0.00074575       0.00003599       0.01848707
Pt       8.42164176       3.24149143      20.00000000        3      -0.00040326       0.00063024       0.01848689
Pt       4.21082088       5.67261000      20.00000000        3       0.00270583      -0.00179869      -0.00451547
Pt       7.01803480       5.67261000      20.00000000        3      -0.00034492      -0.00066281       0.01848739
Pt       9.82524872       5.67261000      20.00000000        3      -0.00291161      -0.00143916      -0.00451538
Pt       0.00000000       1.62074571      22.29208057        2      -0.11674075       0.09305874       0.00280067
Pt       2.80721392       1.62074571      22.29208057        2       0.00000041      -0.00000144      -0.11628346
Pt       5.61442784       1.62074571      22.29208057        2       0.12136960       0.09936137      -0.00060494
Pt       1.40360696       4.05186428      22.29208057        2      -0.14673844       0.05543029      -0.00060103
Pt       4.21082088       4.05186428      22.29208057        2       0.13896604       0.05457150       0.00279924
Pt       7.01803480       4.05186428      22.29208057        2      -0.00000100       0.00000084       0.08544348
Pt       2.80721392       6.48298285      22.29208057        2      -0.00000061       0.00000095      -0.07491705
Pt       5.61442784       6.48298285      22.29208057        2       0.02536415      -0.15479186      -0.00060444
Pt       8.42164176       6.48298285      22.29208057        2      -0.02222051      -0.14763217       0.00280017
Pt       0.00335429      -0.00542428      24.55894049        1      -0.02346149       0.01269338       0.02314670
Pt       2.80711698       0.00952775      24.56700372        1       0.00317127       0.00687173       0.01097000
Pt       5.61744747       0.00561609      24.55894109        1       0.00074057      -0.02666762       0.02314733
Pt       1.41190752       2.42643868      24.56700269        1       0.00436294      -0.00618262       0.01097038
Pt       4.20261858       2.42627011      24.56700371        1      -0.00753954      -0.00068635       0.01096994
Pt       7.02482313       2.41007957      24.61569789        1      -0.01994315       0.00551407       0.00411300
Pt       2.80083945       4.86204443      24.55894146        1       0.02272219       0.01397130       0.02314852
Pt       5.59281351       4.86687697      24.61569842        1       0.01474501       0.01451494       0.00411209
Pt       8.43646648       4.87863501      24.61570035        1       0.00520004      -0.02002882       0.00411216
N        7.01803419       4.05186328      26.95926710        0       0.00002965       0.00000275       0.01778436
H        7.87048911       4.46869824      26.53936889        0       0.00413147       0.01336536      -0.01475650
H        6.95279624       3.10520085      26.53936364        0       0.00952011      -0.01027052      -0.01475955
H        6.23082162       4.58169427      26.53936458        0      -0.01367866      -0.00309633      -0.01476393
