31
Lattice="8.421641763931781 0.0 0.0 4.2108208819658905 7.293355709136913 0.0 0.0 0.0 44.584161137365626" Properties=species:S:1:pos:R:3:tags:I:1:forces:R:3 energy=-173.7161865234375 free_energy=-173.7161865234375 stress="0.010666674003005028 1.594347587285938e-08 -2.282964217670269e-08 1.594347587285938e-08 0.010666724294424057 -6.53655307658596e-09 -2.282964217670269e-08 -6.53655307658596e-09 -1.7987192677537678e-06" pbc="T T T"
Pt       1.40360696       0.81037286      20.00000000        3       0.00569530       0.00250917      -0.00957432
Pt       4.21082088       0.81037286      20.00000000        3      -0.00066586       0.00312338      -0.00628313
Pt       7.01803480       0.81037286      20.00000000        3      -0.00502496       0.00367418      -0.00957483
Pt       2.80721392       3.24149143      20.00000000        3       0.00304114      -0.00098396      -0.00628713
Pt       5.61442784       3.24149143      20.00000000        3      -0.00237394      -0.00214162      -0.00628486
Pt       8.42164176       3.24149143      20.00000000        3      -0.00053851       0.00469386       0.01201934
Pt       4.21082088       5.67261000      20.00000000        3      -0.00067033      -0.00618604      -0.00957558
Pt       7.01803480       5.67261000      20.00000000        3       0.00433173      -0.00187654       0.01201916
Pt       9.82524872       5.67261000      20.00000000        3      -0.00379573      -0.00281109       0.01201969
Pt       0.00000000       1.62074571      22.29208057        2      -0.00611636       0.06274515       0.02847337
Pt       2.80721392       1.62074571      22.29208057        2      -0.00095452      -0.01032745      -0.00398262
Pt       5.61442784       1.62074571      22.29208057        2       0.00941657       0.00433324      -0.00398171
Pt       1.40360696       4.05186428      22.29208057        2      -0.06540611       0.04311264      -0.02902690
Pt       4.21082088       4.05186428      22.29208057        2      -0.00845856       0.00598773      -0.00398400
Pt       7.01803480       4.05186428      22.29208057        2       0.07003663       0.03508604      -0.02902642
Pt       2.80721392       6.48298285      22.29208057        2      -0.05128005      -0.03666960       0.02847071
Pt       5.61442784       6.48298285      22.29208057        2       0.05740070      -0.02607290       0.02847252
Pt       8.42164176       6.48298285      22.29208057        2      -0.00463404      -0.07819545      -0.02902631
Pt       0.00000152      -0.00000016      24.58874926        1       0.00000029      -0.00000103      -0.00018737
Pt       2.80454404       0.00668763      24.60592595        1       0.00698249      -0.01684982      -0.00247519
Pt       5.61907597       0.01090775      24.59462587        1       0.00539195       0.00065529       0.01185447
Pt       1.41073169       2.42164062      24.59462624        1      -0.00213315      -0.00500214       0.01185422
Pt       4.21082181       2.43111853      24.58900212        1       0.00000345      -0.00000022      -0.00093964
Pt       7.01358039       2.42546075      24.60592571        1       0.01109286       0.01447088      -0.00247565
Pt       2.81434116       4.86120709      24.60592492        1      -0.01808135       0.00237488      -0.00246650
Pt       5.60265789       4.86080703      24.59462614        1      -0.00326571       0.00434627       0.01185429
Pt       8.42163997       4.86223623      24.65974830        1      -0.00000109       0.00000771       0.03701365
N        8.42163973       4.86223821      26.72996992        0      -0.00015236      -0.00009051      -0.04322910
H        7.93243010       5.70301319      27.04813708        0       0.00224220      -0.00619136       0.00143413
H        9.39437681       4.86551723      27.04812845        0      -0.00638437       0.00116560       0.00148998
H        7.93811028       4.01818080      27.04813813        0       0.00430176       0.00511372       0.00140573
