31
Lattice="8.421641763931781 0.0 0.0 4.2108208819658905 7.293355709136913 0.0 0.0 0.0 44.584161137365626" Properties=species:S:1:pos:R:3:tags:I:1:forces:R:3 energy=-172.64569091796875 free_energy=-172.64569091796875 stress="0.010564301162958145 2.244941121887223e-09 -3.310840934744874e-09 2.244941121887223e-09 0.010564290918409824 4.9367638865760455e-09 -3.310840934744874e-09 4.9367638865760455e-09 0.00012951249664183706" pbc="T T T"
Pt       1.40360696       0.81037286      20.00000000        3       0.00160743       0.00092585       0.00035676
Pt       4.21082088       0.81037286      20.00000000        3      -0.00160492       0.00092610       0.00035676
Pt       7.01803480       0.81037286      20.00000000        3      -0.00000177       0.00392975       0.00387070
Pt       2.80721392       3.24149143      20.00000000        3       0.00000043      -0.00185613       0.00035590
Pt       5.61442784       3.24149143      20.00000000        3       0.00078657       0.00045546       0.03163373
Pt       8.42164176       3.24149143      20.00000000        3      -0.00078690       0.00045556       0.03163251
Pt       4.21082088       5.67261000      20.00000000        3       0.00340703      -0.00196454       0.00387129
Pt       7.01803480       5.67261000      20.00000000        3      -0.00000263      -0.00090809       0.03163323
Pt       9.82524872       5.67261000      20.00000000        3      -0.00340604      -0.00196342       0.00386998
Pt       0.00000000       1.62074571      22.29208057        2      -0.08638637       0.08268755       0.00364369
Pt       2.80721392       1.62074571      22.29208057        2       0.00000086      -0.00000186      -0.05205430
Pt       5.61442784       1.62074571      22.29208057        2       0.08638550       0.08268810       0.00364401
Pt       1.40360696       4.05186428      22.29208057        2      -0.11480423       0.03346903       0.00364450
Pt       4.21082088       4.05186428      22.29208057        2       0.11480781       0.03346872       0.00364330
Pt       7.01803480       4.05186428      22.29208057        2      -0.00000292       0.00000003       0.03507156
Pt       2.80721392       6.48298285      22.29208057        2      -0.00000017       0.00000136      -0.05437899
Pt       5.61442784       6.48298285      22.29208057        2       0.02841616      -0.11615768       0.00364194
Pt       8.42164176       6.48298285      22.29208057        2      -0.02841650      -0.11615524       0.00364348
Pt      -0.00256080      -0.00147893      24.56614486        1       0.00538303       0.00310990      -0.00713718
Pt       2.80721372       0.00400334      24.58142007        1       0.00000301       0.01597984      -0.00494826
Pt       5.61698895      -0.00147881      24.56614488        1      -0.00538623       0.00310816      -0.00713816
Pt       1.40707464       2.42911611      24.58142001        1       0.01383801      -0.00798826      -0.00494757
Pt       4.20735328       2.42911669      24.58142017        1      -0.01383587      -0.00799156      -0.00494745
Pt       7.01803477       2.40793817      24.63180158        1      -0.00000155       0.01428922      -0.00863466
Pt       2.80721430       4.86519426      24.56614488        1      -0.00000226      -0.00621726      -0.00713685
Pt       5.59435306       4.87382750      24.63180121        1       0.01237613      -0.00714718      -0.00863522
Pt       8.44171588       4.87382705      24.63180153        1      -0.01237272      -0.00714300      -0.00863631
N        7.01803427       4.05186441      26.88132007        0       0.00001673      -0.00002064       0.03624515
H        7.81354935       3.59257449      26.36859659        0       0.00272919      -0.00158421      -0.01071298
H        6.22252030       3.59257378      26.36859659        0      -0.00273791      -0.00157869      -0.01072359
H        7.01803569       4.97044475      26.36859671        0      -0.00000892       0.00318325      -0.01072752
