31
Lattice="8.421641763931781 0.0 0.0 4.2108208819658905 7.293355709136913 0.0 0.0 0.0 44.584161137365626" Properties=species:S:1:pos:R:3:tags:I:1:forces:R:3 energy=-172.8042755126953 free_energy=-172.8042755126953 stress="0.01028789859265089 9.985077209506699e-10 -1.8705015314424145e-09 9.985077209506699e-10 0.010287903249263763 3.4083940114726374e-09 -1.8705015314424145e-09 3.4083940114726374e-09 2.575505459390115e-05" pbc="T T T"
Pt       1.40360696       0.81037286      20.00000000        3       0.00000045      -0.00000256      -0.01219195
Pt       4.21082088       0.81037286      20.00000000        3      -0.00197822       0.00239090       0.00095394
Pt       7.01803480       0.81037286      20.00000000        3       0.00218451       0.00302542       0.00097537
Pt       2.80721392       3.24149143      20.00000000        3       0.00152883      -0.00340726       0.00097510
Pt       5.61442784       3.24149143      20.00000000        3      -0.00000170       0.00000014       0.03240582
Pt       8.42164176       3.24149143      20.00000000        3      -0.00108064      -0.00291097       0.00095135
Pt       4.21082088       5.67261000      20.00000000        3       0.00306488       0.00052005       0.00095251
Pt       7.01803480       5.67261000      20.00000000        3      -0.00371736       0.00038217       0.00097618
Pt       9.82524872       5.67261000      20.00000000        3      -0.00000121       0.00000214      -0.01433042
Pt       0.00000000       1.62074571      22.29208057        2      -0.14873138       0.08593523       0.01205125
Pt       2.80721392       1.62074571      22.29208057        2       0.14879036       0.08583413       0.01205361
Pt       5.61442784       1.62074571      22.29208057        2       0.00260965       0.12159234       0.04921288
Pt       1.40360696       4.05186428      22.29208057        2      -0.00523634      -0.02981875      -0.07348274
Pt       4.21082088       4.05186428      22.29208057        2       0.10399988      -0.06305950       0.04921416
Pt       7.01803480       4.05186428      22.29208057        2      -0.10660996      -0.05853243       0.04921721
Pt       2.80721392       6.48298285      22.29208057        2       0.02844267       0.01037689      -0.07348688
Pt       5.61442784       6.48298285      22.29208057        2      -0.00005604      -0.17177333       0.01205151
Pt       8.42164176       6.48298285      22.29208057        2      -0.02320810       0.01944575      -0.07348233
Pt       0.00528413       0.00130377      24.56071288        1      -0.02640878      -0.00284228       0.02084026
Pt       2.80344195       0.00392330      24.56071415        1       0.01567069      -0.02144728       0.02082928
Pt       5.62303493      -0.01200235      24.56953611        1      -0.02004855       0.02604897      -0.00906171
Pt       1.40209407       2.42588998      24.56071322        1       0.01074431       0.02429325       0.02084039
Pt       4.18914734       2.41046033      24.61256642        1       0.01474772       0.02396575       0.01038707
Pt       7.04676185       2.42267766      24.61256653        1      -0.02812912       0.00079132       0.01038773
Pt       2.79251645       4.86078420      24.56953712        1       0.03258163       0.00433562      -0.00906184
Pt       5.60737470       4.89133576      24.61256550        1       0.01338107      -0.02475655       0.01038409
Pt       8.42773306       4.87569267      24.56953831        1      -0.01253933      -0.03038817      -0.00907148
N        5.61442789       3.24149205      26.94051412        0       0.00000321      -0.00001093      -0.04886487
H        4.83888302       2.69237221      26.52021851        0       0.01085956       0.02135733       0.00245797
H        5.52664940       4.18769276      26.52021682        0       0.01306655      -0.02007826       0.00245780
H        6.47775172       2.84440874      26.52021695        0      -0.02392900      -0.00126921       0.00245872
