31
Lattice="8.421641763931781 0.0 0.0 4.2108208819658905 7.293355709136913 0.0 0.0 0.0 44.584161137365626" Properties=species:S:1:pos:R:3:tags:I:1:forces:R:3 energy=-172.575439453125 free_energy=-172.575439453125 stress="0.010469968430697918 9.680628210162467e-08 -1.2794168469554279e-05 9.680628210162467e-08 0.010570444166660309 -1.043584802573605e-06 -1.2794168469554279e-05 -1.043584802573605e-06 -0.00012014250387437642" pbc="T T T"
Pt       1.40360696       0.81037286      20.00000000        3       0.00098795       0.00061720      -0.00410980
Pt       4.21082088       0.81037286      20.00000000        3      -0.00093471       0.00073885      -0.00392559
Pt       7.01803480       0.81037286      20.00000000        3      -0.00002347       0.00035920      -0.00613022
Pt       2.80721392       3.24149143      20.00000000        3       0.00002825      -0.00077773      -0.00524279
Pt       5.61442784       3.24149143      20.00000000        3      -0.00053035       0.00021894       0.00005823
Pt       8.42164176       3.24149143      20.00000000        3       0.00041687       0.00095472       0.00243255
Pt       4.21082088       5.67261000      20.00000000        3       0.00040817      -0.00049182      -0.00394022
Pt       7.01803480       5.67261000      20.00000000        3       0.00055316      -0.00071329       0.00689483
Pt       9.82524872       5.67261000      20.00000000        3      -0.00087230      -0.00085890      -0.00139165
Pt       0.00000000       1.62074571      22.29208057        2      -0.00319408       0.02480723      -0.02192357
Pt       2.80721392       1.62074571      22.29208057        2       0.00002316      -0.01154295      -0.04594835
Pt       5.61442784       1.62074571      22.29208057        2       0.00206434       0.01968222      -0.02391714
Pt       1.40360696       4.05186428      22.29208057        2      -0.05323768       0.02312248       0.00318554
Pt       4.21082088       4.05186428      22.29208057        2       0.03941985       0.01502823      -0.00911053
Pt       7.01803480       4.05186428      22.29208057        2       0.01415615       0.03304771       0.04391010
Pt       2.80721392       6.48298285      22.29208057        2      -0.00405415      -0.01219975      -0.02985575
Pt       5.61442784       6.48298285      22.29208057        2       0.02242362      -0.03906929       0.01556585
Pt       8.42164176       6.48298285      22.29208057        2      -0.01937484      -0.05234406       0.02674817
Pt      -0.00481148       0.00379636      24.57851480        1       0.00677429      -0.00102926      -0.00741145
Pt       2.80646369       0.00922654      24.58337327        1      -0.00087509      -0.03398491       0.00005092
Pt       5.61847426       0.00368560      24.57862968        1      -0.01120179      -0.00318190      -0.00653565
Pt       1.40798774       2.42732739      24.57886123        1      -0.00970239       0.00266842      -0.00327376
Pt       4.20570920       2.42715749      24.57873339        1       0.00641599       0.00014727      -0.00410196
Pt       7.01741714       2.42255869      24.58331978        1      -0.00138188       0.03314542      -0.00194642
Pt       2.80787507       4.86219321      24.57622534        1      -0.00035476      -0.00012317      -0.00779402
Pt       5.59999592       4.86180183      24.58785881        1       0.01518232      -0.00015928       0.00253595
Pt       8.43693483       4.86173753      24.59781700        1      -0.01189554       0.00036684       0.02197438
N        7.01847033       4.86233499      27.58833499        0       0.02071530       0.00041224      -0.00558388
H        7.96379270       4.86226159      27.19136928        0      -0.01932546      -0.00015685      -0.00837744
H        6.54556084       4.04099118      27.20180065        0       0.00345952       0.02411376       0.03898005
H        6.54575574       5.68364388      27.20167748        0       0.00392944      -0.02279742       0.03818334
