31
Lattice="8.421641763931781 0.0 0.0 4.2108208819658905 7.293355709136913 0.0 0.0 0.0 44.584161137365626" Properties=species:S:1:pos:R:3:tags:I:1:forces:R:3 energy=-173.7103729248047 free_energy=-173.7103729248047 stress="0.010685747489333153 -1.2498727386400788e-08 9.087236740867866e-09 -1.2498727386400788e-08 0.010685778222978115 7.21401471892591e-09 9.087236740867866e-09 7.21401471892591e-09 -2.5596020350349136e-05" pbc="T T T"
Pt       1.40360696       0.81037286      20.00000000        3       0.00527592       0.00304325      -0.00951138
Pt       4.21082088       0.81037286      20.00000000        3       0.00000237       0.00302156      -0.00632277
Pt       7.01803480       0.81037286      20.00000000        3      -0.00527734       0.00304395      -0.00951141
Pt       2.80721392       3.24149143      20.00000000        3       0.00261874      -0.00151200      -0.00632402
Pt       5.61442784       3.24149143      20.00000000        3      -0.00261962      -0.00151162      -0.00632358
Pt       8.42164176       3.24149143      20.00000000        3       0.00000137       0.00468076       0.01230526
Pt       4.21082088       5.67261000      20.00000000        3       0.00000208      -0.00608952      -0.00951120
Pt       7.01803480       5.67261000      20.00000000        3       0.00405118      -0.00233804       0.01230639
Pt       9.82524872       5.67261000      20.00000000        3      -0.00405455      -0.00233750       0.01230690
Pt       0.00000000       1.62074571      22.29208057        2       0.00000257       0.06250388       0.02824583
Pt       2.80721392       1.62074571      22.29208057        2      -0.00624213      -0.00360575      -0.00248422
Pt       5.61442784       1.62074571      22.29208057        2       0.00624195      -0.00360625      -0.00248493
Pt       1.40360696       4.05186428      22.29208057        2      -0.06798604       0.03925290      -0.02954901
Pt       4.21082088       4.05186428      22.29208057        2       0.00000214       0.00720897      -0.00248325
Pt       7.01803480       4.05186428      22.29208057        2       0.06798439       0.03925198      -0.02955011
Pt       2.80721392       6.48298285      22.29208057        2      -0.05413128      -0.03125278       0.02824370
Pt       5.61442784       6.48298285      22.29208057        2       0.05413083      -0.03125212       0.02824372
Pt       8.42164176       6.48298285      22.29208057        2       0.00000227      -0.07850188      -0.02955178
Pt       0.00000103      -0.00000054      24.58827055        1       0.00000133       0.00000231       0.00225124
Pt       2.80357143       0.00773638      24.60075707        1      -0.00520117      -0.00075819       0.00138393
Pt       5.61807261       0.00773585      24.60075702        1       0.00519588      -0.00075852       0.00138409
Pt       1.40848619       2.42409515      24.60075722        1      -0.00326040      -0.00412276       0.00138332
Pt       4.21082151       2.43111794      24.58864835        1       0.00000070       0.00000431       0.00346196
Pt       7.01315751       2.42409477      24.60075728        1       0.00325656      -0.00412090       0.00138515
Pt       2.81573577       4.86152468      24.60075726        1       0.00194326       0.00487832       0.00138363
Pt       5.60590706       4.86152454      24.60075732        1      -0.00194571       0.00487835       0.00138398
Pt       8.42164129       4.86223729      24.66181269        1      -0.00000220      -0.00000387       0.00859034
N        8.42163727       4.86223709      26.72938766        0       0.00009164       0.00006454       0.01153564
H        8.42163956       5.83354594      27.05155676        0      -0.00000360      -0.01064508      -0.00407503
H        9.26281689       4.37658320      27.05155511        0      -0.00919853       0.00531215      -0.00406535
H        7.58046272       4.37658324      27.05155881        0       0.00911735       0.00526953      -0.00404704
