31
Lattice="8.421641763931781 0.0 0.0 4.2108208819658905 7.293355709136913 0.0 0.0 0.0 44.584161137365626" Properties=species:S:1:pos:R:3:tags:I:1:forces:R:3 energy=-172.575439453125 free_energy=-172.575439453125 stress="0.010469973087310791 9.200351058780143e-08 -1.2791377230314538e-05 9.200351058780143e-08 0.010570448823273182 -1.0451193475091713e-06 -1.2791377230314538e-05 -1.0451193475091713e-06 -0.00012014006642857566" pbc="T T T"
Pt       1.40360696       0.81037286      20.00000000        3       0.00098809       0.00061707      -0.00410983
Pt       4.21082088       0.81037286      20.00000000        3      -0.00093486       0.00073842      -0.00392577
Pt       7.01803480       0.81037286      20.00000000        3      -0.00002359       0.00035912      -0.00613007
Pt       2.80721392       3.24149143      20.00000000        3       0.00002805      -0.00077751      -0.00524235
Pt       5.61442784       3.24149143      20.00000000        3      -0.00053011       0.00021902       0.00005803
Pt       8.42164176       3.24149143      20.00000000        3       0.00041678       0.00095457       0.00243196
Pt       4.21082088       5.67261000      20.00000000        3       0.00040807      -0.00049159      -0.00393972
Pt       7.01803480       5.67261000      20.00000000        3       0.00055317      -0.00071316       0.00689501
Pt       9.82524872       5.67261000      20.00000000        3      -0.00087204      -0.00085847      -0.00139168
Pt       0.00000000       1.62074571      22.29208057        2      -0.00319419       0.02480710      -0.02192377
Pt       2.80721392       1.62074571      22.29208057        2       0.00002353      -0.01154288      -0.04594741
Pt       5.61442784       1.62074571      22.29208057        2       0.00206458       0.01968112      -0.02391716
Pt       1.40360696       4.05186428      22.29208057        2      -0.05323768       0.02312217       0.00318524
Pt       4.21082088       4.05186428      22.29208057        2       0.03941954       0.01502891      -0.00911042
Pt       7.01803480       4.05186428      22.29208057        2       0.01415675       0.03304773       0.04390978
Pt       2.80721392       6.48298285      22.29208057        2      -0.00405477      -0.01219944      -0.02985567
Pt       5.61442784       6.48298285      22.29208057        2       0.02242382      -0.03906918       0.01556522
Pt       8.42164176       6.48298285      22.29208057        2      -0.01937479      -0.05234390       0.02674776
Pt      -0.00481132       0.00379626      24.57851504        1       0.00677310      -0.00102845      -0.00741056
Pt       2.80646375       0.00922632      24.58337334        1      -0.00087505      -0.03398260       0.00005040
Pt       5.61847411       0.00368547      24.57862994        1      -0.01119940      -0.00318053      -0.00653636
Pt       1.40798760       2.42732762      24.57886142        1      -0.00970171       0.00266707      -0.00327379
Pt       4.20570935       2.42715762      24.57873365        1       0.00641372       0.00014596      -0.00410134
Pt       7.01741715       2.42255892      24.58331987        1      -0.00138180       0.03314448      -0.00194623
Pt       2.80787495       4.86219315      24.57622574        1      -0.00035182      -0.00012389      -0.00779369
Pt       5.59999648       4.86180180      24.58785870        1       0.01517973      -0.00015999       0.00253692
Pt       8.43693434       4.86173754      24.59781633        1      -0.01189603       0.00036615       0.02197416
N        7.01847020       4.86233488      27.58833507        0       0.02068765       0.00042439      -0.00560400
H        6.54575547       5.68364426      27.20167703        0       0.00394761      -0.02282770       0.03819584
H        7.96379284       4.86226155      27.19136930        0      -0.01932548      -0.00015575      -0.00837857
H        6.54556076       4.04099104      27.20180012        0       0.00346925       0.02413176       0.03898791
