31
Lattice="8.421641763931781 0.0 0.0 4.2108208819658905 7.293355709136913 0.0 0.0 0.0 44.584161137365626" Properties=species:S:1:pos:R:3:tags:I:1:forces:R:3 energy=-173.7102813720703 free_energy=-173.7102813720703 stress="0.01071227714419365 -2.068930626819565e-08 1.4189965646949076e-08 -2.068930626819565e-08 0.01071231160312891 8.503640458457085e-09 1.4189965646949076e-08 8.503640458457085e-09 4.4405710468709e-06" pbc="T T T"
Pt       1.40360696       0.81037286      20.00000000        3       0.00529911       0.00305642      -0.00948271
Pt       4.21082088       0.81037286      20.00000000        3       0.00000203       0.00307776      -0.00639117
Pt       7.01803480       0.81037286      20.00000000        3      -0.00530066       0.00305774      -0.00948352
Pt       2.80721392       3.24149143      20.00000000        3       0.00266746      -0.00154000      -0.00639218
Pt       5.61442784       3.24149143      20.00000000        3      -0.00266912      -0.00153955      -0.00639224
Pt       8.42164176       3.24149143      20.00000000        3       0.00000148       0.00475516       0.01275074
Pt       4.21082088       5.67261000      20.00000000        3       0.00000275      -0.00611671      -0.00948402
Pt       7.01803480       5.67261000      20.00000000        3       0.00411540      -0.00237491       0.01275113
Pt       9.82524872       5.67261000      20.00000000        3      -0.00411928      -0.00237521       0.01275092
Pt       0.00000000       1.62074571      22.29208057        2       0.00000217       0.06343797       0.03027466
Pt       2.80721392       1.62074571      22.29208057        2      -0.00684196      -0.00395260      -0.00154174
Pt       5.61442784       1.62074571      22.29208057        2       0.00684087      -0.00395231      -0.00154307
Pt       1.40360696       4.05186428      22.29208057        2      -0.07011885       0.04048353      -0.02523228
Pt       4.21082088       4.05186428      22.29208057        2       0.00000199       0.00790061      -0.00154262
Pt       7.01803480       4.05186428      22.29208057        2       0.07011696       0.04048373      -0.02523232
Pt       2.80721392       6.48298285      22.29208057        2      -0.05494048      -0.03171845       0.03027375
Pt       5.61442784       6.48298285      22.29208057        2       0.05494004      -0.03171873       0.03027329
Pt       8.42164176       6.48298285      22.29208057        2       0.00000065      -0.08096402      -0.02523316
Pt       0.00000031      -0.00000021      24.58850399        1      -0.00000087      -0.00000047       0.00131384
Pt       2.80355191       0.00802501      24.60119110        1      -0.00458914      -0.00414443      -0.00084955
Pt       5.61808988       0.00802489      24.60119137        1       0.00458940      -0.00414429      -0.00084864
Pt       1.40872591       2.42393440      24.60119134        1      -0.00588187      -0.00190340      -0.00084868
Pt       4.21082112       2.43111861      24.58865139        1      -0.00000197      -0.00000170       0.00399354
Pt       7.01291584       2.42393433      24.60119117        1       0.00588388      -0.00190261      -0.00084804
Pt       2.81599493       4.86139617      24.60119115        1      -0.00129511       0.00604533      -0.00084764
Pt       5.60564661       4.86139583      24.60119116        1       0.00129473       0.00604858      -0.00084887
Pt       8.42164128       4.86223720      24.66375286        1      -0.00000172       0.00000068       0.01510748
N        8.42164073       4.86223650      26.73316179        0       0.00013503       0.00006081      -0.02631503
H        7.57927097       4.37589418      27.05193652        0       0.02548911       0.01471574       0.00331824
H        8.42164170       5.83492469      27.05193626        0      -0.00000212      -0.02956370       0.00327712
H        9.26401427       4.37589331      27.05193661        0      -0.02561995       0.01478872       0.00327238
