31
Lattice="8.421641763931781 0.0 0.0 4.2108208819658905 7.293355709136913 0.0 0.0 0.0 44.584161137365626" Properties=species:S:1:pos:R:3:tags:I:1:forces:R:3 energy=-172.8089599609375 free_energy=-172.8089599609375 stress="0.010300860740244389 -8.371581650123971e-09 -5.673422620589008e-09 -8.371581650123971e-09 0.010233004577457905 -1.4006343462824589e-06 -5.673422620589008e-09 -1.4006343462824589e-06 -5.044635599915637e-06" pbc="T T T"
Pt       1.40360696       0.81037286      20.00000000        3       0.00266478       0.00147178      -0.00206915
Pt       4.21082088       0.81037286      20.00000000        3      -0.00266177       0.00147287      -0.00206816
Pt       7.01803480       0.81037286      20.00000000        3      -0.00000226       0.00014663      -0.01603672
Pt       2.80721392       3.24149143      20.00000000        3       0.00000090      -0.00011509      -0.00897032
Pt       5.61442784       3.24149143      20.00000000        3      -0.00243366       0.00340613       0.00406411
Pt       8.42164176       3.24149143      20.00000000        3       0.00243267       0.00340683       0.00406286
Pt       4.21082088       5.67261000      20.00000000        3       0.00232865      -0.00312571       0.00241029
Pt       7.01803480       5.67261000      20.00000000        3      -0.00000262      -0.00120684       0.03430566
Pt       9.82524872       5.67261000      20.00000000        3      -0.00232796      -0.00312431       0.00240999
Pt       0.00000000       1.62074571      22.29208057        2       0.02882011       0.02122019      -0.07853591
Pt       2.80721392       1.62074571      22.29208057        2       0.00000292      -0.11913098      -0.02880284
Pt       5.61442784       1.62074571      22.29208057        2      -0.02882285       0.02122250      -0.07853393
Pt       1.40360696       4.05186428      22.29208057        2      -0.15952702       0.09021913       0.05009458
Pt       4.21082088       4.05186428      22.29208057        2       0.15953071       0.09021708       0.05009630
Pt       7.01803480       4.05186428      22.29208057        2      -0.00000306       0.12730600       0.05075504
Pt       2.80721392       6.48298285      22.29208057        2       0.00000058      -0.04127929      -0.07620238
Pt       5.61442784       6.48298285      22.29208057        2       0.08927993      -0.09925254       0.03362614
Pt       8.42164176       6.48298285      22.29208057        2      -0.08928044      -0.09925032       0.03362631
Pt      -0.00470267      -0.00148840      24.56711340        1      -0.00144871       0.00196418       0.00480460
Pt       2.80721411       0.02235739      24.60122941        1       0.00000062      -0.00237701       0.01022035
Pt       5.61913080      -0.00148873      24.56711451        1       0.00144799       0.00196714       0.00480644
Pt       1.40946083       2.42502339      24.56456252        1      -0.00774542       0.01022546       0.00390726
Pt       4.20496741       2.42502354      24.56456372        1       0.00774615       0.01022440       0.00389531
Pt       7.01803495       2.41058415      24.56471736        1      -0.00000152      -0.00120328       0.01161192
Pt       2.80721408       4.85992247      24.56195670        1       0.00000053      -0.01936382       0.00477698
Pt       5.59025485       4.84258180      24.62122160        1       0.00103990       0.00136887      -0.00540562
Pt       8.44581450       4.84258141      24.62122194        1      -0.00103965       0.00137136      -0.00540370
N        7.01803558       5.44529516      26.92569528        0       0.00003428      -0.02258000       0.02494773
H        7.01803456       6.36142204      26.43662369        0       0.00000618       0.01222253      -0.02102697
H        7.84188683       4.93884935      26.54854288        0       0.00001840       0.00630347      -0.00567622
H        6.19418521       4.93884999      26.54854152        0      -0.00005843       0.00627267      -0.00569013
