31
Lattice="8.421641763931781 0.0 0.0 4.2108208819658905 7.293355709136913 0.0 0.0 0.0 44.584161137365626" Properties=species:S:1:pos:R:3:tags:I:1:forces:R:3 energy=-173.71035766601562 free_energy=-173.71035766601562 stress="0.010695275850594044 -1.1247945685965988e-08 2.8363607018633274e-09 -1.1247945685965988e-08 0.010695290751755238 -1.4419867522263985e-09 2.8363607018633274e-09 -1.4419867522263985e-09 3.051992734981468e-06" pbc="T T T"
Pt       1.40360696       0.81037286      20.00000000        3       0.00519028       0.00299367      -0.00957838
Pt       4.21082088       0.81037286      20.00000000        3       0.00000230       0.00324829      -0.00614384
Pt       7.01803480       0.81037286      20.00000000        3      -0.00519245       0.00299440      -0.00957763
Pt       2.80721392       3.24149143      20.00000000        3       0.00281579      -0.00162582      -0.00614685
Pt       5.61442784       3.24149143      20.00000000        3      -0.00281668      -0.00162477      -0.00614557
Pt       8.42164176       3.24149143      20.00000000        3       0.00000115       0.00468099       0.01237053
Pt       4.21082088       5.67261000      20.00000000        3       0.00000284      -0.00599123      -0.00957793
Pt       7.01803480       5.67261000      20.00000000        3       0.00405034      -0.00233752       0.01237214
Pt       9.82524872       5.67261000      20.00000000        3      -0.00405449      -0.00233719       0.01237243
Pt       0.00000000       1.62074571      22.29208057        2       0.00000010       0.06262007       0.02822278
Pt       2.80721392       1.62074571      22.29208057        2      -0.00442187      -0.00255673      -0.00152173
Pt       5.61442784       1.62074571      22.29208057        2       0.00442416      -0.00255713      -0.00151632
Pt       1.40360696       4.05186428      22.29208057        2      -0.06926417       0.03999075      -0.02597888
Pt       4.21082088       4.05186428      22.29208057        2       0.00000497       0.00510864      -0.00151963
Pt       7.01803480       4.05186428      22.29208057        2       0.06925970       0.03998823      -0.02597850
Pt       2.80721392       6.48298285      22.29208057        2      -0.05423335      -0.03130788       0.02822170
Pt       5.61442784       6.48298285      22.29208057        2       0.05423128      -0.03131140       0.02822120
Pt       8.42164176       6.48298285      22.29208057        2       0.00000305      -0.07997537      -0.02597955
Pt       0.00000091      -0.00000044      24.58918501        1       0.00000038       0.00000064      -0.00197491
Pt       2.80293046       0.00806910      24.60058631        1       0.00136774      -0.00474423       0.00236626
Pt       5.61871290       0.00806842      24.60058702        1      -0.00137206      -0.00474214       0.00235686
Pt       1.40845385       2.42337355      24.60058663        1      -0.00342661       0.00355794       0.00236578
Pt       4.21082103       2.43111886      24.59012733        1       0.00000408      -0.00000411      -0.00374636
Pt       7.01318963       2.42337297      24.60058701        1       0.00341795       0.00355363       0.00235818
Pt       2.81634447       4.86191331      24.60058667        1      -0.00479697       0.00118542       0.00236648
Pt       5.60529736       4.86191291      24.60058731        1       0.00479013       0.00118731       0.00235792
Pt       8.42163978       4.86223593      24.66290904        1       0.00000387       0.00000192       0.02308643
N        8.42163861       4.86223686      26.73258784        0       0.00007692       0.00000358      -0.02151877
H        7.58014370       4.37639951      27.05343067        0       0.00948602       0.00547770      -0.00070853
H        8.42164018       5.83391466      27.05342372        0       0.00000061      -0.01099589      -0.00070734
H        9.26313739       4.37639912      27.05342240        0      -0.00955497       0.00551812      -0.00071774
