31
Lattice="8.421641763931781 0.0 0.0 4.2108208819658905 7.293355709136913 0.0 0.0 0.0 44.584161137365626" Properties=species:S:1:pos:R:3:tags:I:1:forces:R:3 energy=-172.79193115234375 free_energy=-172.79193115234375 stress="0.010310105048120022 1.3162890333262567e-08 -1.0186411714130372e-08 1.3162890333262567e-08 0.010310109704732895 -6.442687716656792e-09 -1.0186411714130372e-08 -6.442687716656792e-09 -5.3208852477837354e-05" pbc="T T T"
Pt       1.40360696       0.81037286      20.00000000        3       0.00082336       0.00125831      -0.00642717
Pt       4.21082088       0.81037286      20.00000000        3      -0.00150037       0.00007984      -0.00642654
Pt       7.01803480       0.81037286      20.00000000        3       0.00026560       0.00262379      -0.00198230
Pt       2.80721392       3.24149143      20.00000000        3       0.00068081      -0.00134267      -0.00642821
Pt       5.61442784       3.24149143      20.00000000        3       0.00013045      -0.00073290       0.01711291
Pt       8.42164176       3.24149143      20.00000000        3       0.00056977       0.00048176       0.01711187
Pt       4.21082088       5.67261000      20.00000000        3       0.00214223      -0.00154388      -0.00198165
Pt       7.01803480       5.67261000      20.00000000        3      -0.00070321       0.00025423       0.01711306
Pt       9.82524872       5.67261000      20.00000000        3      -0.00240958      -0.00107771      -0.00198278
Pt       0.00000000       1.62074571      22.29208057        2      -0.10593732       0.07567652       0.01753109
Pt       2.80721392       1.62074571      22.29208057        2      -0.00000136      -0.00000234      -0.12336163
Pt       5.61442784       1.62074571      22.29208057        2       0.11871381       0.08205716       0.00725522
Pt       1.40360696       4.05186428      22.29208057        2      -0.13041961       0.06178124       0.00726018
Pt       4.21082088       4.05186428      22.29208057        2       0.11851238       0.05391020       0.01753200
Pt       7.01803480       4.05186428      22.29208057        2      -0.00000406       0.00000108       0.07267202
Pt       2.80721392       6.48298285      22.29208057        2       0.00000112      -0.00000107      -0.04818394
Pt       5.61442784       6.48298285      22.29208057        2       0.01170577      -0.14383966       0.00725785
Pt       8.42164176       6.48298285      22.29208057        2      -0.01256969      -0.12958366       0.01752859
Pt       0.00401507      -0.01182709      24.56825660        1      -0.01274917       0.02477956      -0.02905740
Pt       2.79849624       0.01462046      24.57019440        1       0.02185173      -0.03446883      -0.00114788
Pt       5.62266256       0.00938965      24.56825655        1      -0.01508284      -0.02343007      -0.02905849
Pt       1.42062802       2.43135786      24.57019354        1      -0.04077906      -0.00168897      -0.00114755
Pt       4.20251790       2.41625821      24.57019318        1       0.01892547       0.03616089      -0.00113627
Pt       7.03631852       2.40891798      24.60961036        1      -0.02603176      -0.01960687      -0.00390341
Pt       2.79496453       4.86467365      24.56825809        1       0.02783102      -0.00134902      -0.02906716
Pt       5.58605933       4.85750320      24.60961127        1      -0.00396638       0.03234830      -0.00391833
Pt       8.43172562       4.88917172      24.60961034        1       0.03000005      -0.01274262      -0.00390264
N        7.01803386       4.05186354      26.91369000        0       0.00005715       0.00005268       0.03994447
H        7.25197135       3.13617348      26.47645093        0      -0.03201491       0.00568627       0.02024996
H        6.10805544       4.30711482      26.47644994        0       0.02092609       0.02487116       0.02025788
H        7.69407842       4.71230463      26.47645075        0       0.01103254      -0.03061257       0.02028607
