31
Lattice="8.421641763931781 0.0 0.0 4.2108208819658905 7.293355709136913 0.0 0.0 0.0 44.584161137365626" Properties=species:S:1:pos:R:3:tags:I:1:forces:R:3 energy=-173.71240234375 free_energy=-173.71240234375 stress="0.010804619640111923 -7.860988943120262e-11 -2.4326722858347694e-09 -7.860988943120262e-11 0.010804641991853714 -4.259047337029642e-09 -2.4326722858347694e-09 -4.259047337029642e-09 0.00011951674241572618" pbc="T T T"
Pt       1.40360696       0.81037286      20.00000000        3       0.00531823       0.00306783      -0.00782323
Pt       4.21082088       0.81037286      20.00000000        3       0.00000216       0.00336326      -0.00487387
Pt       7.01803480       0.81037286      20.00000000        3      -0.00531933       0.00306885      -0.00782391
Pt       2.80721392       3.24149143      20.00000000        3       0.00291469      -0.00168316      -0.00487542
Pt       5.61442784       3.24149143      20.00000000        3      -0.00291617      -0.00168271      -0.00487527
Pt       8.42164176       3.24149143      20.00000000        3       0.00000104       0.00485986       0.01284644
Pt       4.21082088       5.67261000      20.00000000        3       0.00000246      -0.00613922      -0.00782382
Pt       7.01803480       5.67261000      20.00000000        3       0.00420576      -0.00242721       0.01284760
Pt       9.82524872       5.67261000      20.00000000        3      -0.00420939      -0.00242727       0.01284689
Pt       0.00000000       1.62074571      22.29208057        2       0.00000183       0.05838923       0.05123334
Pt       2.80721392       1.62074571      22.29208057        2      -0.00409848      -0.00236764       0.01918729
Pt       5.61442784       1.62074571      22.29208057        2       0.00409632      -0.00236795       0.01918774
Pt       1.40360696       4.05186428      22.29208057        2      -0.06503998       0.03755085      -0.01545430
Pt       4.21082088       4.05186428      22.29208057        2       0.00000168       0.00473274       0.01918780
Pt       7.01803480       4.05186428      22.29208057        2       0.06503861       0.03755189      -0.01545472
Pt       2.80721392       6.48298285      22.29208057        2      -0.05056819      -0.02919465       0.05123261
Pt       5.61442784       6.48298285      22.29208057        2       0.05056734      -0.02919457       0.05123107
Pt       8.42164176       6.48298285      22.29208057        2       0.00000091      -0.07510041      -0.01545624
Pt       0.00000032      -0.00000017      24.59631267        1      -0.00000077       0.00000085      -0.03171462
Pt       2.80449246       0.00918250      24.60522778        1      -0.00508708      -0.00390626      -0.01702295
Pt       5.61714952       0.00918251      24.60522902        1       0.00508715      -0.00390592      -0.01702261
Pt       1.41019865       2.42416990      24.60522839        1      -0.00592611      -0.00245066      -0.01702231
Pt       4.21082088       2.43111850      24.59619158        1       0.00000161       0.00000084      -0.03323266
Pt       7.01144291       2.42417000      24.60522872        1       0.00592553      -0.00245133      -0.01702188
Pt       2.81652744       4.86000281      24.60522852        1      -0.00084095       0.00635644      -0.01702195
Pt       5.60511468       4.86000291      24.60522827        1       0.00083949       0.00635644      -0.01702261
Pt       8.42164180       4.86223715      24.66368269        1       0.00000383      -0.00000002      -0.02417785
N        8.42164205       4.86223735      26.72836994        0      -0.00002623      -0.00003576       0.01974678
H        8.42164143       3.89113561      27.05000873        0       0.00000209      -0.00031340       0.00204918
H        7.58064322       5.34778798      27.05000728        0      -0.00028779       0.00016934       0.00205991
H        9.26263987       5.34778781      27.05000884        0       0.00030975       0.00017969       0.00206359
