31
Lattice="8.421641763931781 0.0 0.0 4.2108208819658905 7.293355709136913 0.0 0.0 0.0 44.584161137365626" Properties=species:S:1:pos:R:3:tags:I:1:forces:R:3 energy=-172.80653381347656 free_energy=-172.80653381347656 stress="0.010291832499206066 -6.635221816431169e-10 -4.600839709212323e-09 -6.635221816431169e-10 0.010291832499206066 7.019482217707207e-10 -4.600839709212323e-09 7.019482217707207e-10 2.577372288214974e-05" pbc="T T T"
Pt       1.40360696       0.81037286      20.00000000        3       0.00000051      -0.00000229      -0.00860703
Pt       4.21082088       0.81037286      20.00000000        3      -0.00223097       0.00252655       0.00094762
Pt       7.01803480       0.81037286      20.00000000        3       0.00223122       0.00252630       0.00094658
Pt       2.80721392       3.24149143      20.00000000        3       0.00107337      -0.00319814       0.00094649
Pt       5.61442784       3.24149143      20.00000000        3      -0.00000160       0.00000014       0.03144389
Pt       8.42164176       3.24149143      20.00000000        3      -0.00107158      -0.00319727       0.00094557
Pt       4.21082088       5.67261000      20.00000000        3       0.00330831       0.00067126       0.00094768
Pt       7.01803480       5.67261000      20.00000000        3      -0.00330873       0.00067187       0.00094602
Pt       9.82524872       5.67261000      20.00000000        3      -0.00000117       0.00000213      -0.01521680
Pt       0.00000000       1.62074571      22.29208057        2      -0.13820964       0.07979398       0.02789698
Pt       2.80721392       1.62074571      22.29208057        2       0.13821185       0.07979505       0.02789652
Pt       5.61442784       1.62074571      22.29208057        2      -0.00000219       0.12209953       0.04594341
Pt       1.40360696       4.05186428      22.29208057        2       0.00000037      -0.03577105      -0.07026458
Pt       4.21082088       4.05186428      22.29208057        2       0.10574485      -0.06105079       0.04594338
Pt       7.01803480       4.05186428      22.29208057        2      -0.10574537      -0.06105004       0.04594470
Pt       2.80721392       6.48298285      22.29208057        2       0.03097912       0.01788708      -0.07026549
Pt       5.61442784       6.48298285      22.29208057        2      -0.00000178      -0.15959208       0.02789469
Pt       8.42164176       6.48298285      22.29208057        2      -0.03097793       0.01788817      -0.07026603
Pt       0.00224073       0.00129339      24.56523443        1       0.00060801       0.00035097      -0.00526252
Pt       2.80497347       0.00129338      24.56523443        1      -0.00060781       0.00035156      -0.00526208
Pt       5.61442775      -0.01027229      24.56857326        1       0.00000069       0.00925495      -0.00448520
Pt       1.40360704       2.42853134      24.56523451        1       0.00000062      -0.00070284      -0.00526252
Pt       4.18532974       2.41640108      24.61131505        1       0.01195500       0.00690283       0.00162537
Pt       7.04352579       2.41640112      24.61131537        1      -0.01195712       0.00690352       0.00162953
Pt       2.79831795       4.86737320      24.56857339        1       0.00801427      -0.00462683      -0.00448467
Pt       5.61442776       4.89167187      24.61131548        1       0.00000031      -0.01380550       0.00162463
Pt       8.43053741       4.86737324      24.56857334        1      -0.00801374      -0.00462786      -0.00448510
N        5.61442769       3.24149156      26.92948854        0       0.00000590      -0.00000303       0.03300774
H        6.43839879       2.76577161      26.51547741        0       0.00874873      -0.00505272      -0.01089061
H        4.79045736       2.76577183      26.51547697        0      -0.00875407      -0.00505630      -0.01088925
H        5.61442790       4.19293060      26.51547710        0       0.00000075       0.01011100      -0.01088864
