31
Lattice="8.421641763931781 0.0 0.0 4.2108208819658905 7.293355709136913 0.0 0.0 0.0 44.584161137365626" Properties=species:S:1:pos:R:3:tags:I:1:forces:R:3 energy=-173.70989990234375 free_energy=-173.70989990234375 stress="0.010813917964696884 9.562140412811004e-09 -7.000275470403494e-09 9.562140412811004e-09 0.010813922621309757 -3.7818143061585374e-10 -7.000275470403494e-09 -3.7818143061585374e-10 0.00012009342026431113" pbc="T T T"
Pt       1.40360696       0.81037286      20.00000000        3       0.00496260       0.00286195      -0.00772357
Pt       4.21082088       0.81037286      20.00000000        3       0.00000254       0.00341880      -0.00427139
Pt       7.01803480       0.81037286      20.00000000        3      -0.00496431       0.00286268      -0.00772429
Pt       2.80721392       3.24149143      20.00000000        3       0.00296279      -0.00171010      -0.00427312
Pt       5.61442784       3.24149143      20.00000000        3      -0.00296436      -0.00171043      -0.00427210
Pt       8.42164176       3.24149143      20.00000000        3       0.00000081       0.00448160       0.01262695
Pt       4.21082088       5.67261000      20.00000000        3       0.00000216      -0.00572838      -0.00772372
Pt       7.01803480       5.67261000      20.00000000        3       0.00387900      -0.00223790       0.01262781
Pt       9.82524872       5.67261000      20.00000000        3      -0.00388189      -0.00223817       0.01262820
Pt       0.00000000       1.62074571      22.29208057        2       0.00000109       0.05747571       0.04723177
Pt       2.80721392       1.62074571      22.29208057        2      -0.00187025      -0.00108148       0.02037209
Pt       5.61442784       1.62074571      22.29208057        2       0.00186873      -0.00108101       0.02037051
Pt       1.40360696       4.05186428      22.29208057        2      -0.06378091       0.03682447      -0.01406317
Pt       4.21082088       4.05186428      22.29208057        2       0.00000255       0.00216018       0.02037164
Pt       7.01803480       4.05186428      22.29208057        2       0.06377932       0.03682460      -0.01406055
Pt       2.80721392       6.48298285      22.29208057        2      -0.04977676      -0.02873798       0.04722991
Pt       5.61442784       6.48298285      22.29208057        2       0.04977642      -0.02873794       0.04723031
Pt       8.42164176       6.48298285      22.29208057        2       0.00000067      -0.07364679      -0.01406361
Pt       0.00000034      -0.00000034      24.59664109        1      -0.00000002       0.00000036      -0.03495505
Pt       2.80263428       0.00774857      24.60512653        1       0.00224549       0.00079652      -0.01533319
Pt       5.61900768       0.00774836      24.60512715        1      -0.00224536       0.00079872      -0.01533303
Pt       1.40802773       2.42327786      24.60512711        1       0.00181505       0.00154561      -0.01533256
Pt       4.21082104       2.43111819      24.59749856        1      -0.00000181       0.00000159      -0.03699392
Pt       7.01361391       2.42327774      24.60512740        1      -0.00181178       0.00154804      -0.01533307
Pt       2.81621458       4.86232880      24.60512717        1      -0.00043021      -0.00234573      -0.01533271
Pt       5.60542721       4.86232893      24.60512695        1       0.00043357      -0.00234436      -0.01533379
Pt       8.42164193       4.86223687      24.66416427        1      -0.00000134       0.00000007      -0.02245265
N        8.42164332       4.86223730      26.72911552        0      -0.00007472      -0.00000429       0.01962554
H        9.26259855       4.37671031      27.05108692        0      -0.00078259       0.00045377       0.00142905
H        7.58068392       4.37671027      27.05108293        0       0.00084965       0.00048752       0.00141121
H        8.42164158       5.83329153      27.05108411        0       0.00000399      -0.00093767       0.00142106
