31
Lattice="8.421641763931781 0.0 0.0 4.2108208819658905 7.293355709136913 0.0 0.0 0.0 44.584161137365626" Properties=species:S:1:pos:R:3:tags:I:1:forces:R:3 energy=-173.71255493164062 free_energy=-173.71255493164062 stress="0.010737711563706398 1.4114982960222733e-08 9.100840969722412e-09 1.4114982960222733e-08 0.010737731121480465 -5.106809641830523e-09 9.100840969722412e-09 -5.106809641830523e-09 1.2334373423072975e-05" pbc="T T T"
Pt       1.40360696       0.81037286      20.00000000        3       0.00546867       0.00315446      -0.01009378
Pt       4.21082088       0.81037286      20.00000000        3       0.00000230       0.00356997      -0.00688502
Pt       7.01803480       0.81037286      20.00000000        3      -0.00547039       0.00315488      -0.01009405
Pt       2.80721392       3.24149143      20.00000000        3       0.00309346      -0.00178612      -0.00688612
Pt       5.61442784       3.24149143      20.00000000        3      -0.00309471      -0.00178558      -0.00688547
Pt       8.42164176       3.24149143      20.00000000        3       0.00000150       0.00539024       0.01372918
Pt       4.21082088       5.67261000      20.00000000        3       0.00000253      -0.00631241      -0.01009351
Pt       7.01803480       5.67261000      20.00000000        3       0.00466525      -0.00269245       0.01372984
Pt       9.82524872       5.67261000      20.00000000        3      -0.00466897      -0.00269272       0.01373002
Pt       0.00000000       1.62074571      22.29208057        2       0.00000169       0.06621490       0.03225535
Pt       2.80721392       1.62074571      22.29208057        2      -0.00482716      -0.00278928       0.00164329
Pt       5.61442784       1.62074571      22.29208057        2       0.00482521      -0.00278865       0.00164341
Pt       1.40360696       4.05186428      22.29208057        2      -0.07609638       0.04393462      -0.02059796
Pt       4.21082088       4.05186428      22.29208057        2       0.00000267       0.00557422       0.00164265
Pt       7.01803480       4.05186428      22.29208057        2       0.07609431       0.04393464      -0.02059824
Pt       2.80721392       6.48298285      22.29208057        2      -0.05734573      -0.03310708       0.03225529
Pt       5.61442784       6.48298285      22.29208057        2       0.05734500      -0.03310692       0.03225408
Pt       8.42164176       6.48298285      22.29208057        2       0.00000127      -0.08786674      -0.02059983
Pt       0.00000030      -0.00000017      24.58858466        1      -0.00000069      -0.00000115       0.00282088
Pt       2.80441136       0.00899994      24.60083902        1      -0.00085771      -0.00626291       0.00067499
Pt       5.61723045       0.00899987      24.60083939        1       0.00085709      -0.00626349       0.00067462
Pt       1.41000005       2.42419121      24.60083956        1      -0.00585280       0.00238857       0.00067529
Pt       4.21082091       2.43111861      24.59054696        1       0.00000174      -0.00000230      -0.00890413
Pt       7.01164175       2.42419110      24.60083951        1       0.00585159       0.00238970       0.00067602
Pt       2.81640962       4.86016432      24.60083928        1      -0.00499613       0.00387584       0.00067547
Pt       5.60523210       4.86016428      24.60083932        1       0.00499569       0.00387451       0.00067499
Pt       8.42164138       4.86223683      24.67001345        1      -0.00000013       0.00000202      -0.03262299
N        8.42164114       4.86223793      26.73726783        0       0.00007838      -0.00004876      -0.01465482
H        9.26491319       5.34909997      27.05381746        0      -0.04246256      -0.02451075       0.00637741
H        8.42164187       3.88851162      27.05381846        0      -0.00000257       0.04902932       0.00637776
H        7.57837164       5.34909955      27.05381797        0       0.04238748      -0.02447051       0.00640510
