31
Lattice="8.421641763931781 0.0 0.0 4.2108208819658905 7.293355709136913 0.0 0.0 0.0 44.584161137365626" Properties=species:S:1:pos:R:3:tags:I:1:forces:R:3 energy=-172.80453491210938 free_energy=-172.80453491210938 stress="0.010309048928320408 -3.434921236333821e-09 3.4662095416138072e-09 -3.434921236333821e-09 0.010309042409062386 -4.97519403452884e-09 3.4662095416138072e-09 -4.97519403452884e-09 -2.449100611556787e-05" pbc="T T T"
Pt       1.40360696       0.81037286      20.00000000        3       0.00189865       0.00057133      -0.00842407
Pt       4.21082088       0.81037286      20.00000000        3      -0.00144365       0.00135462      -0.00842398
Pt       7.01803480       0.81037286      20.00000000        3       0.00024234       0.00310434      -0.00555626
Pt       2.80721392       3.24149143      20.00000000        3      -0.00045162      -0.00193056      -0.00842544
Pt       5.61442784       3.24149143      20.00000000        3      -0.00004998       0.00011553       0.01854983
Pt       8.42164176       3.24149143      20.00000000        3      -0.00007390      -0.00009853       0.01854810
Pt       4.21082088       5.67261000      20.00000000        3       0.00257016      -0.00176419      -0.00555578
Pt       7.01803480       5.67261000      20.00000000        3       0.00012163      -0.00001345       0.01854923
Pt       9.82524872       5.67261000      20.00000000        3      -0.00281406      -0.00133907      -0.00555614
Pt       0.00000000       1.62074571      22.29208057        2      -0.11437904       0.09612428       0.00601528
Pt       2.80721392       1.62074571      22.29208057        2       0.00000043      -0.00000178      -0.10859998
Pt       5.61442784       1.62074571      22.29208057        2       0.10749932       0.10100110       0.00855840
Pt       1.40360696       4.05186428      22.29208057        2      -0.14122078       0.04259775       0.00855871
Pt       4.21082088       4.05186428      22.29208057        2       0.14044075       0.05099280       0.00601295
Pt       7.01803480       4.05186428      22.29208057        2      -0.00000212       0.00000029       0.08442745
Pt       2.80721392       6.48298285      22.29208057        2       0.00000037       0.00000116      -0.08295019
Pt       5.61442784       6.48298285      22.29208057        2       0.03371807      -0.14359958       0.00855787
Pt       8.42164176       6.48298285      22.29208057        2      -0.02605725      -0.14711697       0.00601288
Pt      -0.00042920      -0.00315930      24.55878913        1      -0.00010444       0.01292035       0.02387425
Pt       2.81678298       0.01233999      24.57146507        1      -0.02428921      -0.01651249      -0.01097116
Pt       5.61737834       0.00120749      24.55878911        1      -0.01113561      -0.00655053       0.02387448
Pt       1.40951003       2.41666094      24.57146419        1      -0.00215803       0.02928970      -0.01096998
Pt       4.19534936       2.43323484      24.57146514        1       0.02644505      -0.01277886      -0.01097018
Pt       7.01172917       2.40982852      24.61359357        1       0.01066836       0.00384913       0.00528659
Pt       2.80469271       4.86418842      24.55878794        1       0.01124309      -0.00636771       0.02387471
Pt       5.59914253       4.87834231      24.61359357        1      -0.00199796      -0.01116060       0.00528876
Pt       8.44323242       4.86742164      24.61359445        1      -0.00867087       0.00731162       0.00528921
N        7.01803475       4.05186391      26.95095190        0      -0.00002882       0.00003117      -0.01187950
H        6.23828657       4.59238078      26.52768154        0       0.00605714      -0.01646800       0.00234590
H        7.87600961       4.45688705      26.52768198        0      -0.01725791       0.00299865       0.00233062
H        6.93980751       3.10632455      26.52768174        0       0.01122988       0.01343840       0.00232740
