31
Lattice="8.421641763931781 0.0 0.0 4.2108208819658905 7.293355709136913 0.0 0.0 0.0 44.584161137365626" Properties=species:S:1:pos:R:3:tags:I:1:forces:R:3 energy=-173.7161865234375 free_energy=-173.7161865234375 stress="0.010666674934327602 -4.763997640822026e-09 1.371247781989382e-09 -4.763997640822026e-09 0.010666700080037117 -3.3505784813314676e-09 1.371247781989382e-09 -3.3505784813314676e-09 -1.8465442508386332e-06" pbc="T T T"
Pt       1.40360696       0.81037286      20.00000000        3       0.00502321       0.00367288      -0.00957504
Pt       4.21082088       0.81037286      20.00000000        3       0.00067059       0.00312293      -0.00628519
Pt       7.01803480       0.81037286      20.00000000        3      -0.00569649       0.00250993      -0.00957608
Pt       2.80721392       3.24149143      20.00000000        3       0.00237281      -0.00214183      -0.00628701
Pt       5.61442784       3.24149143      20.00000000        3      -0.00304190      -0.00098305      -0.00628626
Pt       8.42164176       3.24149143      20.00000000        3       0.00054038       0.00469356       0.01201880
Pt       4.21082088       5.67261000      20.00000000        3       0.00067460      -0.00618555      -0.00957540
Pt       7.01803480       5.67261000      20.00000000        3       0.00379174      -0.00281119       0.01201960
Pt       9.82524872       5.67261000      20.00000000        3      -0.00433516      -0.00187637       0.01201954
Pt       0.00000000       1.62074571      22.29208057        2       0.00612004       0.06274518       0.02846733
Pt       2.80721392       1.62074571      22.29208057        2      -0.00941816       0.00433073      -0.00398436
Pt       5.61442784       1.62074571      22.29208057        2       0.00095484      -0.01032614      -0.00398356
Pt       1.40360696       4.05186428      22.29208057        2      -0.07003838       0.03508759      -0.02903116
Pt       4.21082088       4.05186428      22.29208057        2       0.00846506       0.00599013      -0.00398443
Pt       7.01803480       4.05186428      22.29208057        2       0.06540284       0.04311194      -0.02903160
Pt       2.80721392       6.48298285      22.29208057        2      -0.05740008      -0.02607528       0.02846706
Pt       5.61442784       6.48298285      22.29208057        2       0.05128180      -0.03667150       0.02846535
Pt       8.42164176       6.48298285      22.29208057        2       0.00463475      -0.07819596      -0.02903232
Pt       0.00000121      -0.00000077      24.58874769        1      -0.00000305       0.00000196      -0.00017762
Pt       2.80256770       0.01090747      24.59462557        1      -0.00539761       0.00066496       0.01185292
Pt       5.61709935       0.00668483      24.60592485        1      -0.00698108      -0.01683381      -0.00246538
Pt       1.40806239       2.42546303      24.60592486        1      -0.01108979       0.01445998      -0.00246467
Pt       4.21082142       2.43111812      24.58900101        1       0.00000149      -0.00000073      -0.00093079
Pt       7.01091300       2.42163960      24.59462527        1       0.00211926      -0.00500599       0.01185477
Pt       2.81898403       4.86080666      24.59462521        1       0.00327090       0.00434572       0.01185428
Pt       5.60730279       4.86120680      24.60592550        1       0.01807078       0.00236891      -0.00246550
Pt       8.42164069       4.86223675      24.65974818        1       0.00000006       0.00000184       0.03699693
N        8.42163835       4.86223886      26.72996636        0       0.00004351      -0.00002502      -0.04315144
H        8.91084980       5.70301464      27.04813463        0      -0.00225203      -0.00622619       0.00142726
H        8.90516890       4.01818229      27.04813380        0      -0.00427487       0.00508505       0.00142127
H        7.44890217       4.86551791      27.04813884        0       0.00648989       0.00116543       0.00142276
