31
Lattice="8.421641763931781 0.0 0.0 4.2108208819658905 7.293355709136913 0.0 0.0 0.0 44.584161137365626" Properties=species:S:1:pos:R:3:tags:I:1:forces:R:3 energy=-172.80653381347656 free_energy=-172.80653381347656 stress="0.010291815735399723 1.692601440950181e-11 -4.4633567952701014e-09 1.692601440950181e-11 0.010291815735399723 1.4175001172844759e-09 -4.4633567952701014e-09 1.4175001172844759e-09 2.576368751761038e-05" pbc="T T T"
Pt       1.40360696       0.81037286      20.00000000        3       0.00000037      -0.00000210      -0.00860709
Pt       4.21082088       0.81037286      20.00000000        3      -0.00223090       0.00252645       0.00094789
Pt       7.01803480       0.81037286      20.00000000        3       0.00223120       0.00252667       0.00094655
Pt       2.80721392       3.24149143      20.00000000        3       0.00107326      -0.00319853       0.00094625
Pt       5.61442784       3.24149143      20.00000000        3      -0.00000176      -0.00000005       0.03144377
Pt       8.42164176       3.24149143      20.00000000        3      -0.00107138      -0.00319748       0.00094593
Pt       4.21082088       5.67261000      20.00000000        3       0.00330859       0.00067124       0.00094691
Pt       7.01803480       5.67261000      20.00000000        3      -0.00330857       0.00067205       0.00094622
Pt       9.82524872       5.67261000      20.00000000        3      -0.00000133       0.00000251      -0.01521710
Pt       0.00000000       1.62074571      22.29208057        2      -0.13821074       0.07979403       0.02789616
Pt       2.80721392       1.62074571      22.29208057        2       0.13821284       0.07979526       0.02789560
Pt       5.61442784       1.62074571      22.29208057        2      -0.00000190       0.12209934       0.04594315
Pt       1.40360696       4.05186428      22.29208057        2       0.00000122      -0.03577112      -0.07026436
Pt       4.21082088       4.05186428      22.29208057        2       0.10574459      -0.06105106       0.04594393
Pt       7.01803480       4.05186428      22.29208057        2      -0.10574511      -0.06105059       0.04594439
Pt       2.80721392       6.48298285      22.29208057        2       0.03097891       0.01788682      -0.07026529
Pt       5.61442784       6.48298285      22.29208057        2      -0.00000158      -0.15959205       0.02789412
Pt       8.42164176       6.48298285      22.29208057        2      -0.03097707       0.01788862      -0.07026547
Pt       0.00224090       0.00129331      24.56523476        1       0.00060603       0.00035236      -0.00526208
Pt       2.80497326       0.00129335      24.56523445        1      -0.00060623       0.00035173      -0.00526175
Pt       5.61442781      -0.01027205      24.56857300        1      -0.00000170       0.00925132      -0.00448611
Pt       1.40360716       2.42853117      24.56523435        1      -0.00000107      -0.00070117      -0.00526169
Pt       4.18532972       2.41640095      24.61131483        1       0.01195420       0.00690203       0.00162348
Pt       7.04352584       2.41640108      24.61131532        1      -0.01195355       0.00690223       0.00162526
Pt       2.79831819       4.86737299      24.56857345        1       0.00801269      -0.00462674      -0.00448503
Pt       5.61442780       4.89167177      24.61131498        1       0.00000109      -0.01380480       0.00162385
Pt       8.43053700       4.86737304      24.56857339        1      -0.00801232      -0.00462644      -0.00448394
N        5.61442770       3.24149176      26.92948743        0       0.00002406      -0.00000502       0.03304639
H        5.61442785       4.19293079      26.51547577        0      -0.00000349       0.01013801      -0.01090079
H        6.43839816       2.76577224      26.51547624        0       0.00876589      -0.00506296      -0.01089456
H        4.79045757       2.76577215      26.51547617        0      -0.00878605      -0.00507051      -0.01090466
