31
Lattice="8.421641763931781 0.0 0.0 4.2108208819658905 7.293355709136913 0.0 0.0 0.0 44.584161137365626" Properties=species:S:1:pos:R:3:tags:I:1:forces:R:3 energy=-172.76148986816406 free_energy=-172.76148986816406 stress="0.010289766825735569 1.793770024960395e-05 0.00014317201566882432 1.793770024960395e-05 0.010455918498337269 2.1185803689149907e-06 0.00014317201566882432 2.1185803689149907e-06 3.078764711972326e-05" pbc="T T T"
Pt       1.40360696       0.81037286      20.00000000        3       0.00218948       0.00061562       0.00321823
Pt       4.21082088       0.81037286      20.00000000        3      -0.00350595       0.00066690       0.00237939
Pt       7.01803480       0.81037286      20.00000000        3      -0.00084099       0.00284081      -0.00485644
Pt       2.80721392       3.24149143      20.00000000        3      -0.00090197      -0.00002935      -0.00353879
Pt       5.61442784       3.24149143      20.00000000        3      -0.00228731       0.00241103       0.01940915
Pt       8.42164176       3.24149143      20.00000000        3       0.00146493       0.00183496       0.01590258
Pt       4.21082088       5.67261000      20.00000000        3       0.00199747      -0.00220262       0.00399759
Pt       7.01803480       5.67261000      20.00000000        3      -0.00195525      -0.00240329       0.03659710
Pt       9.82524872       5.67261000      20.00000000        3      -0.00348667      -0.00157485       0.00172201
Pt       0.00000000       1.62074571      22.29208057        2       0.00069752       0.04354890      -0.04282153
Pt       2.80721392       1.62074571      22.29208057        2       0.01690165      -0.06630214      -0.05669957
Pt       5.61442784       1.62074571      22.29208057        2       0.02897285       0.06047341      -0.03392386
Pt       1.40360696       4.05186428      22.29208057        2      -0.11816450       0.05243671       0.01836702
Pt       4.21082088       4.05186428      22.29208057        2       0.18250245       0.07137718       0.06492738
Pt       7.01803480       4.05186428      22.29208057        2      -0.02831111       0.06735723       0.02687060
Pt       2.80721392       6.48298285      22.29208057        2       0.01797679      -0.01325015      -0.05894113
Pt       5.61442784       6.48298285      22.29208057        2       0.05331789      -0.12697646       0.02739203
Pt       8.42164176       6.48298285      22.29208057        2      -0.03652049      -0.09004626      -0.01966714
Pt       0.01051423       0.00627063      24.57091235        1       0.00372471      -0.00178714      -0.01211818
Pt       2.83566361      -0.01586931      24.60179986        1      -0.01504488       0.03898390       0.00962409
Pt       5.64423722       0.00975735      24.57063976        1       0.00260069       0.00682590      -0.00686985
Pt       1.43322663       2.41098377      24.57289269        1       0.02226158      -0.00303399      -0.01404543
Pt       4.21939270       2.41224967      24.57390679        1      -0.00815357       0.01363281      -0.02147606
Pt       7.04676500       2.43565436      24.60072322        1      -0.01824242      -0.01234981       0.01102367
Pt       2.81642199       4.85843501      24.55895395        1       0.00364640      -0.01374374       0.00540631
Pt       5.58278509       4.85352789      24.62803495        1      -0.01854137      -0.01474445      -0.01594200
Pt       8.47441888       4.85389442      24.61623061        1      -0.00414217      -0.01563868       0.00467381
N        7.03210190       4.87508745      26.87165802        0      -0.03194646       0.00017807       0.02690715
H        7.39105820       5.69696658      26.32760068        0      -0.02060001      -0.01514056       0.00021490
H        7.39854915       4.05406546      26.33079571        0      -0.02121809       0.01860528      -0.00589314
H        6.03533892       4.87025181      26.56866905        0      -0.00439125      -0.00256485       0.01816033
