31
Lattice="8.421641763931781 0.0 0.0 4.2108208819658905 7.293355709136913 0.0 0.0 0.0 44.584161137365626" Properties=species:S:1:pos:R:3:tags:I:1:forces:R:3 energy=-172.76077270507812 free_energy=-172.76077270507812 stress="0.010311979800462723 -1.4922130503691733e-05 -0.00013859046157449484 -1.4922130503691733e-05 0.010457431897521019 -5.753695859311847e-06 -0.00013859046157449484 -5.753695859311847e-06 0.00011397193884477019" pbc="T T T"
Pt       1.40360696       0.81037286      20.00000000        3       0.00359676       0.00089396       0.00178933
Pt       4.21082088       0.81037286      20.00000000        3      -0.00257819       0.00063621       0.00243148
Pt       7.01803480       0.81037286      20.00000000        3       0.00101500       0.00300089      -0.00506580
Pt       2.80721392       3.24149143      20.00000000        3       0.00064358       0.00004658      -0.00557989
Pt       5.61442784       3.24149143      20.00000000        3      -0.00087724       0.00217687       0.01665139
Pt       8.42164176       3.24149143      20.00000000        3       0.00206074       0.00258017       0.01904240
Pt       4.21082088       5.67261000      20.00000000        3       0.00334143      -0.00202560       0.00241271
Pt       7.01803480       5.67261000      20.00000000        3       0.00170445      -0.00178887       0.03803486
Pt       9.82524872       5.67261000      20.00000000        3      -0.00218085      -0.00275770       0.00365743
Pt       0.00000000       1.62074571      22.29208057        2      -0.03199653       0.05640838      -0.03371448
Pt       2.80721392       1.62074571      22.29208057        2      -0.01447964      -0.06945004      -0.06476614
Pt       5.61442784       1.62074571      22.29208057        2       0.00526599       0.04512553      -0.03811949
Pt       1.40360696       4.05186428      22.29208057        2      -0.18541738       0.07464954       0.05175794
Pt       4.21082088       4.05186428      22.29208057        2       0.12806849       0.06054821       0.02496018
Pt       7.01803480       4.05186428      22.29208057        2       0.02193039       0.06693390       0.03638137
Pt       2.80721392       6.48298285      22.29208057        2      -0.01335936      -0.01757510      -0.05836770
Pt       5.61442784       6.48298285      22.29208057        2       0.04336369      -0.09789035      -0.00417624
Pt       8.42164176       6.48298285      22.29208057        2      -0.06063813      -0.12906370       0.03079029
Pt      -0.02582832       0.00438279      24.56952119        1       0.00097775       0.00780748      -0.00144479
Pt       2.78294542      -0.00632422      24.60469552        1      -0.00182670      -0.01912534       0.00361954
Pt       5.60478513       0.00108425      24.56933742        1      -0.00623350       0.01055849      -0.00238325
Pt       1.39613513       2.41609244      24.57114141        1      -0.00143895      -0.00899796      -0.00352292
Pt       4.18357048       2.41354045      24.57077904        1      -0.00543396      -0.00640165      -0.00211498
Pt       6.99415252       2.42616388      24.60377282        1      -0.00150162       0.01630589       0.00149994
Pt       2.79400828       4.85514508      24.55990017        1       0.02790440       0.00337458       0.00330657
Pt       5.56628796       4.85108953      24.62028070        1       0.01314899      -0.00010026       0.01262340
Pt       8.44832052       4.85079216      24.62962676        1      -0.00405310       0.00177920       0.02441881
N        6.99704252       4.86818723      26.89483125        0       0.02620558       0.00145869      -0.01388508
H        7.99093049       4.86823735      26.58755282        0       0.04633088      -0.00020254      -0.00394006
H        6.63332381       4.04999258      26.35085154        0       0.00258944      -0.03221346      -0.01684210
H        6.63332808       5.68662389      26.35177987        0       0.00386761       0.03330776      -0.01945454
