31
Lattice="8.421641763931781 0.0 0.0 4.2108208819658905 7.293355709136913 0.0 0.0 0.0 44.584161137365626" Properties=species:S:1:pos:R:3:tags:I:1:forces:R:3 energy=-172.5789794921875 free_energy=-172.5789794921875 stress="0.010473078116774559 1.281803774233481e-09 -4.451113699843745e-09 1.281803774233481e-09 0.010473075322806835 3.1859743732098877e-09 -4.451113699843745e-09 3.1859743732098877e-09 -0.00020025079720653594" pbc="T T T"
Pt       1.40360696       0.81037286      20.00000000        3       0.00000057      -0.00000260      -0.00540248
Pt       4.21082088       0.81037286      20.00000000        3      -0.00079362       0.00067934      -0.00219935
Pt       7.01803480       0.81037286      20.00000000        3       0.00074382       0.00084730      -0.00204545
Pt       2.80721392       3.24149143      20.00000000        3       0.00036238      -0.00107094      -0.00204629
Pt       5.61442784       3.24149143      20.00000000        3      -0.00000156       0.00000003       0.00783819
Pt       8.42164176       3.24149143      20.00000000        3      -0.00019053      -0.00102910      -0.00220218
Pt       4.21082088       5.67261000      20.00000000        3       0.00099034       0.00035032      -0.00220025
Pt       7.01803480       5.67261000      20.00000000        3      -0.00111056       0.00022433      -0.00204629
Pt       9.82524872       5.67261000      20.00000000        3      -0.00000152       0.00000224      -0.00681865
Pt       0.00000000       1.62074571      22.29208057        2      -0.03219030       0.01882751      -0.02422110
Pt       2.80721392       1.62074571      22.29208057        2       0.03240380       0.01846239      -0.02422220
Pt       5.61442784       1.62074571      22.29208057        2       0.00152474       0.04198315       0.02925809
Pt       1.40360696       4.05186428      22.29208057        2       0.00078535      -0.01329293      -0.03097812
Pt       4.21082088       4.05186428      22.29208057        2       0.03559896      -0.02231529       0.02925888
Pt       7.01803480       4.05186428      22.29208057        2      -0.03712588      -0.01966961       0.02925984
Pt       2.80721392       6.48298285      22.29208057        2       0.01111991       0.00732746      -0.03097930
Pt       5.61442784       6.48298285      22.29208057        2      -0.00021318      -0.03729223      -0.02422301
Pt       8.42164176       6.48298285      22.29208057        2      -0.01190290       0.00597045      -0.03098017
Pt       0.00125018       0.00150243      24.57723208        1      -0.00713300      -0.00009520      -0.00424266
Pt       2.80528754       0.00033115      24.57723223        1       0.00365023      -0.00612863      -0.00424135
Pt       5.61499731      -0.00636834      24.57875334        1       0.00299087       0.01932143      -0.00732279
Pt       1.40428342       2.42928463      24.57723226        1       0.00348303       0.00622532      -0.00424215
Pt       4.19857734       2.42122446      24.58945419        1       0.02483364       0.00794843       0.00628270
Pt       7.03272503       2.42546238      24.58945434        1      -0.01929926       0.01753308       0.00628442
Pt       2.80141422       4.86492806      24.57875324        1       0.01523747      -0.01225139      -0.00732225
Pt       5.61198088       4.87778753      24.58945445        1      -0.00553324      -0.02548263       0.00628360
Pt       8.42687205       4.86591460      24.57875341        1      -0.01822994      -0.00707223      -0.00732177
N        5.61442777       3.24149156      27.59559773        0       0.00002050      -0.00000879       0.00371897
H        6.55913986       3.23643168      27.19906556        0      -0.02437663      -0.02474739       0.03569623
H        5.13769001       2.42587691      27.19906553        0      -0.00925252       0.03347443       0.03569069
H        5.14645389       4.06216560      27.19906557        0       0.03360908      -0.00871815       0.03568639
