31
Lattice="8.421641763931781 0.0 0.0 4.2108208819658905 7.293355709136913 0.0 0.0 0.0 44.584161137365626" Properties=species:S:1:pos:R:3:tags:I:1:forces:R:3 energy=-172.64569091796875 free_energy=-172.64569091796875 stress="0.010564319789409637 -2.6871460612198916e-09 -1.885465561457522e-09 -2.6871460612198916e-09 0.010564309544861317 1.2522158421290897e-08 -1.885465561457522e-09 1.2522158421290897e-08 0.00012951662938576192" pbc="T T T"
Pt       1.40360696       0.81037286      20.00000000        3       0.00160763       0.00092532       0.00035563
Pt       4.21082088       0.81037286      20.00000000        3      -0.00160492       0.00092606       0.00035605
Pt       7.01803480       0.81037286      20.00000000        3      -0.00000217       0.00393019       0.00387070
Pt       2.80721392       3.24149143      20.00000000        3       0.00000080      -0.00185592       0.00035566
Pt       5.61442784       3.24149143      20.00000000        3       0.00078658       0.00045504       0.03163433
Pt       8.42164176       3.24149143      20.00000000        3      -0.00078675       0.00045587       0.03163305
Pt       4.21082088       5.67261000      20.00000000        3       0.00340722      -0.00196439       0.00387055
Pt       7.01803480       5.67261000      20.00000000        3      -0.00000262      -0.00090810       0.03163394
Pt       9.82524872       5.67261000      20.00000000        3      -0.00340594      -0.00196326       0.00387001
Pt       0.00000000       1.62074571      22.29208057        2      -0.08638877       0.08268879       0.00364603
Pt       2.80721392       1.62074571      22.29208057        2      -0.00000187      -0.00000061      -0.05205499
Pt       5.61442784       1.62074571      22.29208057        2       0.08638970       0.08268830       0.00364308
Pt       1.40360696       4.05186428      22.29208057        2      -0.11480741       0.03347021       0.00364631
Pt       4.21082088       4.05186428      22.29208057        2       0.11480956       0.03347252       0.00364267
Pt       7.01803480       4.05186428      22.29208057        2      -0.00000240       0.00000011       0.03507291
Pt       2.80721392       6.48298285      22.29208057        2       0.00000043       0.00000153      -0.05437670
Pt       5.61442784       6.48298285      22.29208057        2       0.02841398      -0.11616117       0.00364195
Pt       8.42164176       6.48298285      22.29208057        2      -0.02841443      -0.11615987       0.00364333
Pt      -0.00256042      -0.00147846      24.56614408        1       0.00538045       0.00310613      -0.00713694
Pt       2.80721392       0.00400266      24.58141972        1       0.00000086       0.01598936      -0.00493875
Pt       5.61698853      -0.00147881      24.56614441        1      -0.00538265       0.00310784      -0.00713751
Pt       1.40707365       2.42911677      24.58141998        1       0.01384494      -0.00799164      -0.00494799
Pt       4.20735407       2.42911718      24.58141992        1      -0.01384440      -0.00799537      -0.00493757
Pt       7.01803461       2.40793915      24.63180333        1      -0.00000042       0.01428074      -0.00864348
Pt       2.80721387       4.86519385      24.56614454        1       0.00000027      -0.00621337      -0.00713593
Pt       5.59435365       4.87382690      24.63180347        1       0.01236841      -0.00714219      -0.00864492
Pt       8.44171556       4.87382679      24.63180324        1      -0.01236775      -0.00714243      -0.00864291
N        7.01803525       4.05186440      26.88132307        0      -0.00000352      -0.00005918       0.03622547
H        6.22252011       3.59257328      26.36859890        0      -0.00271170      -0.00156280      -0.01070207
H        7.01803399       4.97044579      26.36859994        0       0.00000782       0.00317417      -0.01073661
H        7.81355024       3.59257262      26.36859979        0       0.00270911      -0.00155194      -0.01070553
