31
Lattice="8.421641763931781 0.0 0.0 4.2108208819658905 7.293355709136913 0.0 0.0 0.0 44.584161137365626" Properties=species:S:1:pos:R:3:tags:I:1:forces:R:3 energy=-172.80630493164062 free_energy=-172.80630493164062 stress="0.010269219055771828 2.119272535239247e-09 4.977046330623125e-09 2.119272535239247e-09 0.010269219055771828 5.441459505206581e-10 4.977046330623125e-09 5.441459505206581e-10 9.000739737530239e-06" pbc="T T T"
Pt       1.40360696       0.81037286      20.00000000        3       0.00000071      -0.00000215      -0.00881100
Pt       4.21082088       0.81037286      20.00000000        3      -0.00214121       0.00264085       0.00079599
Pt       7.01803480       0.81037286      20.00000000        3       0.00214089       0.00264089       0.00079441
Pt       2.80721392       3.24149143      20.00000000        3       0.00121738      -0.00317763       0.00079417
Pt       5.61442784       3.24149143      20.00000000        3      -0.00000175      -0.00000035       0.03264365
Pt       8.42164176       3.24149143      20.00000000        3      -0.00121534      -0.00317613       0.00079376
Pt       4.21082088       5.67261000      20.00000000        3       0.00336257       0.00053589       0.00079441
Pt       7.01803480       5.67261000      20.00000000        3      -0.00336268       0.00053739       0.00079393
Pt       9.82524872       5.67261000      20.00000000        3      -0.00000158       0.00000231      -0.01720372
Pt       0.00000000       1.62074571      22.29208057        2      -0.13941488       0.08048960       0.02965043
Pt       2.80721392       1.62074571      22.29208057        2       0.13941801       0.08048888       0.02965178
Pt       5.61442784       1.62074571      22.29208057        2      -0.00000316       0.12738921       0.04132032
Pt       1.40360696       4.05186428      22.29208057        2       0.00000151      -0.04157282      -0.08074536
Pt       4.21082088       4.05186428      22.29208057        2       0.11032389      -0.06369808       0.04131797
Pt       7.01803480       4.05186428      22.29208057        2      -0.11032516      -0.06369676       0.04131819
Pt       2.80721392       6.48298285      22.29208057        2       0.03600201       0.02078782      -0.08074652
Pt       5.61442784       6.48298285      22.29208057        2       0.00000085      -0.16097961       0.02964745
Pt       8.42164176       6.48298285      22.29208057        2      -0.03600270       0.02079059      -0.08074521
Pt       0.00154720       0.00089279      24.56436795        1       0.00933045       0.00539057      -0.00225443
Pt       2.80566721       0.00089274      24.56436875        1      -0.00933202       0.00538998      -0.00226381
Pt       5.61442747      -0.01019430      24.56513539        1       0.00000139       0.01072453       0.01351422
Pt       1.40360708       2.42933230      24.56436822        1       0.00000013      -0.01077589      -0.00225398
Pt       4.18729675       2.41753659      24.61312638        1       0.00276282       0.00159558      -0.00095504
Pt       7.04155856       2.41753704      24.61312640        1      -0.00276358       0.00159327      -0.00095418
Pt       2.79838598       4.86733417      24.56513567        1       0.00928518      -0.00536385       0.01351427
Pt       5.61442778       4.88940068      24.61312575        1       0.00000040      -0.00319275      -0.00094256
Pt       8.43046975       4.86733411      24.56513519        1      -0.00928447      -0.00536166       0.01351610
N        5.61442856       3.24149130      26.94056565        0      -0.00003277       0.00000686      -0.03252041
H        6.43456136       2.76798698      26.51488889        0       0.02603282      -0.01502758       0.00650442
H        4.79429435       2.76798748      26.51488789        0      -0.02600649      -0.01501974       0.00651956
H        5.61442744       4.18849984      26.51488807        0       0.00000658       0.03004062       0.00651107
