31
Lattice="8.421641763931781 0.0 0.0 4.2108208819658905 7.293355709136913 0.0 0.0 0.0 44.584161137365626" Properties=species:S:1:pos:R:3:tags:I:1:forces:R:3 energy=-172.761474609375 free_energy=-172.761474609375 stress="0.010289761237800121 1.7940155885298736e-05 0.0001431817509001121 1.7940155885298736e-05 0.010455891489982605 2.118365500791697e-06 0.0001431817509001121 2.118365500791697e-06 3.076330540352501e-05" pbc="T T T"
Pt       1.40360696       0.81037286      20.00000000        3       0.00218925       0.00061536       0.00321847
Pt       4.21082088       0.81037286      20.00000000        3      -0.00350628       0.00066668       0.00237915
Pt       7.01803480       0.81037286      20.00000000        3      -0.00084135       0.00284078      -0.00485703
Pt       2.80721392       3.24149143      20.00000000        3      -0.00090194      -0.00002950      -0.00353885
Pt       5.61442784       3.24149143      20.00000000        3      -0.00228701       0.00241112       0.01940912
Pt       8.42164176       3.24149143      20.00000000        3       0.00146517       0.00183526       0.01590300
Pt       4.21082088       5.67261000      20.00000000        3       0.00199734      -0.00220236       0.00399747
Pt       7.01803480       5.67261000      20.00000000        3      -0.00195559      -0.00240378       0.03659713
Pt       9.82524872       5.67261000      20.00000000        3      -0.00348671      -0.00157492       0.00172186
Pt       0.00000000       1.62074571      22.29208057        2       0.00069802       0.04354974      -0.04282267
Pt       2.80721392       1.62074571      22.29208057        2       0.01690138      -0.06630092      -0.05670023
Pt       5.61442784       1.62074571      22.29208057        2       0.02897261       0.06047723      -0.03392714
Pt       1.40360696       4.05186428      22.29208057        2      -0.11816441       0.05243639       0.01836724
Pt       4.21082088       4.05186428      22.29208057        2       0.18250261       0.07137665       0.06492823
Pt       7.01803480       4.05186428      22.29208057        2      -0.02831139       0.06735704       0.02686961
Pt       2.80721392       6.48298285      22.29208057        2       0.01797946      -0.01325212      -0.05894449
Pt       5.61442784       6.48298285      22.29208057        2       0.05331787      -0.12697724       0.02739120
Pt       8.42164176       6.48298285      22.29208057        2      -0.03652208      -0.09004831      -0.01967006
Pt       0.01051419       0.00627056      24.57091221        1       0.00372535      -0.00178699      -0.01211829
Pt       2.83566354      -0.01586922      24.60179929        1      -0.01504510       0.03898549       0.00962330
Pt       5.64423721       0.00975737      24.57063940        1       0.00260095       0.00682429      -0.00685820
Pt       1.43322669       2.41098356      24.57289291        1       0.02226098      -0.00303255      -0.01404476
Pt       4.21939272       2.41224939      24.57390665        1      -0.00815471       0.01363549      -0.02147640
Pt       7.04676473       2.43565428      24.60072324        1      -0.01824095      -0.01234783       0.01102301
Pt       2.81642213       4.85843515      24.55895352        1       0.00364461      -0.01374575       0.00540575
Pt       5.58278496       4.85352792      24.62803395        1      -0.01854415      -0.01474610      -0.01594426
Pt       8.47441884       4.85389443      24.61623030        1      -0.00413748      -0.01564125       0.00466800
N        7.03210280       4.87508725      26.87165684        0      -0.03199904       0.00018604       0.02696940
H        6.03533859       4.87025141      26.56866818        0      -0.00437751      -0.00256237       0.01816245
H        7.39105762       5.69696666      26.32760085        0      -0.02058496      -0.01511019       0.00019041
H        7.39854881       4.05406594      26.33079566        0      -0.02119503       0.01856454      -0.00592282
