31
Lattice="8.421641763931781 0.0 0.0 4.2108208819658905 7.293355709136913 0.0 0.0 0.0 44.584161137365626" Properties=species:S:1:pos:R:3:tags:I:1:forces:R:3 energy=-173.71566772460938 free_energy=-173.71566772460938 stress="0.010731181129813194 -4.384455909445251e-09 -1.3410476285002915e-08 -4.384455909445251e-09 0.010731152258813381 -1.7167803845197227e-09 -1.3410476285002915e-08 -1.7167803845197227e-09 2.1049963834229857e-05" pbc="T T T"
Pt       1.40360696       0.81037286      20.00000000        3       0.00481632       0.00361662      -0.00801760
Pt       4.21082088       0.81037286      20.00000000        3       0.00056970       0.00240735      -0.00491941
Pt       7.01803480       0.81037286      20.00000000        3      -0.00554402       0.00235940      -0.00801921
Pt       2.80721392       3.24149143      20.00000000        3       0.00180332      -0.00169653      -0.00492036
Pt       5.61442784       3.24149143      20.00000000        3      -0.00237155      -0.00071307      -0.00491995
Pt       8.42164176       3.24149143      20.00000000        3      -0.00012690       0.00453791       0.01194906
Pt       4.21082088       5.67261000      20.00000000        3       0.00072903      -0.00597901      -0.00801861
Pt       7.01803480       5.67261000      20.00000000        3       0.00399094      -0.00215534       0.01195002
Pt       9.82524872       5.67261000      20.00000000        3      -0.00386642      -0.00237641       0.01194957
Pt       0.00000000       1.62074571      22.29208057        2       0.00345850       0.05798909       0.04052314
Pt       2.80721392       1.62074571      22.29208057        2      -0.01074568       0.00534136       0.01779638
Pt       5.61442784       1.62074571      22.29208057        2       0.00074306      -0.01197697       0.01779499
Pt       1.40360696       4.05186428      22.29208057        2      -0.05763670       0.03345745      -0.03198652
Pt       4.21082088       4.05186428      22.29208057        2       0.01000253       0.00663455       0.01779613
Pt       7.01803480       4.05186428      22.29208057        2       0.05779099       0.03318648      -0.03198765
Pt       2.80721392       6.48298285      22.29208057        2      -0.05194804      -0.02600263       0.04052092
Pt       5.61442784       6.48298285      22.29208057        2       0.04849222      -0.03198756       0.04052090
Pt       8.42164176       6.48298285      22.29208057        2      -0.00015745      -0.06664269      -0.03199058
Pt       0.00000026      -0.00000019      24.59135507        1      -0.00000062      -0.00000038      -0.01072592
Pt       2.79901281       0.01404834      24.60009001        1      -0.00886154       0.02333278      -0.01379777
Pt       5.61088666      -0.00383798      24.60838599        1       0.02137232       0.04126666      -0.01027009
Pt       1.40205393       2.43610431      24.60838605        1       0.02505099      -0.03914084      -0.01027778
Pt       4.21082084       2.43111844      24.59176414        1       0.00000030      -0.00000007      -0.01549578
Pt       7.00996889       2.41699167      24.60009000        1      -0.01577362      -0.01933820      -0.01379789
Pt       2.82348087       4.86231515      24.60008972        1       0.02463455      -0.00399115      -0.01379792
Pt       5.61952192       4.86108941      24.60838614        1      -0.04642664      -0.00212552      -0.01027776
Pt       8.42164065       4.86223737      24.65832619        1       0.00000401      -0.00000077      -0.02942377
N        8.42164275       4.86223748      26.72026955        0      -0.00010741      -0.00003472       0.04300451
H        7.45034085       4.86240399      27.04136636        0      -0.01738514       0.00119770       0.00292175
H        8.90743673       5.70332351      27.04136374        0       0.00979349       0.01456186       0.00296275
H        8.90714753       4.02098295      27.04136362        0       0.00769952      -0.01572728       0.00295464
