31
Lattice="8.421641763931781 0.0 0.0 4.2108208819658905 7.293355709136913 0.0 0.0 0.0 44.584161137365626" Properties=species:S:1:pos:R:3:tags:I:1:forces:R:3 energy=-173.71255493164062 free_energy=-173.71255493164062 stress="0.010737682692706585 8.869206480355274e-10 1.0333113253935267e-09 8.869206480355274e-10 0.010737708769738674 -3.0771452053102166e-09 1.0333113253935267e-09 -3.0771452053102166e-09 1.2315801541262772e-05" pbc="T T T"
Pt       1.40360696       0.81037286      20.00000000        3       0.00546863       0.00315443      -0.01009327
Pt       4.21082088       0.81037286      20.00000000        3       0.00000260       0.00356999      -0.00688502
Pt       7.01803480       0.81037286      20.00000000        3      -0.00547035       0.00315456      -0.01009437
Pt       2.80721392       3.24149143      20.00000000        3       0.00309372      -0.00178585      -0.00688639
Pt       5.61442784       3.24149143      20.00000000        3      -0.00309513      -0.00178548      -0.00688684
Pt       8.42164176       3.24149143      20.00000000        3       0.00000099       0.00539056       0.01372850
Pt       4.21082088       5.67261000      20.00000000        3       0.00000232      -0.00631296      -0.01009405
Pt       7.01803480       5.67261000      20.00000000        3       0.00466516      -0.00269270       0.01372942
Pt       9.82524872       5.67261000      20.00000000        3      -0.00466848      -0.00269232       0.01372975
Pt       0.00000000       1.62074571      22.29208057        2       0.00000201       0.06621394       0.03225521
Pt       2.80721392       1.62074571      22.29208057        2      -0.00482872      -0.00278984       0.00164134
Pt       5.61442784       1.62074571      22.29208057        2       0.00482653      -0.00279029       0.00164072
Pt       1.40360696       4.05186428      22.29208057        2      -0.07609491       0.04393344      -0.02059980
Pt       4.21082088       4.05186428      22.29208057        2       0.00000240       0.00557614       0.00164129
Pt       7.01803480       4.05186428      22.29208057        2       0.07609335       0.04393395      -0.02060050
Pt       2.80721392       6.48298285      22.29208057        2      -0.05734494      -0.03310691       0.03225427
Pt       5.61442784       6.48298285      22.29208057        2       0.05734402      -0.03310648       0.03225354
Pt       8.42164176       6.48298285      22.29208057        2       0.00000170      -0.08786459      -0.02060197
Pt       0.00000038      -0.00000024      24.58858446        1      -0.00000059       0.00000086       0.00282145
Pt       2.80441151       0.00899990      24.60083914        1      -0.00085774      -0.00626191       0.00067472
Pt       5.61723028       0.00900000      24.60083879        1       0.00085728      -0.00626460       0.00067431
Pt       1.41000027       2.42419114      24.60083931        1      -0.00585352       0.00238946       0.00067444
Pt       4.21082093       2.43111853      24.59054642        1      -0.00000154       0.00000007      -0.00889581
Pt       7.01164161       2.42419106      24.60083955        1       0.00585531       0.00238870       0.00067608
Pt       2.81640991       4.86016421      24.60083946        1      -0.00499576       0.00387388       0.00067545
Pt       5.60523248       4.86016407      24.60083896        1       0.00499224       0.00387437       0.00067493
Pt       8.42164144       4.86223707      24.67001214        1       0.00000131       0.00000176      -0.03261372
N        8.42164170       4.86223787      26.73726637        0       0.00001365      -0.00005290      -0.01465082
H        7.57837118       5.34909965      27.05381750        0       0.04241510      -0.02448738       0.00639030
H        9.26491230       5.34909952      27.05381493        0      -0.04242475      -0.02449036       0.00638954
H        8.42164186       3.88851166      27.05381529        0      -0.00000202       0.04902828       0.00637715
