31
Lattice="8.421641763931781 0.0 0.0 4.2108208819658905 7.293355709136913 0.0 0.0 0.0 44.584161137365626" Properties=species:S:1:pos:R:3:tags:I:1:forces:R:3 energy=-172.80628967285156 free_energy=-172.80628967285156 stress="0.010336621664464474 2.5370854306316915e-09 5.659117618961318e-10 2.5370854306316915e-09 0.010336632840335369 8.453307387412679e-09 5.659117618961318e-10 8.453307387412679e-09 2.1109977751621045e-05" pbc="T T T"
Pt       1.40360696       0.81037286      20.00000000        3       0.00129057       0.00074227      -0.00833589
Pt       4.21082088       0.81037286      20.00000000        3      -0.00128798       0.00074308      -0.00833523
Pt       7.01803480       0.81037286      20.00000000        3      -0.00000181       0.00278366      -0.00336218
Pt       2.80721392       3.24149143      20.00000000        3       0.00000076      -0.00149050      -0.00833666
Pt       5.61442784       3.24149143      20.00000000        3       0.00012230       0.00007170       0.01724899
Pt       8.42164176       3.24149143      20.00000000        3      -0.00012258       0.00007231       0.01724884
Pt       4.21082088       5.67261000      20.00000000        3       0.00241444      -0.00139080      -0.00336266
Pt       7.01803480       5.67261000      20.00000000        3      -0.00000264      -0.00014090       0.01724905
Pt       9.82524872       5.67261000      20.00000000        3      -0.00241309      -0.00138986      -0.00336307
Pt       0.00000000       1.62074571      22.29208057        2      -0.11445462       0.08732474       0.01453577
Pt       2.80721392       1.62074571      22.29208057        2       0.00000023      -0.00000182      -0.11073698
Pt       5.61442784       1.62074571      22.29208057        2       0.11445389       0.08732544       0.01453474
Pt       1.40360696       4.05186428      22.29208057        2      -0.13285525       0.05545852       0.01453575
Pt       4.21082088       4.05186428      22.29208057        2       0.13285792       0.05545872       0.01453577
Pt       7.01803480       4.05186428      22.29208057        2      -0.00000204       0.00000079       0.08593781
Pt       2.80721392       6.48298285      22.29208057        2       0.00000056       0.00000141      -0.05644561
Pt       5.61442784       6.48298285      22.29208057        2       0.01839738      -0.14278427       0.01453342
Pt       8.42164176       6.48298285      22.29208057        2      -0.01839840      -0.14278285       0.01453361
Pt      -0.00121445      -0.00070155      24.56507421        1      -0.00107954      -0.00062440      -0.00976238
Pt       2.80721399       0.01191111      24.57002378        1      -0.00000083      -0.01414170      -0.00316992
Pt       5.61564252      -0.00070150      24.56507444        1       0.00107949      -0.00062405      -0.00976218
Pt       1.41392256       2.42516282      24.57002374        1      -0.01224875       0.00707104      -0.00317049
Pt       4.20050547       2.42516278      24.57002361        1       0.01224836       0.00707167      -0.00317028
Pt       7.01803469       2.40978240      24.61315528        1       0.00000126       0.00144953       0.00335473
Pt       2.80721389       4.86363976      24.56507466        1       0.00000013       0.00124669      -0.00976188
Pt       5.59595010       4.87290510      24.61315468        1       0.00125350      -0.00072432       0.00335142
Pt       8.44011910       4.87290517      24.61315486        1      -0.00125303      -0.00072516       0.00335252
N        7.01803472       4.05186471      26.94874415        0      -0.00000297      -0.00003415       0.04617906
H        7.84053753       4.52673635      26.53110553        0       0.01026519       0.00592772      -0.01335660
H        7.01803463       3.10211977      26.53110521        0       0.00000257      -0.01182497      -0.01334363
H        6.19553232       4.52673629      26.53110512        0      -0.01026508       0.00593036      -0.01335578
