31
Lattice="8.421641763931781 0.0 0.0 4.2108208819658905 7.293355709136913 0.0 0.0 0.0 44.584161137365626" Properties=species:S:1:pos:R:3:tags:I:1:forces:R:3 energy=-172.80596923828125 free_energy=-172.80596923828125 stress="0.01034083403646946 -5.421131543670299e-09 -4.189923685782304e-10 -5.421131543670299e-09 0.01023807842284441 0.00010186507279286161 -4.189923685782304e-10 0.00010186507279286161 -2.5194132831529714e-05" pbc="T T T"
Pt       1.40360696       0.81037286      20.00000000        3       0.00137022       0.00058632      -0.00833559
Pt       4.21082088       0.81037286      20.00000000        3      -0.00136721       0.00058719      -0.00833470
Pt       7.01803480       0.81037286      20.00000000        3      -0.00000254       0.00054195      -0.01008749
Pt       2.80721392       3.24149143      20.00000000        3       0.00000140      -0.00272473      -0.00847200
Pt       5.61442784       3.24149143      20.00000000        3      -0.00164563       0.00133745       0.01607388
Pt       8.42164176       3.24149143      20.00000000        3       0.00164427       0.00133833       0.01607215
Pt       4.21082088       5.67261000      20.00000000        3       0.00306900      -0.00382197       0.00073215
Pt       7.01803480       5.67261000      20.00000000        3      -0.00000218      -0.00263134       0.02806708
Pt       9.82524872       5.67261000      20.00000000        3      -0.00306774      -0.00382003       0.00073221
Pt       0.00000000       1.62074571      22.29208057        2      -0.06632730       0.08839796      -0.04020029
Pt       2.80721392       1.62074571      22.29208057        2       0.00000210       0.01983092      -0.12073062
Pt       5.61442784       1.62074571      22.29208057        2       0.06632504       0.08840017      -0.04020017
Pt       1.40360696       4.05186428      22.29208057        2      -0.15750197       0.09655831       0.02518894
Pt       4.21082088       4.05186428      22.29208057        2       0.15750381       0.09655437       0.02518867
Pt       7.01803480       4.05186428      22.29208057        2      -0.00000161       0.06662075       0.08368660
Pt       2.80721392       6.48298285      22.29208057        2       0.00000002      -0.00960419      -0.06137121
Pt       5.61442784       6.48298285      22.29208057        2       0.02929173      -0.15445973       0.02591589
Pt       8.42164176       6.48298285      22.29208057        2      -0.02929225      -0.15445924       0.02591736
Pt      -0.00201856       0.01868373      24.56280096        1      -0.01062153      -0.00948050       0.00657436
Pt       2.80721432       0.04623999      24.56969606        1      -0.00000180      -0.04435810      -0.00401193
Pt       5.61644641       0.01868413      24.56280132        1       0.01062256      -0.00948192       0.00657594
Pt       1.40760294       2.45042420      24.56863018        1       0.00294745      -0.02024850       0.00781317
Pt       4.20682475       2.45042413      24.56863147        1      -0.00294738      -0.02024730       0.00780210
Pt       7.01803431       2.42384686      24.59392374        1       0.00000101       0.00319721       0.02678675
Pt       2.80721379       4.87606100      24.56256634        1       0.00000037       0.01987254      -0.00171459
Pt       5.59298732       4.89382023      24.62805558        1       0.02576025      -0.02176842      -0.00591013
Pt       8.44308152       4.89382069      24.62805688        1      -0.02575941      -0.02177020      -0.00592159
N        7.01803493       4.34187093      26.93106490        0      -0.00001456       0.02509428      -0.01027200
H        7.83767532       4.86426504      26.56361350        0      -0.00285092      -0.01865327      -0.00305796
H        7.01803518       3.45220107      26.38980242        0      -0.00000441       0.00728161       0.02855075
H        6.19839412       4.86426545      26.56361365        0       0.00286946      -0.01866980      -0.00305790
