31
Lattice="8.421641763931781 0.0 0.0 4.2108208819658905 7.293355709136913 0.0 0.0 0.0 44.584161137365626" Properties=species:S:1:pos:R:3:tags:I:1:forces:R:3 energy=-172.8036651611328 free_energy=-172.8036651611328 stress="0.010319453664124012 -3.1117248777690065e-09 7.944530588943621e-10 -3.1117248777690065e-09 0.010218457318842411 7.038713374640793e-05 7.944530588943621e-10 7.038713374640793e-05 -1.0949794159387238e-05" pbc="T T T"
Pt       1.40360696       0.81037286      20.00000000        3       0.00222208       0.00139280      -0.00127217
Pt       4.21082088       0.81037286      20.00000000        3      -0.00221906       0.00139400      -0.00127229
Pt       7.01803480       0.81037286      20.00000000        3      -0.00000209      -0.00074047      -0.01569080
Pt       2.80721392       3.24149143      20.00000000        3       0.00000067      -0.00096638      -0.00621271
Pt       5.61442784       3.24149143      20.00000000        3      -0.00289019       0.00222444       0.00617555
Pt       8.42164176       3.24149143      20.00000000        3       0.00288986       0.00222519       0.00617415
Pt       4.21082088       5.67261000      20.00000000        3       0.00240613      -0.00366161       0.00331151
Pt       7.01803480       5.67261000      20.00000000        3      -0.00000278      -0.00306887       0.03510499
Pt       9.82524872       5.67261000      20.00000000        3      -0.00240489      -0.00366034       0.00331074
Pt       0.00000000       1.62074571      22.29208057        2       0.03447456       0.04056303      -0.08589614
Pt       2.80721392       1.62074571      22.29208057        2       0.00000011      -0.08159015      -0.03736383
Pt       5.61442784       1.62074571      22.29208057        2      -0.03447458       0.04056497      -0.08589717
Pt       1.40360696       4.05186428      22.29208057        2      -0.15671921       0.10425846       0.05839304
Pt       4.21082088       4.05186428      22.29208057        2       0.15672295       0.10425802       0.05839310
Pt       7.01803480       4.05186428      22.29208057        2      -0.00000330       0.13902983       0.04898189
Pt       2.80721392       6.48298285      22.29208057        2       0.00000038      -0.02629905      -0.07215525
Pt       5.61442784       6.48298285      22.29208057        2       0.07578828      -0.09864503       0.03033535
Pt       8.42164176       6.48298285      22.29208057        2      -0.07578867      -0.09864373       0.03033300
Pt      -0.00304548       0.02275659      24.56862856        1      -0.00133606      -0.04930270       0.00071725
Pt       2.80721464       0.03047015      24.59719171        1      -0.00000562       0.00794764       0.01626806
Pt       5.61747334       0.02275619      24.56862792        1       0.00133993      -0.04930180       0.00071812
Pt       1.41147538       2.44079666      24.56839008        1       0.01229611       0.00011095      -0.01237470
Pt       4.20295242       2.44079589      24.56839053        1      -0.01229316       0.00011638      -0.01237577
Pt       7.01803448       2.42386936      24.56439420        1      -0.00000053       0.01126085       0.01068728
Pt       2.80721418       4.88438306      24.56182923        1      -0.00000158      -0.04881071       0.00093375
Pt       5.58385955       4.85963036      24.62284096        1       0.01314058      -0.01176535      -0.00582611
Pt       8.45220961       4.85963024      24.62284172        1      -0.01314006      -0.01176484      -0.00582368
N        7.01803569       5.33335664      26.90726339        0      -0.00000197      -0.00693784      -0.04224551
H        7.01803478       6.22020679      26.35831689        0       0.00000604      -0.02616392       0.04145281
H        7.83737771       4.80788221      26.53905170        0      -0.02426837       0.03299233       0.01655742
H        6.19869425       4.80788298      26.53905052        0       0.02426438       0.03298371       0.01655780
