31
Lattice="8.421641763931781 0.0 0.0 4.2108208819658905 7.293355709136913 0.0 0.0 0.0 44.584161137365626" Properties=species:S:1:pos:R:3:tags:I:1:forces:R:3 energy=-172.8055419921875 free_energy=-172.8055419921875 stress="0.01026710495352745 2.5032678152570043e-08 -3.1451634630030867e-09 2.5032678152570043e-08 0.010219133459031582 -0.000113458743726369 -3.1451634630030867e-09 -0.000113458743726369 -5.919468458159827e-05" pbc="T T T"
Pt       1.40360696       0.81037286      20.00000000        3       0.00202985       0.00306372      -0.00474900
Pt       4.21082088       0.81037286      20.00000000        3      -0.00202666       0.00306470      -0.00474828
Pt       7.01803480       0.81037286      20.00000000        3      -0.00000227       0.00165114      -0.01465961
Pt       2.80721392       3.24149143      20.00000000        3       0.00000091       0.00059664      -0.00791216
Pt       5.61442784       3.24149143      20.00000000        3      -0.00193248       0.00454770       0.00620252
Pt       8.42164176       3.24149143      20.00000000        3       0.00193156       0.00454777       0.00620174
Pt       4.21082088       5.67261000      20.00000000        3       0.00229860      -0.00216545       0.00427148
Pt       7.01803480       5.67261000      20.00000000        3      -0.00000250      -0.00018105       0.03382966
Pt       9.82524872       5.67261000      20.00000000        3      -0.00229757      -0.00216410       0.00427139
Pt       0.00000000       1.62074571      22.29208057        2       0.01726829       0.00747096      -0.08239541
Pt       2.80721392       1.62074571      22.29208057        2      -0.00000000      -0.11674464      -0.04283750
Pt       5.61442784       1.62074571      22.29208057        2      -0.01726830       0.00747131      -0.08240189
Pt       1.40360696       4.05186428      22.29208057        2      -0.16515589       0.07757671       0.05782175
Pt       4.21082088       4.05186428      22.29208057        2       0.16515465       0.07757410       0.05780491
Pt       7.01803480       4.05186428      22.29208057        2       0.00000028       0.10184158       0.06141149
Pt       2.80721392       6.48298285      22.29208057        2       0.00000043      -0.06784794      -0.07098389
Pt       5.61442784       6.48298285      22.29208057        2       0.08122843      -0.12512478       0.02002227
Pt       8.42164176       6.48298285      22.29208057        2      -0.08122852      -0.12512726       0.02002453
Pt      -0.00349859      -0.03012306      24.56749098        1      -0.01283212       0.01349372       0.00480495
Pt       2.80721372       0.00720470      24.59225096        1       0.00000319       0.01145773       0.01752460
Pt       5.61792726      -0.03012204      24.56749053        1       0.01282861       0.01348127       0.00481555
Pt       1.40272510       2.40139451      24.56335005        1       0.02536279       0.02807729       0.01108095
Pt       4.21170392       2.40139703      24.56335024        1      -0.02537283       0.02804968       0.01108199
Pt       7.01803375       2.37698469      24.57053357        1       0.00000857       0.04155737      -0.01218624
Pt       2.80721616       4.82862312      24.56492675        1      -0.00002792       0.01905380      -0.01172300
Pt       5.59299697       4.81991242      24.62335562        1      -0.01328706      -0.00108121      -0.02257618
Pt       8.44306844       4.81991400      24.62335805        1       0.01332106      -0.00109588      -0.02259974
N        7.01803317       5.40413063      26.90603367        0      -0.00000835       0.01406549       0.04632390
H        7.01803919       6.30145229      26.37849805        0      -0.00005079      -0.00056138       0.02807269
H        7.84002675       4.88532128      26.54188097        0       0.01503676      -0.00831918      -0.00788837
H        6.19604078       4.88531506      26.54188217        0      -0.01498055      -0.00822959      -0.00790488
