31
Lattice="8.421641763931781 0.0 0.0 4.2108208819658905 7.293355709136913 0.0 0.0 0.0 44.584161137365626" Properties=species:S:1:pos:R:3:tags:I:1:forces:R:3 energy=-173.71585083007812 free_energy=-173.71585083007812 stress="0.010695387609302998 8.842371279627059e-11 -5.291818983010899e-09 8.842371279627059e-11 0.010695410892367363 2.6499906713439714e-09 -5.291818983010899e-09 2.6499906713439714e-09 5.39853390364442e-05" pbc="T T T"
Pt       1.40360696       0.81037286      20.00000000        3       0.00578158       0.00267978      -0.00904933
Pt       4.21082088       0.81037286      20.00000000        3      -0.00040915       0.00292609      -0.00573444
Pt       7.01803480       0.81037286      20.00000000        3      -0.00521589       0.00366335      -0.00904915
Pt       2.80721392       3.24149143      20.00000000        3       0.00274218      -0.00110746      -0.00573575
Pt       5.61442784       3.24149143      20.00000000        3      -0.00233171      -0.00182070      -0.00573456
Pt       8.42164176       3.24149143      20.00000000        3       0.00044941       0.00437553       0.01246902
Pt       4.21082088       5.67261000      20.00000000        3      -0.00056539      -0.00634649      -0.00904974
Pt       7.01803480       5.67261000      20.00000000        3       0.00356195      -0.00257326       0.01246962
Pt       9.82524872       5.67261000      20.00000000        3      -0.00401406      -0.00179663       0.01247022
Pt       0.00000000       1.62074571      22.29208057        2      -0.00116786       0.06463689       0.03390569
Pt       2.80721392       1.62074571      22.29208057        2      -0.00210177      -0.01191826       0.00323736
Pt       5.61442784       1.62074571      22.29208057        2       0.01137124       0.00413678       0.00323997
Pt       1.40360696       4.05186428      22.29208057        2      -0.06639351       0.03545052      -0.02262921
Pt       4.21082088       4.05186428      22.29208057        2      -0.00926522       0.00777884       0.00323760
Pt       7.01803480       4.05186428      22.29208057        2       0.06389484       0.03977193      -0.02262613
Pt       2.80721392       6.48298285      22.29208057        2      -0.05539497      -0.03332858       0.03390353
Pt       5.61442784       6.48298285      22.29208057        2       0.05656090      -0.03130770       0.03390279
Pt       8.42164176       6.48298285      22.29208057        2       0.00249714      -0.07522181      -0.02262997
Pt       0.00000028      -0.00000015      24.58918292        1      -0.00000118       0.00000025      -0.00004014
Pt       2.80932759      -0.00204147      24.60570041        1       0.00002029       0.00689775       0.00132906
Pt       5.62556417       0.01952901      24.60028287        1      -0.01657344      -0.02170740      -0.01355483
Pt       1.41495178       2.41170928      24.60028271        1      -0.01051488       0.02520920      -0.01355308
Pt       4.21082086       2.43111843      24.58864070        1       0.00000265      -0.00000046       0.00205174
Pt       7.01874586       2.43396939      24.60570060        1      -0.00598649      -0.00343248       0.00132130
Pt       2.80438921       4.86142740      24.60570035        1       0.00596475      -0.00346582       0.00132990
Pt       5.59194663       4.86211689      24.60028275        1       0.02708937      -0.00349951      -0.01355444
Pt       8.42164132       4.86223704      24.65962303        1       0.00000076       0.00000008       0.02951545
N        8.42164204       4.86223717      26.72769444        0      -0.00004882       0.00002179       0.01214421
H        7.93539410       5.70202021      27.05203641        0      -0.01177609       0.01794820      -0.01453769
H        9.39203846       4.86344865      27.05203641        0       0.02148916       0.00122279      -0.01451938
H        7.93749227       4.02124318      27.05203671        0      -0.00966583      -0.01919326      -0.01452959
