31
Lattice="8.421641763931781 0.0 0.0 4.2108208819658905 7.293355709136913 0.0 0.0 0.0 44.584161137365626" Properties=species:S:1:pos:R:3:tags:I:1:forces:R:3 energy=-172.793212890625 free_energy=-172.793212890625 stress="0.010255723260343075 6.437246291568499e-09 4.135508824276712e-09 6.437246291568499e-09 0.010255726985633373 -4.625240468403291e-10 4.135508824276712e-09 -4.625240468403291e-10 -4.67164718429558e-05" pbc="T T T"
Pt       1.40360696       0.81037286      20.00000000        3       0.00000098      -0.00000219      -0.00486052
Pt       4.21082088       0.81037286      20.00000000        3      -0.00227661       0.00266056       0.00166860
Pt       7.01803480       0.81037286      20.00000000        3       0.00290353       0.00139668       0.00231352
Pt       2.80721392       3.24149143      20.00000000        3      -0.00024144      -0.00321633       0.00231251
Pt       5.61442784       3.24149143      20.00000000        3      -0.00000175      -0.00000011       0.03026345
Pt       8.42164176       3.24149143      20.00000000        3      -0.00116431      -0.00330396       0.00166512
Pt       4.21082088       5.67261000      20.00000000        3       0.00344744       0.00064350       0.00166741
Pt       7.01803480       5.67261000      20.00000000        3      -0.00266624       0.00181975       0.00231305
Pt       9.82524872       5.67261000      20.00000000        3      -0.00000148       0.00000223      -0.01544544
Pt       0.00000000       1.62074571      22.29208057        2      -0.13467866       0.06624690       0.03022549
Pt       2.80721392       1.62074571      22.29208057        2       0.12471464       0.08350996       0.03022297
Pt       5.61442784       1.62074571      22.29208057        2      -0.00400777       0.11404270       0.03495349
Pt       1.40360696       4.05186428      22.29208057        2       0.00719973      -0.04541001      -0.07373701
Pt       4.21082088       4.05186428      22.29208057        2       0.10077028      -0.05355342       0.03495322
Pt       7.01803480       4.05186428      22.29208057        2      -0.09676581      -0.06049024       0.03495517
Pt       2.80721392       6.48298285      22.29208057        2       0.03572735       0.02894030      -0.07373621
Pt       5.61442784       6.48298285      22.29208057        2       0.00996490      -0.14976034       0.03022387
Pt       8.42164176       6.48298285      22.29208057        2      -0.04292494       0.01647353      -0.07373659
Pt       0.00872994      -0.00866359      24.56865854        1      -0.01408532       0.02865726      -0.02491541
Pt       2.81035179       0.01189189      24.56865839        1      -0.01777338      -0.02652881      -0.02491514
Pt       5.60391753      -0.01354371      24.56854443        1       0.02909873       0.03360096      -0.00102380
Pt       1.39173974       2.42789009      24.56865854        1       0.03185778      -0.00213249      -0.02491502
Pt       4.17594216       2.43083586      24.60715636        1       0.00514270      -0.02171626      -0.00093186
Pt       7.03571838       2.40105375      24.60715649        1       0.01623781       0.01531137      -0.00093311
Pt       2.80074003       4.87811095      24.56854426        1       0.01455150      -0.04200109      -0.00102244
Pt       5.63162200       4.89258422      24.60715620        1      -0.02137417       0.00640603      -0.00093322
Pt       8.43862620       4.85990642      24.56854394        1      -0.04365477       0.00840344      -0.00102085
N        5.61442790       3.24149131      26.89807375        0      -0.00002737       0.00000403       0.02242386
H        4.70372743       2.98488427      26.46326737        0       0.01598191      -0.02417251       0.02066145
H        5.84754931       4.15848393      26.46326740        0      -0.02891576      -0.00172760       0.02065424
H        6.29200654       2.58110644      26.46326775        0       0.01296068       0.02589607       0.02064900
