31
Lattice="8.421641763931781 0.0 0.0 4.2108208819658905 7.293355709136913 0.0 0.0 0.0 44.584161137365626" Properties=species:S:1:pos:R:3:tags:I:1:forces:R:3 energy=-172.5789794921875 free_energy=-172.5789794921875 stress="0.010473080910742283 -9.8422392458275e-10 -5.680883319314489e-09 -9.8422392458275e-10 0.010473092086613178 2.693522294094919e-09 -5.680883319314489e-09 2.693522294094919e-09 -0.00020023073011543602" pbc="T T T"
Pt       1.40360696       0.81037286      20.00000000        3       0.00000069      -0.00000234      -0.00540200
Pt       4.21082088       0.81037286      20.00000000        3      -0.00074450       0.00084722      -0.00204441
Pt       7.01803480       0.81037286      20.00000000        3       0.00079386       0.00067883      -0.00220022
Pt       2.80721392       3.24149143      20.00000000        3       0.00019198      -0.00102999      -0.00220039
Pt       5.61442784       3.24149143      20.00000000        3      -0.00000175       0.00000012       0.00783703
Pt       8.42164176       3.24149143      20.00000000        3      -0.00036013      -0.00107033      -0.00204641
Pt       4.21082088       5.67261000      20.00000000        3       0.00111037       0.00022359      -0.00204495
Pt       7.01803480       5.67261000      20.00000000        3      -0.00099035       0.00035127      -0.00220156
Pt       9.82524872       5.67261000      20.00000000        3      -0.00000083       0.00000218      -0.00681672
Pt       0.00000000       1.62074571      22.29208057        2      -0.03240158       0.01846170      -0.02421933
Pt       2.80721392       1.62074571      22.29208057        2       0.03219246       0.01882863      -0.02422099
Pt       5.61442784       1.62074571      22.29208057        2      -0.00152974       0.04197983       0.02926044
Pt       1.40360696       4.05186428      22.29208057        2      -0.00078318      -0.01329003      -0.03097359
Pt       4.21082088       4.05186428      22.29208057        2       0.03712245      -0.01966866       0.02926069
Pt       7.01803480       4.05186428      22.29208057        2      -0.03559607      -0.02231313       0.02926109
Pt       2.80721392       6.48298285      22.29208057        2       0.01190198       0.00596659      -0.03097406
Pt       5.61442784       6.48298285      22.29208057        2       0.00020997      -0.03729258      -0.02422185
Pt       8.42164176       6.48298285      22.29208057        2      -0.01111543       0.00732768      -0.03097491
Pt       0.00192654       0.00033103      24.57723232        1      -0.00364970      -0.00612918      -0.00424212
Pt       2.80596399       0.00150252      24.57723235        1       0.00713217      -0.00009542      -0.00424257
Pt       5.61385814      -0.00636831      24.57875348        1      -0.00299021       0.01931976      -0.00733241
Pt       1.40293083       2.42928458      24.57723249        1      -0.00348416       0.00622473      -0.00424287
Pt       4.19613085       2.42546250      24.58945428        1       0.01929843       0.01753132       0.00628379
Pt       7.03027797       2.42122468      24.58945445        1      -0.02483052       0.00794622       0.00628401
Pt       2.80198377       4.86591449      24.57875365        1       0.01822813      -0.00706854      -0.00733221
Pt       5.61687449       4.87778718      24.58945434        1       0.00553263      -0.02547874       0.00628366
Pt       8.42744137       4.86492832      24.57875374        1      -0.01523704      -0.01225146      -0.00733051
N        5.61442725       3.24149152      27.59559726        0       0.00004649      -0.00000848       0.00375122
H        4.66971593       3.23643183      27.19906560        0       0.02432069      -0.02474692       0.03566828
H        6.08240228       4.06216570      27.19906523        0      -0.03361490      -0.00871617       0.03568500
H        6.09116571       2.42587667      27.19906525        0       0.00924754       0.03347206       0.03568903
