31
Lattice="8.421641763931781 0.0 0.0 4.2108208819658905 7.293355709136913 0.0 0.0 0.0 44.584161137365626" Properties=species:S:1:pos:R:3:tags:I:1:forces:R:3 energy=-172.79193115234375 free_energy=-172.79193115234375 stress="0.010310133919119835 1.0121113946937044e-09 -4.668772035643087e-09 1.0121113946937044e-09 0.010310128331184387 -1.175355146543211e-09 -4.668772035643087e-09 -1.175355146543211e-09 -5.317763861967251e-05" pbc="T T T"
Pt       1.40360696       0.81037286      20.00000000        3       0.00082329       0.00125817      -0.00642774
Pt       4.21082088       0.81037286      20.00000000        3      -0.00150034       0.00007973      -0.00642711
Pt       7.01803480       0.81037286      20.00000000        3       0.00026556       0.00262389      -0.00198203
Pt       2.80721392       3.24149143      20.00000000        3       0.00068068      -0.00134247      -0.00642788
Pt       5.61442784       3.24149143      20.00000000        3       0.00013058      -0.00073266       0.01711345
Pt       8.42164176       3.24149143      20.00000000        3       0.00056973       0.00048192       0.01711231
Pt       4.21082088       5.67261000      20.00000000        3       0.00214209      -0.00154398      -0.00198191
Pt       7.01803480       5.67261000      20.00000000        3      -0.00070321       0.00025418       0.01711303
Pt       9.82524872       5.67261000      20.00000000        3      -0.00240955      -0.00107817      -0.00198224
Pt       0.00000000       1.62074571      22.29208057        2      -0.10593904       0.07567832       0.01753262
Pt       2.80721392       1.62074571      22.29208057        2       0.00000059      -0.00000100      -0.12336168
Pt       5.61442784       1.62074571      22.29208057        2       0.11871350       0.08205885       0.00725979
Pt       1.40360696       4.05186428      22.29208057        2      -0.13041985       0.06178118       0.00726166
Pt       4.21082088       4.05186428      22.29208057        2       0.11851252       0.05390767       0.01753418
Pt       7.01803480       4.05186428      22.29208057        2      -0.00000467      -0.00000067       0.07267456
Pt       2.80721392       6.48298285      22.29208057        2       0.00000043      -0.00000090      -0.04818333
Pt       5.61442784       6.48298285      22.29208057        2       0.01170636      -0.14384031       0.00725941
Pt       8.42164176       6.48298285      22.29208057        2      -0.01256973      -0.12958324       0.01752974
Pt       0.00401448      -0.01182654      24.56825650        1      -0.01274590       0.02477515      -0.02905644
Pt       2.79849624       0.01462115      24.57019430        1       0.02185107      -0.03447738      -0.00114712
Pt       5.62266276       0.00938964      24.56825671        1      -0.01508290      -0.02342894      -0.02905779
Pt       1.42062866       2.43135771      24.57019439        1      -0.04078312      -0.00168655      -0.00114594
Pt       4.20251742       2.41625793      24.57019451        1       0.01893153       0.03616264      -0.00114574
Pt       7.03631878       2.40891766      24.60961162        1      -0.02603458      -0.01960336      -0.00390851
Pt       2.79496482       4.86467369      24.56825825        1       0.02783054      -0.00134731      -0.02906722
Pt       5.58605936       4.85750286      24.60961157        1      -0.00396165       0.03234793      -0.00390944
Pt       8.43172597       4.88917157      24.60961050        1       0.02999538      -0.01274249      -0.00389682
N        7.01803427       4.05186409      26.91369438        0       0.00001793       0.00001397       0.03991190
H        6.10805352       4.30711141      26.47645314        0       0.02096440       0.02486861       0.02026657
H        7.69407603       4.71230716      26.47645427        0       0.01104063      -0.03059792       0.02027275
H        7.25197493       3.13617455      26.47645350        0      -0.03202233       0.00571515       0.02026700
