31
Lattice="8.421641763931781 0.0 0.0 4.2108208819658905 7.293355709136913 0.0 0.0 0.0 44.584161137365626" Properties=species:S:1:pos:R:3:tags:I:1:forces:R:3 energy=-172.8047332763672 free_energy=-172.8047332763672 stress="0.010281877592206001 -3.1859743732098877e-09 4.472879400196916e-09 -3.1859743732098877e-09 0.010281887836754322 -4.026679878421646e-09 4.472879400196916e-09 -4.026679878421646e-09 -4.733258901978843e-05" pbc="T T T"
Pt       1.40360696       0.81037286      20.00000000        3       0.00149325       0.00066632      -0.01030847
Pt       4.21082088       0.81037286      20.00000000        3      -0.00132302       0.00095603      -0.01030806
Pt       7.01803480       0.81037286      20.00000000        3      -0.00020861       0.00323753      -0.00451028
Pt       2.80721392       3.24149143      20.00000000        3      -0.00016579      -0.00162740      -0.01031068
Pt       5.61442784       3.24149143      20.00000000        3       0.00040254       0.00062913       0.01848310
Pt       8.42164176       3.24149143      20.00000000        3      -0.00074610       0.00003645       0.01848248
Pt       4.21082088       5.67261000      20.00000000        3       0.00291098      -0.00143919      -0.00451112
Pt       7.01803480       5.67261000      20.00000000        3       0.00033990      -0.00066269       0.01848289
Pt       9.82524872       5.67261000      20.00000000        3      -0.00270264      -0.00179622      -0.00451222
Pt       0.00000000       1.62074571      22.29208057        2      -0.12135604       0.09932683      -0.00056705
Pt       2.80721392       1.62074571      22.29208057        2       0.00000053      -0.00000101      -0.11621165
Pt       5.61442784       1.62074571      22.29208057        2       0.11672587       0.09302990       0.00285116
Pt       1.40360696       4.05186428      22.29208057        2      -0.13892919       0.05457295       0.00285109
Pt       4.21082088       4.05186428      22.29208057        2       0.14670101       0.05543038      -0.00056933
Pt       7.01803480       4.05186428      22.29208057        2      -0.00000270      -0.00000178       0.08545315
Pt       2.80721392       6.48298285      22.29208057        2       0.00000043       0.00000256      -0.07485944
Pt       5.61442784       6.48298285      22.29208057        2       0.02220110      -0.14760217       0.00284803
Pt       8.42164176       6.48298285      22.29208057        2      -0.02534206      -0.15475754      -0.00057014
Pt      -0.00302626       0.00561324      24.55896110        1      -0.00067405      -0.02665355       0.02303989
Pt       2.80731617       0.00952162      24.56701086        1      -0.00320790       0.00693857       0.01092948
Pt       5.61107919      -0.00542817      24.55896147        1       0.02342183       0.01274728       0.02304000
Pt       1.41180200       2.42626881      24.56701126        1       0.00761205      -0.00068880       0.01092963
Pt       4.20252322       2.42644585      24.56701127        1      -0.00440156      -0.00624807       0.01092876
Pt       7.01125332       2.41007814      24.61569719        1       0.01989958       0.00553805       0.00413182
Pt       2.81358946       4.86205162      24.55896093        1      -0.02275307       0.01390906       0.02304073
Pt       5.59959682       4.87862964      24.61569689        1      -0.00515078      -0.02000427       0.00414335
Pt       8.44325377       4.86688487      24.61569568        1      -0.01474427       0.01446174       0.00413976
N        7.01803577       4.05186385      26.95928071        0      -0.00002746       0.00002404       0.01758769
H        7.80527391       4.58166099      26.53937278        0       0.01356469      -0.00316931      -0.01470884
H        7.08323312       3.10519573      26.53937592        0      -0.00951588      -0.01016282      -0.01471420
H        6.16559785       4.46873517      26.53937547        0      -0.00402251       0.01330807      -0.01470149
