31
Lattice="8.421641763931781 0.0 0.0 4.2108208819658905 7.293355709136913 0.0 0.0 0.0 44.584161137365626" Properties=species:S:1:pos:R:3:tags:I:1:forces:R:3 energy=-173.7161865234375 free_energy=-173.7161865234375 stress="0.010666707530617714 -2.9817837088330634e-08 1.0198655253645939e-08 -2.9817837088330634e-08 0.010666755959391594 -2.181617020369231e-08 1.0198655253645939e-08 -2.181617020369231e-08 -1.7696537497613463e-06" pbc="T T T"
Pt       1.40360696       0.81037286      20.00000000        3       0.00502279       0.00367301      -0.00957403
Pt       4.21082088       0.81037286      20.00000000        3       0.00067051       0.00312247      -0.00628442
Pt       7.01803480       0.81037286      20.00000000        3      -0.00569644       0.00250953      -0.00957438
Pt       2.80721392       3.24149143      20.00000000        3       0.00237261      -0.00214167      -0.00628549
Pt       5.61442784       3.24149143      20.00000000        3      -0.00304155      -0.00098340      -0.00628510
Pt       8.42164176       3.24149143      20.00000000        3       0.00054041       0.00469339       0.01201886
Pt       4.21082088       5.67261000      20.00000000        3       0.00067474      -0.00618579      -0.00957462
Pt       7.01803480       5.67261000      20.00000000        3       0.00379202      -0.00281087       0.01202002
Pt       9.82524872       5.67261000      20.00000000        3      -0.00433512      -0.00187675       0.01201969
Pt       0.00000000       1.62074571      22.29208057        2       0.00612062       0.06274447       0.02847427
Pt       2.80721392       1.62074571      22.29208057        2      -0.00941762       0.00433088      -0.00397710
Pt       5.61442784       1.62074571      22.29208057        2       0.00095419      -0.01032549      -0.00397792
Pt       1.40360696       4.05186428      22.29208057        2      -0.07003483       0.03508586      -0.02902609
Pt       4.21082088       4.05186428      22.29208057        2       0.00846360       0.00599027      -0.00397955
Pt       7.01803480       4.05186428      22.29208057        2       0.06539927       0.04311076      -0.02902799
Pt       2.80721392       6.48298285      22.29208057        2      -0.05739981      -0.02607328       0.02847440
Pt       5.61442784       6.48298285      22.29208057        2       0.05128109      -0.03666975       0.02847309
Pt       8.42164176       6.48298285      22.29208057        2       0.00463480      -0.07819186      -0.02902689
Pt       0.00000090       0.00000016      24.58874903        1      -0.00000131       0.00000095      -0.00018570
Pt       2.80256825       0.01090762      24.59462766        1      -0.00539922       0.00066527       0.01184481
Pt       5.61709923       0.00668650      24.60592601        1      -0.00698269      -0.01683798      -0.00247560
Pt       1.40806298       2.42546249      24.60592585        1      -0.01109230       0.01446396      -0.00247400
Pt       4.21082139       2.43111974      24.58900311        1      -0.00000067      -0.00000561      -0.00093845
Pt       7.01091221       2.42164092      24.59462797        1       0.00212083      -0.00500847       0.01184601
Pt       2.81898314       4.86080771      24.59462765        1       0.00326850       0.00434304       0.01184553
Pt       5.60730069       4.86120735      24.60592562        1       0.01807424       0.00237296      -0.00247368
Pt       8.42163909       4.86223656      24.65974592        1       0.00000166       0.00000392       0.03702676
N        8.42163839       4.86223738      26.72996776        0       0.00015104      -0.00019914      -0.04316473
H        7.44890457       4.86551561      27.04814084        0       0.00642532       0.00116929       0.00144037
H        8.91085086       5.70301152      27.04813151        0      -0.00222496      -0.00616683       0.00145009
H        8.90517165       4.01817892      27.04813603        0      -0.00434177       0.00519685       0.00137175
