31
Lattice="8.421641763931781 0.0 0.0 4.2108208819658905 7.293355709136913 0.0 0.0 0.0 44.584161137365626" Properties=species:S:1:pos:R:3:tags:I:1:forces:R:3 energy=-172.80612182617188 free_energy=-172.80612182617188 stress="0.010317431762814522 1.0063511135527392e-09 2.5574857787091787e-09 1.0063511135527392e-09 0.010317442938685417 6.0128124701464e-10 2.5574857787091787e-09 6.0128124701464e-10 1.469758808525512e-05" pbc="T T T"
Pt       1.40360696       0.81037286      20.00000000        3       0.00118202       0.00068014      -0.00975609
Pt       4.21082088       0.81037286      20.00000000        3      -0.00117942       0.00068086      -0.00975573
Pt       7.01803480       0.81037286      20.00000000        3      -0.00000197       0.00306435      -0.00310165
Pt       2.80721392       3.24149143      20.00000000        3       0.00000044      -0.00136489      -0.00975648
Pt       5.61442784       3.24149143      20.00000000        3       0.00054082       0.00031345       0.01786676
Pt       8.42164176       3.24149143      20.00000000        3      -0.00054098       0.00031383       0.01786625
Pt       4.21082088       5.67261000      20.00000000        3       0.00265772      -0.00153201      -0.00310177
Pt       7.01803480       5.67261000      20.00000000        3      -0.00000267      -0.00062444       0.01786602
Pt       9.82524872       5.67261000      20.00000000        3      -0.00265646      -0.00153055      -0.00310242
Pt       0.00000000       1.62074571      22.29208057        2      -0.12057719       0.08953641       0.01156754
Pt       2.80721392       1.62074571      22.29208057        2       0.00000006      -0.00000229      -0.12116235
Pt       5.61442784       1.62074571      22.29208057        2       0.12057743       0.08954032       0.01156424
Pt       1.40360696       4.05186428      22.29208057        2      -0.13783464       0.05965357       0.01156449
Pt       4.21082088       4.05186428      22.29208057        2       0.13783774       0.05965390       0.01156356
Pt       7.01803480       4.05186428      22.29208057        2      -0.00000274      -0.00000006       0.08417691
Pt       2.80721392       6.48298285      22.29208057        2       0.00000269       0.00000248      -0.05945350
Pt       5.61442784       6.48298285      22.29208057        2       0.01725212      -0.14919236       0.01156579
Pt       8.42164176       6.48298285      22.29208057        2      -0.01725465      -0.14919184       0.01156440
Pt      -0.00072209      -0.00041753      24.56338281        1      -0.00592837      -0.00342066      -0.00191090
Pt       2.80721414       0.01175058      24.56734046        1      -0.00000092      -0.01475286       0.01010521
Pt       5.61515022      -0.00041727      24.56338211        1       0.00592733      -0.00342260      -0.00190014
Pt       1.41378378       2.42524313      24.56734087        1      -0.01277809       0.00737519       0.01010601
Pt       4.20064454       2.42524336      24.56734022        1       0.01277728       0.00737298       0.01010521
Pt       7.01803484       2.41191749      24.61556671        1       0.00000015      -0.00761214      -0.00048097
Pt       2.80721407       4.86307099      24.56338152        1      -0.00000211       0.00684710      -0.00189909
Pt       5.59779883       4.87183729      24.61556668        1      -0.00658898       0.00380760      -0.00048107
Pt       8.43827006       4.87183740      24.61556672        1       0.00659291       0.00380526      -0.00048109
N        7.01803492       4.05186423      26.96079405        0      -0.00001480      -0.00000040      -0.02615479
H        7.01803506       3.10656535      26.53156553        0      -0.00000132      -0.03145812       0.00500478
H        6.19938213       4.52451397      26.53156510        0      -0.02724539       0.01572335       0.00500849
H        7.83668720       4.52451349      26.53156540        0       0.02726193       0.01573468       0.00500180
