31
Lattice="8.421641763931781 0.0 0.0 4.2108208819658905 7.293355709136913 0.0 0.0 0.0 44.584161137365626" Properties=species:S:1:pos:R:3:tags:I:1:forces:R:3 energy=-172.65194702148438 free_energy=-172.65194702148438 stress="0.010527013801038265 -7.030495630111488e-10 -4.527294095169054e-09 -7.030495630111488e-10 0.010527021251618862 -4.625240468403291e-11 -4.527294095169054e-09 -4.625240468403291e-11 0.00012924952898174524" pbc="T T T"
Pt       1.40360696       0.81037286      20.00000000        3       0.00000057      -0.00000224      -0.00399050
Pt       4.21082088       0.81037286      20.00000000        3      -0.00164412       0.00305869       0.01138940
Pt       7.01803480       0.81037286      20.00000000        3       0.00164411       0.00305844       0.01138848
Pt       2.80721392       3.24149143      20.00000000        3       0.00182829      -0.00295620       0.01138777
Pt       5.61442784       3.24149143      20.00000000        3      -0.00000194       0.00000035       0.04826760
Pt       8.42164176       3.24149143      20.00000000        3      -0.00182609      -0.00295506       0.01138711
Pt       4.21082088       5.67261000      20.00000000        3       0.00347579      -0.00010347       0.01138923
Pt       7.01803480       5.67261000      20.00000000        3      -0.00347589      -0.00010245       0.01138744
Pt       9.82524872       5.67261000      20.00000000        3      -0.00000127       0.00000241      -0.00338772
Pt       0.00000000       1.62074571      22.29208057        2      -0.12623416       0.07287928       0.01766104
Pt       2.80721392       1.62074571      22.29208057        2       0.12623523       0.07287981       0.01765946
Pt       5.61442784       1.62074571      22.29208057        2      -0.00000081       0.09585255      -0.00173215
Pt       1.40360696       4.05186428      22.29208057        2       0.00000055      -0.01844520      -0.03357223
Pt       4.21082088       4.05186428      22.29208057        2       0.08301406      -0.04792766      -0.00173369
Pt       7.01803480       4.05186428      22.29208057        2      -0.08301474      -0.04792904      -0.00173263
Pt       2.80721392       6.48298285      22.29208057        2       0.01597451       0.00922420      -0.03357366
Pt       5.61442784       6.48298285      22.29208057        2      -0.00000231      -0.14576153       0.01765873
Pt       8.42164176       6.48298285      22.29208057        2      -0.01597229       0.00922580      -0.03357349
Pt       0.00357447       0.00206354      24.56715616        1      -0.00150418      -0.00087129      -0.00899953
Pt       2.80363943       0.00206332      24.56715620        1       0.00150674      -0.00086739      -0.00899988
Pt       5.61442791      -0.00256655      24.58162168        1      -0.00000229      -0.00451444      -0.00637349
Pt       1.40360698       2.42699096      24.56715629        1       0.00000167       0.00173856      -0.00899869
Pt       4.18471015       2.41604336      24.62652674        1       0.00348055       0.00200818      -0.00726309
Pt       7.04414544       2.41604322      24.62652698        1      -0.00348115       0.00200780      -0.00727127
Pt       2.80499157       4.86352028      24.58162158        1      -0.00390915       0.00225767      -0.00637276
Pt       5.61442782       4.89238707      24.62652679        1      -0.00000381      -0.00401646      -0.00726274
Pt       8.42386376       4.86352008      24.58162171        1       0.00391285       0.00225844      -0.00637090
N        5.61442779       3.24149174      26.85795378        0       0.00002051      -0.00001157       0.01038261
H        6.41149541       3.70167812      26.34495143        0      -0.02198282      -0.01268492       0.00042158
H        5.61442836       2.32111777      26.34495161        0      -0.00000641       0.02538081       0.00042099
H        4.81736109       3.70167853      26.34495172        0       0.02196807      -0.01268379       0.00040707
