31
Lattice="8.421641763931781 0.0 0.0 4.2108208819658905 7.293355709136913 0.0 0.0 0.0 44.584161137365626" Properties=species:S:1:pos:R:3:tags:I:1:forces:R:3 energy=-173.71566772460938 free_energy=-173.71566772460938 stress="0.010731170885264874 1.9264126294160633e-08 -1.0369380909480697e-08 1.9264126294160633e-08 0.010731196962296963 -1.3087389838517538e-08 -1.0369380909480697e-08 -1.3087389838517538e-08 2.107641012116801e-05" pbc="T T T"
Pt       1.40360696       0.81037286      20.00000000        3       0.00554269       0.00235856      -0.00801799
Pt       4.21082088       0.81037286      20.00000000        3      -0.00056544       0.00240736      -0.00491875
Pt       7.01803480       0.81037286      20.00000000        3      -0.00481763       0.00361754      -0.00801778
Pt       2.80721392       3.24149143      20.00000000        3       0.00237113      -0.00071338      -0.00492018
Pt       5.61442784       3.24149143      20.00000000        3      -0.00180432      -0.00169591      -0.00492001
Pt       8.42164176       3.24149143      20.00000000        3       0.00012904       0.00453766       0.01194829
Pt       4.21082088       5.67261000      20.00000000        3      -0.00072423      -0.00597889      -0.00801817
Pt       7.01803480       5.67261000      20.00000000        3       0.00386250      -0.00237763       0.01194918
Pt       9.82524872       5.67261000      20.00000000        3      -0.00399439      -0.00215505       0.01194999
Pt       0.00000000       1.62074571      22.29208057        2      -0.00345421       0.05798601       0.04052510
Pt       2.80721392       1.62074571      22.29208057        2      -0.00074475      -0.01197910       0.01779548
Pt       5.61442784       1.62074571      22.29208057        2       0.01074286       0.00534018       0.01779546
Pt       1.40360696       4.05186428      22.29208057        2      -0.05779297       0.03318500      -0.03198764
Pt       4.21082088       4.05186428      22.29208057        2      -0.00999785       0.00663428       0.01779637
Pt       7.01803480       4.05186428      22.29208057        2       0.05763349       0.03345805      -0.03198826
Pt       2.80721392       6.48298285      22.29208057        2      -0.04849085      -0.03198570       0.04052316
Pt       5.61442784       6.48298285      22.29208057        2       0.05194559      -0.02599991       0.04052296
Pt       8.42164176       6.48298285      22.29208057        2       0.00015885      -0.06663978      -0.03199014
Pt       0.00000018      -0.00000026      24.59135544        1       0.00000095      -0.00000068      -0.01073328
Pt       2.81075576      -0.00383820      24.60838648        1      -0.02137339       0.04126476      -0.01027726
Pt       5.62262919       0.01404840      24.60008932        1       0.00885824       0.02332783      -0.01379770
Pt       1.41167326       2.41699110      24.60008965        1       0.01577103      -0.01933522      -0.01379718
Pt       4.21082091       2.43111830      24.59176407        1       0.00000175       0.00000145      -0.01549533
Pt       7.01958773       2.43610373      24.60838744        1      -0.02505076      -0.03914197      -0.01027654
Pt       2.80211936       4.86108907      24.60838664        1       0.04642143      -0.00212492      -0.01027678
Pt       5.59816041       4.86231502      24.60008951        1      -0.02463471      -0.00399196      -0.01379749
Pt       8.42164008       4.86223644      24.65832594        1       0.00000339       0.00000046      -0.02941027
N        8.42164187       4.86223839      26.72026844        0      -0.00005907      -0.00010795       0.04308879
H        7.93613702       4.02098348      27.04137168        0      -0.00763917      -0.01562639       0.00288557
H        7.93584815       5.70332398      27.04136908        0      -0.00976723       0.01453190       0.00292940
H        9.39294105       4.86240479      27.04136600        0       0.01746804       0.00120327       0.00293083
