31
Lattice="8.421641763931781 0.0 0.0 4.2108208819658905 7.293355709136913 0.0 0.0 0.0 44.584161137365626" Properties=species:S:1:pos:R:3:tags:I:1:forces:R:3 energy=-173.70555114746094 free_energy=-173.70555114746094 stress="0.010602826252579689 -2.6026838895631954e-05 -0.00015824285219423473 -2.6026838895631954e-05 0.010674882680177689 2.9960272513562813e-05 -0.00015824285219423473 2.9960272513562813e-05 2.1774462766188662e-06" pbc="T T T"
Pt       1.40360696       0.81037286      20.00000000        3       0.00810322       0.00230907      -0.00733623
Pt       4.21082088       0.81037286      20.00000000        3      -0.00053556       0.00227125      -0.00498044
Pt       7.01803480       0.81037286      20.00000000        3      -0.00364619       0.00380094      -0.00840348
Pt       2.80721392       3.24149143      20.00000000        3       0.00392593      -0.00243807      -0.01002106
Pt       5.61442784       3.24149143      20.00000000        3      -0.00184750      -0.00249641      -0.00635219
Pt       8.42164176       3.24149143      20.00000000        3       0.00197595       0.00460676       0.01670516
Pt       4.21082088       5.67261000      20.00000000        3       0.00161053      -0.00623321      -0.01460406
Pt       7.01803480       5.67261000      20.00000000        3       0.00586861      -0.00199187       0.01733792
Pt       9.82524872       5.67261000      20.00000000        3      -0.00382204      -0.00329981       0.01100314
Pt       0.00000000       1.62074571      22.29208057        2      -0.02229900       0.08040364       0.02936886
Pt       2.80721392       1.62074571      22.29208057        2      -0.02904588      -0.02441709       0.00023611
Pt       5.61442784       1.62074571      22.29208057        2       0.00414419       0.00796784       0.00705571
Pt       1.40360696       4.05186428      22.29208057        2      -0.12290381       0.05279821       0.00206677
Pt       4.21082088       4.05186428      22.29208057        2      -0.01279243       0.00081978      -0.02923364
Pt       7.01803480       4.05186428      22.29208057        2       0.04934353       0.02818540      -0.04429943
Pt       2.80721392       6.48298285      22.29208057        2      -0.07952274      -0.01348052       0.02041495
Pt       5.61442784       6.48298285      22.29208057        2       0.05734944      -0.01420645       0.01097587
Pt       8.42164176       6.48298285      22.29208057        2      -0.01927995      -0.07783495      -0.02248460
Pt      -0.02822381       0.01103407      24.58379258        1       0.00196357       0.00143467       0.02129576
Pt       2.77640775       0.00607647      24.61003931        1       0.01727975       0.01259663       0.00414459
Pt       5.59254013       0.01942739      24.59870027        1       0.02361685      -0.01035848      -0.00498746
Pt       1.38431603       2.42875792      24.59966235        1       0.00810872       0.00193629      -0.01151240
Pt       4.18042129       2.43446832      24.58404702        1       0.02520848      -0.01048709       0.02038348
Pt       6.98817249       2.44124726      24.61095100        1       0.00705985      -0.00073596      -0.00087598
Pt       2.78653716       4.86697138      24.59282957        1      -0.00632269       0.01032608       0.02509400
Pt       5.56229689       4.86971081      24.59102857        1       0.02238156      -0.01817129       0.00408107
Pt       8.39762025       4.87349651      24.67099713        1       0.02765285      -0.02013910       0.01074532
N        8.05843739       4.88156708      26.71830616        0       0.02493100      -0.00911090       0.00601453
H        7.49637541       5.70836961      26.93971599        0       0.00697126       0.03628796       0.00156347
H        8.95326773       4.90430336      27.21353873        0       0.00610545       0.00634052      -0.04046350
H        7.53615203       4.03246853      26.95145519        0      -0.00158280      -0.03668389      -0.00293227
