31
Lattice="8.421641763931781 0.0 0.0 4.2108208819658905 7.293355709136913 0.0 0.0 0.0 44.584161137365626" Properties=species:S:1:pos:R:3:tags:I:1:forces:R:3 energy=-173.7161865234375 free_energy=-173.7161865234375 stress="0.010666637681424618 -8.496838788119021e-09 1.7847986200081323e-08 -8.496838788119021e-09 0.01066673919558525 -5.011584036651584e-09 1.7847986200081323e-08 -5.011584036651584e-09 -1.8192797597293975e-06" pbc="T T T"
Pt       1.40360696       0.81037286      20.00000000        3       0.00502280       0.00367306      -0.00957406
Pt       4.21082088       0.81037286      20.00000000        3       0.00067005       0.00312271      -0.00628456
Pt       7.01803480       0.81037286      20.00000000        3      -0.00569618       0.00250884      -0.00957415
Pt       2.80721392       3.24149143      20.00000000        3       0.00237236      -0.00214150      -0.00628582
Pt       5.61442784       3.24149143      20.00000000        3      -0.00304167      -0.00098371      -0.00628656
Pt       8.42164176       3.24149143      20.00000000        3       0.00054107       0.00469339       0.01201966
Pt       4.21082088       5.67261000      20.00000000        3       0.00067438      -0.00618513      -0.00957423
Pt       7.01803480       5.67261000      20.00000000        3       0.00379226      -0.00281140       0.01201966
Pt       9.82524872       5.67261000      20.00000000        3      -0.00433534      -0.00187666       0.01201999
Pt      -0.00000000       1.62074571      22.29208057        2       0.00612119       0.06274413       0.02846934
Pt       2.80721392       1.62074571      22.29208057        2      -0.00941881       0.00433143      -0.00398438
Pt       5.61442784       1.62074571      22.29208057        2       0.00095510      -0.01032564      -0.00398531
Pt       1.40360696       4.05186428      22.29208057        2      -0.07003880       0.03508785      -0.02903070
Pt       4.21082088       4.05186428      22.29208057        2       0.00846345       0.00599237      -0.00398483
Pt       7.01803480       4.05186428      22.29208057        2       0.06540249       0.04311271      -0.02903169
Pt       2.80721392       6.48298285      22.29208057        2      -0.05739794      -0.02607427       0.02846888
Pt       5.61442784       6.48298285      22.29208057        2       0.05127979      -0.03666961       0.02846968
Pt       8.42164176       6.48298285      22.29208057        2       0.00463418      -0.07819615      -0.02903135
Pt       0.00000051       0.00000060      24.58874851        1       0.00000240      -0.00000140      -0.00018662
Pt       2.80256825       0.01090848      24.59462576        1      -0.00540283       0.00066219       0.01185298
Pt       5.61709885       0.00668577      24.60592437        1      -0.00698193      -0.01683594      -0.00246555
Pt       1.40806259       2.42546378      24.60592477        1      -0.01109338       0.01446072      -0.00246669
Pt       4.21082138       2.43111950      24.58900134        1       0.00000125      -0.00000229      -0.00093096
Pt       7.01091203       2.42164029      24.59462566        1       0.00212274      -0.00500572       0.01185475
Pt       2.81898313       4.86080790      24.59462538        1       0.00327259       0.00434400       0.01185308
Pt       5.60730238       4.86120737      24.60592496        1       0.01806697       0.00237439      -0.00246610
Pt       8.42163900       4.86223675      24.65974725        1      -0.00000114       0.00000069       0.03701705
N        8.42163757       4.86223535      26.72996838        0       0.00025329      -0.00004768      -0.04321814
H        7.44890596       4.86551552      27.04814059        0       0.00631942       0.00116207       0.00147691
H        8.91085018       5.70301184      27.04813144        0      -0.00225839      -0.00623877       0.00143149
H        8.90517066       4.01817869      27.04813411        0      -0.00430138       0.00512534       0.00140841
