31
Lattice="8.421641763931781 0.0 0.0 4.2108208819658905 7.293355709136913 0.0 0.0 0.0 44.584161137365626" Properties=species:S:1:pos:R:3:tags:I:1:forces:R:3 energy=-173.7161865234375 free_energy=-173.7161865234375 stress="0.010666676796972752 -4.1300673991884196e-09 7.135113389011849e-09 -4.1300673991884196e-09 0.010666723363101482 -4.735429826041582e-09 7.135113389011849e-09 -4.735429826041582e-09 -1.7711201962811174e-06" pbc="T T T"
Pt       1.40360696       0.81037286      20.00000000        3       0.00502279       0.00367315      -0.00957340
Pt       4.21082088       0.81037286      20.00000000        3       0.00066955       0.00312284      -0.00628403
Pt       7.01803480       0.81037286      20.00000000        3      -0.00569669       0.00250917      -0.00957382
Pt       2.80721392       3.24149143      20.00000000        3       0.00237319      -0.00214152      -0.00628516
Pt       5.61442784       3.24149143      20.00000000        3      -0.00304177      -0.00098355      -0.00628453
Pt       8.42164176       3.24149143      20.00000000        3       0.00054062       0.00469314       0.01201943
Pt       4.21082088       5.67261000      20.00000000        3       0.00067464      -0.00618541      -0.00957459
Pt       7.01803480       5.67261000      20.00000000        3       0.00379209      -0.00281099       0.01202071
Pt       9.82524872       5.67261000      20.00000000        3      -0.00433522      -0.00187652       0.01202050
Pt      -0.00000000       1.62074571      22.29208057        2       0.00611944       0.06274400       0.02847135
Pt       2.80721392       1.62074571      22.29208057        2      -0.00941502       0.00433050      -0.00398034
Pt       5.61442784       1.62074571      22.29208057        2       0.00095558      -0.01032289      -0.00398198
Pt       1.40360696       4.05186428      22.29208057        2      -0.07003464       0.03508787      -0.02902625
Pt       4.21082088       4.05186428      22.29208057        2       0.00846432       0.00599087      -0.00397930
Pt       7.01803480       4.05186428      22.29208057        2       0.06539876       0.04311140      -0.02902782
Pt       2.80721392       6.48298285      22.29208057        2      -0.05739681      -0.02607586       0.02847195
Pt       5.61442784       6.48298285      22.29208057        2       0.05128123      -0.03667147       0.02847300
Pt       8.42164176       6.48298285      22.29208057        2       0.00463343      -0.07819380      -0.02902770
Pt       0.00000201       0.00000016      24.58874922        1       0.00000008      -0.00000330      -0.00018707
Pt       2.80256915       0.01090803      24.59462701        1      -0.00539913       0.00065858       0.01184347
Pt       5.61710075       0.00668660      24.60592495        1      -0.00698717      -0.01684651      -0.00246714
Pt       1.40806404       2.42546194      24.60592490        1      -0.01109120       0.01446670      -0.00246680
Pt       4.21082289       2.43111878      24.58900311        1      -0.00000468      -0.00000101      -0.00093946
Pt       7.01091331       2.42163961      24.59462682        1       0.00212228      -0.00500218       0.01184571
Pt       2.81898416       4.86080761      24.59462673        1       0.00326855       0.00434296       0.01184462
Pt       5.60730185       4.86120696      24.60592610        1       0.01807550       0.00237474      -0.00247529
Pt       8.42164012       4.86223550      24.65974627        1      -0.00000137       0.00000722       0.03704172
N        8.42163541       4.86223721      26.72996821        0       0.00011919      -0.00003418      -0.04326808
H        8.90516676       4.01818117      27.04813479        0      -0.00425931       0.00505742       0.00143670
H        7.44890163       4.86551683      27.04814021        0       0.00638422       0.00116725       0.00145874
H        8.91084789       5.70301286      27.04812979        0      -0.00223239      -0.00618861       0.00145473
