31
Lattice="8.421641763931781 0.0 0.0 4.2108208819658905 7.293355709136913 0.0 0.0 0.0 44.584161137365626" Properties=species:S:1:pos:R:3:tags:I:1:forces:R:3 energy=-172.6018829345703 free_energy=-172.6018829345703 stress="0.010518907569348812 -6.7625340882671026e-09 -4.0605416806727135e-09 -6.7625340882671026e-09 0.010518877767026424 1.770650825960729e-08 -4.0605416806727135e-09 1.770650825960729e-08 -1.5791669284226373e-05" pbc="T T T"
Pt       1.40360696       0.81037286      20.00000000        3       0.00000098      -0.00000285      -0.00634775
Pt       4.21082088       0.81037286      20.00000000        3      -0.00067213       0.00123283      -0.00134191
Pt       7.01803480       0.81037286      20.00000000        3       0.00067145       0.00123177      -0.00134310
Pt       2.80721392       3.24149143      20.00000000        3       0.00073319      -0.00120115      -0.00134397
Pt       5.61442784       3.24149143      20.00000000        3      -0.00000205      -0.00000012       0.01187292
Pt       8.42164176       3.24149143      20.00000000        3      -0.00073031      -0.00120053      -0.00134519
Pt       4.21082088       5.67261000      20.00000000        3       0.00140801      -0.00003230      -0.00134346
Pt       7.01803480       5.67261000      20.00000000        3      -0.00140809      -0.00003074      -0.00134358
Pt       9.82524872       5.67261000      20.00000000        3      -0.00000088       0.00000299      -0.00859919
Pt      -0.00000000       1.62074571      22.29208057        2      -0.04278984       0.02470297      -0.01080433
Pt       2.80721392       1.62074571      22.29208057        2       0.04279066       0.02470317      -0.01080773
Pt       5.61442784       1.62074571      22.29208057        2      -0.00000013       0.05406494       0.04110757
Pt       1.40360696       4.05186428      22.29208057        2       0.00000139      -0.01914827      -0.03130665
Pt       4.21082088       4.05186428      22.29208057        2       0.04682539      -0.02703180       0.04110945
Pt       7.01803480       4.05186428      22.29208057        2      -0.04682655      -0.02703252       0.04111177
Pt       2.80721392       6.48298285      22.29208057        2       0.01658412       0.00957575      -0.03130759
Pt       5.61442784       6.48298285      22.29208057        2      -0.00000183      -0.04940967      -0.01080573
Pt       8.42164176       6.48298285      22.29208057        2      -0.01658223       0.00957717      -0.03130857
Pt       0.00154950       0.00089437      24.57688552        1      -0.00320325      -0.00184886      -0.00631031
Pt       2.80566452       0.00089444      24.57688558        1       0.00320196      -0.00185003      -0.00630972
Pt       5.61442779      -0.00688290      24.57748747        1       0.00000154       0.02061690      -0.00907683
Pt       1.40360711       2.42932941      24.57688569        1      -0.00000194       0.00369817      -0.00630957
Pt       4.19942425       2.42453872      24.59691521        1       0.01709586       0.00987123       0.02064838
Pt       7.02943116       2.42453877      24.59691544        1      -0.01709476       0.00986915       0.02064036
Pt       2.80125335       4.86567859      24.57748753        1       0.01785539      -0.01030884      -0.00907695
Pt       5.61442781       4.87539688      24.59691530        1      -0.00000034      -0.01973953       0.02063960
Pt       8.42760232       4.86567871      24.57748772        1      -0.01785620      -0.01030951      -0.00907528
N        5.61442747       3.24149277      27.59227004        0       0.00003076      -0.00011705      -0.02897602
H        6.43275846       2.76902797      27.19286748        0      -0.02508335       0.01448716       0.00914055
H        4.79609778       2.76902831      27.19286755        0       0.02505413       0.01447160       0.00912710
H        5.61442781       4.18641663      27.19286801        0      -0.00000093      -0.02884185       0.00908546
