31
Lattice="8.421641763931781 0.0 0.0 4.2108208819658905 7.293355709136913 0.0 0.0 0.0 44.584161137365626" Properties=species:S:1:pos:R:3:tags:I:1:forces:R:3 energy=-172.80076599121094 free_energy=-172.80076599121094 stress="0.010380505584180355 4.931322572510055e-10 -3.177132112952563e-09 4.931322572510055e-10 0.010380508378148079 1.5848250489725046e-09 -3.177132112952563e-09 1.5848250489725046e-09 0.00013820177991874516" pbc="T T T"
Pt       1.40360696       0.81037286      20.00000000        3       0.00000128      -0.00000232      -0.00916821
Pt       4.21082088       0.81037286      20.00000000        3      -0.00175589       0.00301251       0.00178069
Pt       7.01803480       0.81037286      20.00000000        3       0.00208413       0.00282804       0.00179347
Pt       2.80721392       3.24149143      20.00000000        3       0.00140933      -0.00322262       0.00179246
Pt       5.61442784       3.24149143      20.00000000        3      -0.00000246      -0.00000031       0.03522733
Pt       8.42164176       3.24149143      20.00000000        3      -0.00172995      -0.00302855       0.00177816
Pt       4.21082088       5.67261000      20.00000000        3       0.00349128       0.00001653       0.00177938
Pt       7.01803480       5.67261000      20.00000000        3      -0.00349676       0.00039479       0.00179255
Pt       9.82524872       5.67261000      20.00000000        3      -0.00000125       0.00000255      -0.01458365
Pt      -0.00000000       1.62074571      22.29208057        2      -0.14291881       0.07742844       0.03907325
Pt       2.80721392       1.62074571      22.29208057        2       0.13851805       0.08505634       0.03907135
Pt       5.61442784       1.62074571      22.29208057        2      -0.00085122       0.12743174       0.05054506
Pt       1.40360696       4.05186428      22.29208057        2       0.00004478      -0.03188290      -0.06162639
Pt       4.21082088       4.05186428      22.29208057        2       0.11078641      -0.06298167       0.05054672
Pt       7.01803480       4.05186428      22.29208057        2      -0.10993943      -0.06445113       0.05054792
Pt       2.80721392       6.48298285      22.29208057        2       0.02758956       0.01598036      -0.06162769
Pt       5.61442784       6.48298285      22.29208057        2       0.00440186      -0.16248785       0.03907308
Pt       8.42164176       6.48298285      22.29208057        2      -0.02763235       0.01590563      -0.06162847
Pt       0.00294993      -0.00332106      24.56545680        1       0.00256783       0.02801269      -0.00535157
Pt       2.80861502       0.00421522      24.56545546        1      -0.02554540      -0.01178998      -0.00535217
Pt       5.61588108      -0.00628152      24.56942013        1       0.00359688      -0.02452951      -0.00743704
Pt       1.39925628       2.43022361      24.56545606        1       0.02297685      -0.01622632      -0.00535238
Pt       4.18525381       2.41956153      24.61814372        1       0.01125464      -0.01081944      -0.00880022
Pt       7.04082622       2.41475493      24.61814364        1       0.00374479       0.01515508      -0.00880013
Pt       2.80104762       4.86411929      24.56942077        1      -0.02304120       0.00914857      -0.00743701
Pt       5.61720271       4.89015650      24.61814384        1      -0.01499783      -0.00433054      -0.00880359
Pt       8.42635460       4.86663628      24.56942041        1       0.01944502       0.01538006      -0.00743619
N        5.61442744       3.24149155      26.94316880        0       0.00001117      -0.00000462      -0.00897527
H        6.50454342       2.91136213      26.52136021        0      -0.01570019      -0.01923993      -0.01080420
H        4.88346945       2.63569319      26.52136004        0      -0.00881016       0.02322155      -0.01080932
H        5.45527195       4.17741930      26.52135997        0       0.02449907      -0.00397733      -0.01080796
