31
Lattice="8.421641763931781 0.0 0.0 4.2108208819658905 7.293355709136913 0.0 0.0 0.0 44.584161137365626" Properties=species:S:1:pos:R:3:tags:I:1:forces:R:3 energy=-172.80599975585938 free_energy=-172.80599975585938 stress="0.010280280373990536 -4.243210227627969e-09 4.342284309899469e-09 -4.243210227627969e-09 0.010280280373990536 -7.898957932184203e-09 4.342284309899469e-09 -7.898957932184203e-09 -5.393554238253273e-05" pbc="T T T"
Pt       1.40360696       0.81037286      20.00000000        3       0.00105110       0.00060402      -0.00947309
Pt       4.21082088       0.81037286      20.00000000        3      -0.00104881       0.00060482      -0.00947273
Pt       7.01803480       0.81037286      20.00000000        3      -0.00000228       0.00276132      -0.00425369
Pt       2.80721392       3.24149143      20.00000000        3       0.00000113      -0.00121287      -0.00947365
Pt       5.61442784       3.24149143      20.00000000        3       0.00058980       0.00034155       0.01770419
Pt       8.42164176       3.24149143      20.00000000        3      -0.00059010       0.00034166       0.01770294
Pt       4.21082088       5.67261000      20.00000000        3       0.00239518      -0.00138051      -0.00425237
Pt       7.01803480       5.67261000      20.00000000        3      -0.00000208      -0.00068075       0.01770318
Pt       9.82524872       5.67261000      20.00000000        3      -0.00239388      -0.00137922      -0.00425342
Pt      -0.00000000       1.62074571      22.29208057        2      -0.11650725       0.09124143       0.00165108
Pt       2.80721392       1.62074571      22.29208057        2       0.00000140      -0.00000075      -0.09937730
Pt       5.61442784       1.62074571      22.29208057        2       0.11650608       0.09124240       0.00164997
Pt       1.40360696       4.05186428      22.29208057        2      -0.13727023       0.05527868       0.00165423
Pt       4.21082088       4.05186428      22.29208057        2       0.13727328       0.05527896       0.00165324
Pt       7.01803480       4.05186428      22.29208057        2      -0.00000356       0.00000007       0.08201290
Pt       2.80721392       6.48298285      22.29208057        2       0.00000036      -0.00000149      -0.07234874
Pt       5.61442784       6.48298285      22.29208057        2       0.02076275      -0.14652106       0.00165021
Pt       8.42164176       6.48298285      22.29208057        2      -0.02076334      -0.14651829       0.00164975
Pt      -0.00067044      -0.00038744      24.56074709        1      -0.00382728      -0.00220984       0.01202133
Pt       2.80721406       0.00600172      24.56729892        1       0.00000034       0.04489958       0.00588252
Pt       5.61509850      -0.00038735      24.56074709        1       0.00382712      -0.00221024       0.01202232
Pt       1.40880482       2.42811736      24.56729919        1       0.03888380      -0.02244593       0.00588398
Pt       4.20562334       2.42811743      24.56729880        1      -0.03888449      -0.02244890       0.00588349
Pt       7.01803459       2.40924888      24.61408993        1       0.00000067       0.00594671       0.00153136
Pt       2.80721411       4.86301162      24.56074818        1      -0.00000099       0.00441675       0.01201203
Pt       5.59548846       4.87317171      24.61409059        1       0.00514623      -0.00297309       0.00153049
Pt       8.44058084       4.87317207      24.61409010        1      -0.00514573      -0.00297528       0.00153342
N        7.01803495       4.05186387      26.95105907        0      -0.00003304       0.00004685       0.00444880
H        7.01803474       3.10511312      26.52528709        0       0.00000291      -0.02499294       0.00169402
H        6.19812410       4.52523991      26.52528642        0      -0.02159670       0.01246590       0.00172409
H        7.83794563       4.52523992      26.52528701        0       0.02162753       0.01248051       0.00170565
