31
Lattice="8.421641763931781 0.0 0.0 4.2108208819658905 7.293355709136913 0.0 0.0 0.0 44.584161137365626" Properties=species:S:1:pos:R:3:tags:I:1:forces:R:3 energy=-172.80612182617188 free_energy=-172.80612182617188 stress="0.010317455045878887 3.871543016731316e-11 2.492842043899657e-10 3.871543016731316e-11 0.010317462496459484 1.1018954637620482e-09 2.492842043899657e-10 1.1018954637620482e-09 1.4709346942254342e-05" pbc="T T T"
Pt       1.40360696       0.81037286      20.00000000        3       0.00118256       0.00067967      -0.00975534
Pt       4.21082088       0.81037286      20.00000000        3      -0.00117933       0.00068091      -0.00975472
Pt       7.01803480       0.81037286      20.00000000        3      -0.00000258       0.00306345      -0.00310099
Pt       2.80721392       3.24149143      20.00000000        3       0.00000138      -0.00136497      -0.00975662
Pt       5.61442784       3.24149143      20.00000000        3       0.00054029       0.00031312       0.01786801
Pt       8.42164176       3.24149143      20.00000000        3      -0.00054137       0.00031347       0.01786634
Pt       4.21082088       5.67261000      20.00000000        3       0.00265764      -0.00153143      -0.00310126
Pt       7.01803480       5.67261000      20.00000000        3      -0.00000196      -0.00062399       0.01786661
Pt       9.82524872       5.67261000      20.00000000        3      -0.00265638      -0.00153007      -0.00310209
Pt      -0.00000000       1.62074571      22.29208057        2      -0.12058024       0.08954111       0.01156637
Pt       2.80721392       1.62074571      22.29208057        2       0.00000124      -0.00000164      -0.12116285
Pt       5.61442784       1.62074571      22.29208057        2       0.12057976       0.08954215       0.01156673
Pt       1.40360696       4.05186428      22.29208057        2      -0.13783686       0.05965453       0.01156540
Pt       4.21082088       4.05186428      22.29208057        2       0.13784003       0.05965469       0.01156677
Pt       7.01803480       4.05186428      22.29208057        2      -0.00000366       0.00000004       0.08418274
Pt       2.80721392       6.48298285      22.29208057        2       0.00000091       0.00000098      -0.05945443
Pt       5.61442784       6.48298285      22.29208057        2       0.01725444      -0.14919774       0.01156688
Pt       8.42164176       6.48298285      22.29208057        2      -0.01725535      -0.14919539       0.01156483
Pt      -0.00072191      -0.00041704      24.56338166        1      -0.00592948      -0.00342475      -0.00190029
Pt       2.80721415       0.01175072      24.56734093        1      -0.00000157      -0.01475560       0.01010592
Pt       5.61514994      -0.00041750      24.56338099        1       0.00593144      -0.00342027      -0.00190046
Pt       1.41378377       2.42524323      24.56734095        1      -0.01277864       0.00737522       0.01010624
Pt       4.20064432       2.42524298      24.56734075        1       0.01277865       0.00737756       0.01010485
Pt       7.01803487       2.41191742      24.61556745        1      -0.00000120      -0.00761209      -0.00049207
Pt       2.80721354       4.86307071      24.56338192        1       0.00000384       0.00684941      -0.00189972
Pt       5.59779898       4.87183756      24.61556737        1      -0.00659088       0.00380611      -0.00049329
Pt       8.43827032       4.87183744      24.61556749        1       0.00658812       0.00380518      -0.00048965
N        7.01803453       4.05186440      26.96079523        0       0.00001593      -0.00001439      -0.02614537
H        6.19938207       4.52451363      26.53156508        0      -0.02726182       0.01573972       0.00499831
H        7.83668764       4.52451346      26.53156558        0       0.02724898       0.01573768       0.00500508
H        7.01803492       3.10656562      26.53156525        0      -0.00000401      -0.03146261       0.00500766
