31
Lattice="8.421641763931781 0.0 0.0 4.2108208819658905 7.293355709136913 0.0 0.0 0.0 44.584161137365626" Properties=species:S:1:pos:R:3:tags:I:1:forces:R:3 energy=-173.71585083007812 free_energy=-173.71585083007812 stress="0.01069541648030281 -4.86874585092778e-09 -1.3966865886061441e-08 -4.86874585092778e-09 0.010695381090044975 -3.1179561155170177e-09 -1.3966865886061441e-08 -3.1179561155170177e-09 5.3993477195035666e-05" pbc="T T T"
Pt       1.40360696       0.81037286      20.00000000        3       0.00521449       0.00366288      -0.00904903
Pt       4.21082088       0.81037286      20.00000000        3       0.00041340       0.00292680      -0.00573289
Pt       7.01803480       0.81037286      20.00000000        3      -0.00578408       0.00267972      -0.00904986
Pt       2.80721392       3.24149143      20.00000000        3       0.00233171      -0.00182099      -0.00573519
Pt       5.61442784       3.24149143      20.00000000        3      -0.00274362      -0.00110752      -0.00573468
Pt       8.42164176       3.24149143      20.00000000        3      -0.00044705       0.00437489       0.01246896
Pt       4.21082088       5.67261000      20.00000000        3       0.00057017      -0.00634623      -0.00904945
Pt       7.01803480       5.67261000      20.00000000        3       0.00401029      -0.00179683       0.01246920
Pt       9.82524872       5.67261000      20.00000000        3      -0.00356473      -0.00257244       0.01246974
Pt      -0.00000000       1.62074571      22.29208057        2       0.00117016       0.06463797       0.03390472
Pt       2.80721392       1.62074571      22.29208057        2      -0.01137116       0.00413745       0.00323686
Pt       5.61442784       1.62074571      22.29208057        2       0.00209971      -0.01191807       0.00323450
Pt       1.40360696       4.05186428      22.29208057        2      -0.06389599       0.03977204      -0.02262594
Pt       4.21082088       4.05186428      22.29208057        2       0.00926998       0.00777848       0.00323567
Pt       7.01803480       4.05186428      22.29208057        2       0.06639116       0.03544950      -0.02262725
Pt       2.80721392       6.48298285      22.29208057        2      -0.05656233      -0.03130825       0.03390295
Pt       5.61442784       6.48298285      22.29208057        2       0.05539385      -0.03332902       0.03390221
Pt       8.42164176       6.48298285      22.29208057        2      -0.00249537      -0.07522075      -0.02262920
Pt       0.00000019      -0.00000018      24.58918303        1       0.00000120      -0.00000035      -0.00004014
Pt       2.79607668       0.01953120      24.60028228        1       0.01657744      -0.02172136      -0.01355346
Pt       5.61231374      -0.00204181      24.60570043        1      -0.00002139       0.00689436       0.00132854
Pt       1.40289590       2.43396980      24.60570061        1       0.00598095      -0.00342682       0.00132123
Pt       4.21082092       2.43111841      24.58864080        1      -0.00000144       0.00000091       0.00205189
Pt       7.00668869       2.41170749      24.60028256        1       0.01052261       0.02521909      -0.01355216
Pt       2.82969713       4.86211663      24.60028265        1      -0.02709921      -0.00349886      -0.01355335
Pt       5.61725280       4.86142718      24.60570011        1      -0.00596064      -0.00346569       0.00132920
Pt       8.42164144       4.86223676      24.65962069        1       0.00000165       0.00000018       0.02953824
N        8.42164301       4.86223754      26.72769296        0      -0.00014277      -0.00003627       0.01210618
H        8.90579140       4.02124330      27.05203501        0       0.00969061      -0.01922287      -0.01451328
H        7.45124446       4.86344851      27.05203564        0      -0.02138041       0.00122485      -0.01455343
H        8.90788899       5.70201904      27.05203443        0       0.01183075       0.01803314      -0.01450086
