31
Lattice="8.421641763931781 0.0 0.0 4.2108208819658905 7.293355709136913 0.0 0.0 0.0 44.584161137365626" Properties=species:S:1:pos:R:3:tags:I:1:forces:R:3 energy=-172.793212890625 free_energy=-172.793212890625 stress="0.01025572419166565 -3.5097411643647547e-09 1.610671929164198e-09 -3.5097411643647547e-09 0.010255731642246246 -1.958925244238685e-09 1.610671929164198e-09 -1.958925244238685e-09 -4.6707569708814844e-05" pbc="T T T"
Pt       1.40360696       0.81037286      20.00000000        3       0.00000147      -0.00000225      -0.00486049
Pt       4.21082088       0.81037286      20.00000000        3      -0.00290439       0.00139695       0.00231570
Pt       7.01803480       0.81037286      20.00000000        3       0.00227661       0.00266012       0.00166741
Pt       2.80721392       3.24149143      20.00000000        3       0.00116732      -0.00330553       0.00166735
Pt       5.61442784       3.24149143      20.00000000        3      -0.00000218      -0.00000003       0.03026375
Pt       8.42164176       3.24149143      20.00000000        3       0.00024288      -0.00321527       0.00231251
Pt       4.21082088       5.67261000      20.00000000        3       0.00266589       0.00181870       0.00231463
Pt       7.01803480       5.67261000      20.00000000        3      -0.00344699       0.00064519       0.00166684
Pt       9.82524872       5.67261000      20.00000000        3      -0.00000127       0.00000266      -0.01544484
Pt      -0.00000000       1.62074571      22.29208057        2      -0.12471193       0.08350845       0.03022430
Pt       2.80721392       1.62074571      22.29208057        2       0.13468099       0.06624773       0.03022095
Pt       5.61442784       1.62074571      22.29208057        2       0.00400239       0.11404224       0.03495099
Pt       1.40360696       4.05186428      22.29208057        2      -0.00719513      -0.04540701      -0.07373269
Pt       4.21082088       4.05186428      22.29208057        2       0.09676208      -0.06048989       0.03495227
Pt       7.01803480       4.05186428      22.29208057        2      -0.10077117      -0.05355256       0.03495189
Pt       2.80721392       6.48298285      22.29208057        2       0.04292502       0.01646974      -0.07373336
Pt       5.61442784       6.48298285      22.29208057        2      -0.00996753      -0.14976001       0.03022192
Pt       8.42164176       6.48298285      22.29208057        2      -0.03572466       0.02894139      -0.07373603
Pt      -0.00313705       0.01189098      24.56865933        1       0.01777073      -0.02652299      -0.02491398
Pt       2.79848421      -0.00866279      24.56865872        1       0.01408677       0.02864948      -0.02491429
Pt       5.62493785      -0.01354314      24.56854512        1      -0.02909881       0.03359558      -0.00102282
Pt       1.41547465       2.42788995      24.56865825        1      -0.03186383      -0.00212935      -0.02491307
Pt       4.19313687       2.40105435      24.60715623        1      -0.01623207       0.01530937      -0.00092664
Pt       7.05291266       2.43083591      24.60715614        1      -0.00513934      -0.02171621      -0.00092387
Pt       2.79023055       4.85990637      24.56854548        1       0.04364244       0.00840455      -0.00103216
Pt       5.59723342       4.89258359      24.60715607        1       0.02137746       0.00640705      -0.00092662
Pt       8.42811496       4.87811053      24.56854531        1      -0.01454403      -0.04199736      -0.00102152
N        5.61442790       3.24149126      26.89807692        0      -0.00001692       0.00001436       0.02244478
H        6.52512731       2.98488806      26.46327140        0      -0.01591715      -0.02419115       0.02063414
H        4.93685291       2.58110517      26.46327061        0      -0.01297910       0.02587533       0.02064440
H        5.38130352       4.15848140      26.46327077        0       0.02891418      -0.00169909       0.02064879
