31
Lattice="8.421641763931781 0.0 0.0 4.2108208819658905 7.293355709136913 0.0 0.0 0.0 44.584161137365626" Properties=species:S:1:pos:R:3:tags:I:1:forces:R:3 energy=-173.71566772460938 free_energy=-173.71566772460938 stress="0.01073121465742588 -3.6729848329475345e-11 -1.611896216502373e-08 -3.6729848329475345e-11 0.01073118019849062 3.789976332768674e-09 -1.611896216502373e-08 3.789976332768674e-09 2.1075078620924614e-05" pbc="T T T"
Pt       1.40360696       0.81037286      20.00000000        3       0.00481623       0.00361650      -0.00801712
Pt       4.21082088       0.81037286      20.00000000        3       0.00056947       0.00240793      -0.00491846
Pt       7.01803480       0.81037286      20.00000000        3      -0.00554445       0.00235840      -0.00801772
Pt       2.80721392       3.24149143      20.00000000        3       0.00180434      -0.00169633      -0.00492036
Pt       5.61442784       3.24149143      20.00000000        3      -0.00237234      -0.00071346      -0.00491899
Pt       8.42164176       3.24149143      20.00000000        3      -0.00012677       0.00453755       0.01194966
Pt       4.21082088       5.67261000      20.00000000        3       0.00072886      -0.00597813      -0.00801766
Pt       7.01803480       5.67261000      20.00000000        3       0.00399095      -0.00215536       0.01194996
Pt       9.82524872       5.67261000      20.00000000        3      -0.00386635      -0.00237675       0.01195100
Pt      -0.00000000       1.62074571      22.29208057        2       0.00345811       0.05798913       0.04052317
Pt       2.80721392       1.62074571      22.29208057        2      -0.01074479       0.00534164       0.01779695
Pt       5.61442784       1.62074571      22.29208057        2       0.00074314      -0.01197889       0.01779658
Pt       1.40360696       4.05186428      22.29208057        2      -0.05763718       0.03345861      -0.03198645
Pt       4.21082088       4.05186428      22.29208057        2       0.01000136       0.00663416       0.01779680
Pt       7.01803480       4.05186428      22.29208057        2       0.05779262       0.03318720      -0.03198584
Pt       2.80721392       6.48298285      22.29208057        2      -0.05194969      -0.02600120       0.04052070
Pt       5.61442784       6.48298285      22.29208057        2       0.04849225      -0.03198717       0.04052118
Pt       8.42164176       6.48298285      22.29208057        2      -0.00015597      -0.06664292      -0.03198800
Pt       0.00000014      -0.00000030      24.59135526        1       0.00000165       0.00000201      -0.01072547
Pt       2.79901277       0.01404820      24.60008997        1      -0.00885914       0.02333245      -0.01379733
Pt       5.61088640      -0.00383840      24.60838665        1       0.02136855       0.04126845      -0.01027757
Pt       1.40205396       2.43610433      24.60838683        1       0.02505196      -0.03914246      -0.01027822
Pt       4.21082077       2.43111845      24.59176362        1       0.00000002      -0.00000046      -0.01549664
Pt       7.00996893       2.41699204      24.60009043        1      -0.01577421      -0.01933926      -0.01379721
Pt       2.82348059       4.86231545      24.60009048        1       0.02463611      -0.00399534      -0.01379782
Pt       5.61952205       4.86108922      24.60838670        1      -0.04642454      -0.00212649      -0.01027729
Pt       8.42164142       4.86223703      24.65832892        1       0.00000117       0.00000004      -0.02942652
N        8.42164318       4.86223699      26.72027169        0      -0.00013769       0.00001460       0.04304022
H        7.45034106       4.86240425      27.04137075        0      -0.01735391       0.00119579       0.00290351
H        8.90743674       5.70332393      27.04136878        0       0.00977974       0.01453404       0.00294483
H        8.90714725       4.02098381      27.04136929        0       0.00771057      -0.01574451       0.00295042
