31
Lattice="8.421641763931781 0.0 0.0 4.2108208819658905 7.293355709136913 0.0 0.0 0.0 44.584161137365626" Properties=species:S:1:pos:R:3:tags:I:1:forces:R:3 energy=-172.8053741455078 free_energy=-172.8053741455078 stress="0.010314837098121643 -5.657588619811804e-09 4.987834145708803e-09 -5.657588619811804e-09 0.010264909826219082 -6.444382597692311e-05 4.987834145708803e-09 -6.444382597692311e-05 -1.553932816023007e-05" pbc="T T T"
Pt       1.40360696       0.81037286      20.00000000        3       0.00093163       0.00201205      -0.00832883
Pt       4.21082088       0.81037286      20.00000000        3      -0.00092931       0.00201326      -0.00832766
Pt       7.01803480       0.81037286      20.00000000        3      -0.00000247       0.00254201      -0.00997046
Pt       2.80721392       3.24149143      20.00000000        3       0.00000172      -0.00056376      -0.00643292
Pt       5.61442784       3.24149143      20.00000000        3      -0.00182696       0.00281437       0.01604894
Pt       8.42164176       3.24149143      20.00000000        3       0.00182648       0.00281523       0.01604757
Pt       4.21082088       5.67261000      20.00000000        3       0.00275815      -0.00174948       0.00135773
Pt       7.01803480       5.67261000      20.00000000        3      -0.00000182      -0.00165630       0.02707914
Pt       9.82524872       5.67261000      20.00000000        3      -0.00275706      -0.00174838       0.00135690
Pt      -0.00000000       1.62074571      22.29208057        2      -0.05991075       0.06153085      -0.03975176
Pt       2.80721392       1.62074571      22.29208057        2       0.00000041      -0.01343570      -0.10786241
Pt       5.61442784       1.62074571      22.29208057        2       0.05991024       0.06153145      -0.03975514
Pt       1.40360696       4.05186428      22.29208057        2      -0.15451936       0.06490360       0.03627722
Pt       4.21082088       4.05186428      22.29208057        2       0.15452206       0.06490349       0.03627555
Pt       7.01803480       4.05186428      22.29208057        2      -0.00000312       0.04678861       0.07277721
Pt       2.80721392       6.48298285      22.29208057        2       0.00000108      -0.04094867      -0.07370309
Pt       5.61442784       6.48298285      22.29208057        2       0.02178027      -0.17522100       0.02284970
Pt       8.42164176       6.48298285      22.29208057        2      -0.02178100      -0.17521916       0.02284871
Pt      -0.01123082      -0.01385210      24.56335357        1       0.04619448       0.00736680       0.00769112
Pt       2.80721408       0.00058997      24.56808186        1       0.00000011       0.01147550      -0.00642800
Pt       5.62565909      -0.01385199      24.56335446        1      -0.04619538       0.00736615       0.00769207
Pt       1.40770166       2.40721528      24.57008960        1       0.01529672       0.01631320      -0.00071362
Pt       4.20672629       2.40721543      24.57008945        1      -0.01529889       0.01631300      -0.00071350
Pt       7.01803419       2.40304471      24.59456906        1       0.00000374      -0.01717378       0.04193430
Pt       2.80721405       4.83911272      24.56370945        1      -0.00000073       0.02287047      -0.00901161
Pt       5.58907211       4.85269458      24.62682660        1       0.01530251       0.02645528      -0.00762293
Pt       8.44699660       4.85269477      24.62682634        1      -0.01530319       0.02645277      -0.00762027
N        7.01803554       4.35581341      26.93230242        0      -0.00003787      -0.00946955      -0.03410190
H        6.19847970       4.87255852      26.55475094        0       0.01876132       0.01047051       0.01215118
H        7.83759076       4.87255786      26.55475209        0      -0.01872082       0.01049784       0.01213384
H        7.01803596       3.46739968      26.38941804        0      -0.00000215      -0.03025118       0.02582294
