31
Lattice="8.421641763931781 0.0 0.0 4.2108208819658905 7.293355709136913 0.0 0.0 0.0 44.584161137365626" Properties=species:S:1:pos:R:3:tags:I:1:forces:R:3 energy=-172.65194702148438 free_energy=-172.65194702148438 stress="0.010527060367166996 -7.976153626465532e-10 -3.264875522712707e-11 -7.976153626465532e-10 0.01052706316113472 -9.508950071790423e-09 -3.264875522712707e-11 -9.508950071790423e-09 0.000129319989355281" pbc="T T T"
Pt       1.40360696       0.81037286      20.00000000        3       0.00000075      -0.00000294      -0.00398934
Pt       4.21082088       0.81037286      20.00000000        3      -0.00164469       0.00305863       0.01139089
Pt       7.01803480       0.81037286      20.00000000        3       0.00164416       0.00305765       0.01138937
Pt       2.80721392       3.24149143      20.00000000        3       0.00182836      -0.00295625       0.01138872
Pt       5.61442784       3.24149143      20.00000000        3      -0.00000234      -0.00000039       0.04826704
Pt       8.42164176       3.24149143      20.00000000        3      -0.00182573      -0.00295548       0.01138726
Pt       4.21082088       5.67261000      20.00000000        3       0.00347551      -0.00010288       0.01138952
Pt       7.01803480       5.67261000      20.00000000        3      -0.00347566      -0.00010156       0.01138809
Pt       9.82524872       5.67261000      20.00000000        3      -0.00000106       0.00000243      -0.00338602
Pt      -0.00000000       1.62074571      22.29208057        2      -0.12623033       0.07287756       0.01766362
Pt       2.80721392       1.62074571      22.29208057        2       0.12623306       0.07287839       0.01766313
Pt       5.61442784       1.62074571      22.29208057        2      -0.00000243       0.09584921      -0.00173012
Pt       1.40360696       4.05186428      22.29208057        2       0.00000156      -0.01844699      -0.03356898
Pt       4.21082088       4.05186428      22.29208057        2       0.08301075      -0.04792581      -0.00172967
Pt       7.01803480       4.05186428      22.29208057        2      -0.08301228      -0.04792447      -0.00172916
Pt       2.80721392       6.48298285      22.29208057        2       0.01597602       0.00922444      -0.03356880
Pt       5.61442784       6.48298285      22.29208057        2      -0.00000170      -0.14575958       0.01766267
Pt       8.42164176       6.48298285      22.29208057        2      -0.01597475       0.00922649      -0.03356775
Pt       0.00357470       0.00206347      24.56715810        1      -0.00150668      -0.00087102      -0.00900647
Pt       2.80363923       0.00206376      24.56715802        1       0.00150968      -0.00087160      -0.00900695
Pt       5.61442802      -0.00256769      24.58162243        1      -0.00000221      -0.00450579      -0.00638175
Pt       1.40360694       2.42699066      24.56715841        1       0.00000189       0.00174009      -0.00900719
Pt       4.18471060       2.41604342      24.62652547        1       0.00348643       0.00201240      -0.00725137
Pt       7.04414529       2.41604338      24.62652616        1      -0.00348767       0.00201265      -0.00724986
Pt       2.80499016       4.86352061      24.58162291        1      -0.00389776       0.00225275      -0.00638023
Pt       5.61442783       4.89238642      24.62652566        1      -0.00000184      -0.00402393      -0.00725268
Pt       8.42386518       4.86352038      24.58162261        1       0.00389919       0.00225662      -0.00637957
N        5.61442794       3.24149120      26.85795916        0      -0.00000932       0.00004236       0.01034328
H        5.61442817       2.32111720      26.34495846        0      -0.00000030       0.02536269       0.00040042
H        4.81736027       3.70167855      26.34495823        0       0.02199739      -0.01270584       0.00042829
H        6.41149522       3.70167846      26.34495822        0      -0.02198783      -0.01269979       0.00042355
