31
Lattice="8.421641763931781 0.0 0.0 4.2108208819658905 7.293355709136913 0.0 0.0 0.0 44.584161137365626" Properties=species:S:1:pos:R:3:tags:I:1:forces:R:3 energy=-172.80653381347656 free_energy=-172.80653381347656 stress="0.010291812941432 2.791413544755983e-09 1.4664732761460186e-09 2.791413544755983e-09 0.010291826911270618 -4.5436185369673865e-10 1.4664732761460186e-09 -4.5436185369673865e-10 2.5764091333257966e-05" pbc="T T T"
Pt       1.40360696       0.81037286      20.00000000        3       0.00000088      -0.00000226      -0.00860581
Pt       4.21082088       0.81037286      20.00000000        3      -0.00223137       0.00252674       0.00094840
Pt       7.01803480       0.81037286      20.00000000        3       0.00223063       0.00252593       0.00094697
Pt       2.80721392       3.24149143      20.00000000        3       0.00107399      -0.00319854       0.00094676
Pt       5.61442784       3.24149143      20.00000000        3      -0.00000216      -0.00000047       0.03144500
Pt       8.42164176       3.24149143      20.00000000        3      -0.00107150      -0.00319751       0.00094604
Pt       4.21082088       5.67261000      20.00000000        3       0.00330801       0.00067140       0.00094715
Pt       7.01803480       5.67261000      20.00000000        3      -0.00330817       0.00067253       0.00094685
Pt       9.82524872       5.67261000      20.00000000        3      -0.00000081       0.00000242      -0.01521632
Pt      -0.00000000       1.62074571      22.29208057        2      -0.13821062       0.07979475       0.02789578
Pt       2.80721392       1.62074571      22.29208057        2       0.13821341       0.07979527       0.02789535
Pt       5.61442784       1.62074571      22.29208057        2      -0.00000198       0.12209953       0.04594210
Pt       1.40360696       4.05186428      22.29208057        2       0.00000127      -0.03577096      -0.07026482
Pt       4.21082088       4.05186428      22.29208057        2       0.10574456      -0.06105107       0.04594246
Pt       7.01803480       4.05186428      22.29208057        2      -0.10574597      -0.06105029       0.04594353
Pt       2.80721392       6.48298285      22.29208057        2       0.03097904       0.01788707      -0.07026522
Pt       5.61442784       6.48298285      22.29208057        2      -0.00000195      -0.15959203       0.02789481
Pt       8.42164176       6.48298285      22.29208057        2      -0.03097731       0.01788897      -0.07026616
Pt       0.00224099       0.00129356      24.56523476        1       0.00060550       0.00035038      -0.00526255
Pt       2.80497328       0.00129348      24.56523457        1      -0.00060670       0.00035010      -0.00526211
Pt       5.61442776      -0.01027193      24.56857343        1       0.00000199       0.00925204      -0.00448610
Pt       1.40360714       2.42853116      24.56523476        1      -0.00000030      -0.00070033      -0.00526172
Pt       4.18532985       2.41640124      24.61131510        1       0.01195326       0.00690214       0.00162387
Pt       7.04352567       2.41640128      24.61131557        1      -0.01195362       0.00690053       0.00162353
Pt       2.79831846       4.86737290      24.56857366        1       0.00801214      -0.00462621      -0.00448406
Pt       5.61442780       4.89167162      24.61131463        1       0.00000070      -0.01380389       0.00162454
Pt       8.43053722       4.86737304      24.56857340        1      -0.00801244      -0.00462643      -0.00448380
N        5.61442807       3.24149127      26.92948769        0      -0.00001555       0.00000761       0.03308061
H        4.79045749       2.76577185      26.51547722        0      -0.00879513      -0.00507878      -0.01090924
H        5.61442761       4.19293023      26.51547744        0       0.00000183       0.01015598      -0.01090991
H        6.43839765       2.76577215      26.51547754        0       0.00880855      -0.00508446      -0.01091588
