31
Lattice="8.421641763931781 0.0 0.0 4.2108208819658905 7.293355709136913 0.0 0.0 0.0 44.584161137365626" Properties=species:S:1:pos:R:3:tags:I:1:forces:R:3 energy=-172.64501953125 free_energy=-172.64501953125 stress="0.010480810888111591 3.279108984344248e-09 2.8132345342157805e-09 3.279108984344248e-09 0.010480805300176144 5.849568829319196e-09 2.8132345342157805e-09 5.849568829319196e-09 5.022442564950325e-06" pbc="T T T"
Pt       1.40360696       0.81037286      20.00000000        3       0.00206518       0.00118956      -0.00083399
Pt       4.21082088       0.81037286      20.00000000        3      -0.00206275       0.00119070      -0.00083351
Pt       7.01803480       0.81037286      20.00000000        3      -0.00000228       0.00430156       0.00125551
Pt       2.80721392       3.24149143      20.00000000        3       0.00000141      -0.00238454      -0.00083488
Pt       5.61442784       3.24149143      20.00000000        3       0.00082688       0.00047779       0.03291228
Pt       8.42164176       3.24149143      20.00000000        3      -0.00082738       0.00047883       0.03291142
Pt       4.21082088       5.67261000      20.00000000        3       0.00372912      -0.00215057       0.00125492
Pt       7.01803480       5.67261000      20.00000000        3      -0.00000167      -0.00095428       0.03291142
Pt       9.82524872       5.67261000      20.00000000        3      -0.00372809      -0.00214945       0.00125459
Pt      -0.00000000       1.62074571      22.29208057        2      -0.08613278       0.09566988      -0.01345681
Pt       2.80721392       1.62074571      22.29208057        2       0.00000045      -0.00000143      -0.05686417
Pt       5.61442784       1.62074571      22.29208057        2       0.08613265       0.09567022      -0.01345820
Pt       1.40360696       4.05186428      22.29208057        2      -0.12592176       0.02675877      -0.01345472
Pt       4.21082088       4.05186428      22.29208057        2       0.12592201       0.02675720      -0.01345939
Pt       7.01803480       4.05186428      22.29208057        2      -0.00000175      -0.00000056       0.03622663
Pt       2.80721392       6.48298285      22.29208057        2      -0.00000003       0.00000160      -0.08502186
Pt       5.61442784       6.48298285      22.29208057        2       0.03978541      -0.12242749      -0.01345980
Pt       8.42164176       6.48298285      22.29208057        2      -0.03978529      -0.12242817      -0.01345732
Pt      -0.00147942      -0.00085465      24.55778823        1      -0.00109256      -0.00062932       0.03598794
Pt       2.80721395       0.00255829      24.58008564        1       0.00000038       0.02804095       0.00056863
Pt       5.61590753      -0.00085436      24.55778878        1       0.00109099      -0.00063293       0.03598794
Pt       1.40582264       2.42983943      24.58008610        1       0.02428201      -0.01401908       0.00056870
Pt       4.20860538       2.42983918      24.58008531        1      -0.02428345      -0.01401916       0.00056863
Pt       7.01803448       2.40505201      24.63193116        1       0.00000095       0.03446676      -0.01021105
Pt       2.80721397       4.86394586      24.55778972        1      -0.00000275       0.00126116       0.03598891
Pt       5.59185371       4.87527033      24.63193018        1       0.02984885      -0.01723523      -0.01020361
Pt       8.44421529       4.87527021      24.63193059        1      -0.02984346      -0.01723270      -0.01021457
N        7.01803471       4.05186458      26.87787111        0      -0.00001644      -0.00003755       0.01677985
H        6.22194200       3.59223944      26.36492475        0       0.01375371       0.00794567      -0.00312865
H        7.01803519       4.97111248      26.36492579        0      -0.00000543      -0.01583491      -0.00315073
H        7.81412744       3.59223998      26.36492507        0      -0.01373211       0.00792687      -0.00313458
