31
Lattice="8.421641763931781 0.0 0.0 4.2108208819658905 7.293355709136913 0.0 0.0 0.0 44.584161137365626" Properties=species:S:1:pos:R:3:tags:I:1:forces:R:3 energy=-172.80599975585938 free_energy=-172.80599975585938 stress="0.010280260816216469 -2.996175252345523e-10 -2.236901358587673e-10 -2.996175252345523e-10 0.010280262678861618 -2.6040782863390177e-09 -2.236901358587673e-10 -2.6040782863390177e-09 -5.395684638642706e-05" pbc="T T T"
Pt       1.40360696       0.81037286      20.00000000        3       0.00105120       0.00060355      -0.00947282
Pt       4.21082088       0.81037286      20.00000000        3      -0.00104880       0.00060463      -0.00947264
Pt       7.01803480       0.81037286      20.00000000        3      -0.00000229       0.00276109      -0.00425372
Pt       2.80721392       3.24149143      20.00000000        3       0.00000130      -0.00121360      -0.00947428
Pt       5.61442784       3.24149143      20.00000000        3       0.00058976       0.00034175       0.01770428
Pt       8.42164176       3.24149143      20.00000000        3      -0.00058992       0.00034204       0.01770234
Pt       4.21082088       5.67261000      20.00000000        3       0.00239523      -0.00138001      -0.00425237
Pt       7.01803480       5.67261000      20.00000000        3      -0.00000220      -0.00068051       0.01770356
Pt       9.82524872       5.67261000      20.00000000        3      -0.00239423      -0.00137881      -0.00425270
Pt      -0.00000000       1.62074571      22.29208057        2      -0.11650778       0.09124097       0.00165122
Pt       2.80721392       1.62074571      22.29208057        2       0.00000119      -0.00000121      -0.09937667
Pt       5.61442784       1.62074571      22.29208057        2       0.11650700       0.09124213       0.00165026
Pt       1.40360696       4.05186428      22.29208057        2      -0.13727236       0.05527767       0.00165025
Pt       4.21082088       4.05186428      22.29208057        2       0.13727541       0.05527839       0.00165052
Pt       7.01803480       4.05186428      22.29208057        2      -0.00000346       0.00000063       0.08201290
Pt       2.80721392       6.48298285      22.29208057        2       0.00000091       0.00000089      -0.07235100
Pt       5.61442784       6.48298285      22.29208057        2       0.02076312      -0.14652076       0.00164967
Pt       8.42164176       6.48298285      22.29208057        2      -0.02076330      -0.14651814       0.00164963
Pt      -0.00067050      -0.00038752      24.56074741        1      -0.00382687      -0.00221026       0.01202112
Pt       2.80721396       0.00600148      24.56729919        1      -0.00000009       0.04490118       0.00588287
Pt       5.61509850      -0.00038754      24.56074742        1       0.00382694      -0.00220960       0.01202095
Pt       1.40880464       2.42811761      24.56729891        1       0.03888594      -0.02245051       0.00588393
Pt       4.20562341       2.42811761      24.56729902        1      -0.03888620      -0.02245008       0.00588265
Pt       7.01803470       2.40924882      24.61408994        1       0.00000013       0.00594297       0.00152862
Pt       2.80721396       4.86301156      24.56074772        1       0.00000213       0.00441907       0.01202172
Pt       5.59548837       4.87317189      24.61408993        1       0.00514434      -0.00297100       0.00152615
Pt       8.44058121       4.87317188      24.61408998        1      -0.00514818      -0.00297198       0.00152992
N        7.01803451       4.05186405      26.95105621        0       0.00000320       0.00002343       0.00449720
H        6.19812420       4.52523985      26.52528465        0      -0.02164342       0.01249262       0.00170036
H        7.83794561       4.52524005      26.52528528        0       0.02164131       0.01249166       0.00169841
H        7.01803471       3.10511326      26.52528507        0      -0.00000009      -0.02500820       0.00168777
