31
Lattice="8.421641763931781 0.0 0.0 4.2108208819658905 7.293355709136913 0.0 0.0 0.0 44.584161137365626" Properties=species:S:1:pos:R:3:tags:I:1:forces:R:3 energy=-172.79193115234375 free_energy=-172.79193115234375 stress="0.010310123674571514 -2.998244097440761e-09 5.060557306535429e-09 -2.998244097440761e-09 0.010310139507055283 -1.0284357809808853e-09 5.060557306535429e-09 -1.0284357809808853e-09 -5.3198644309304655e-05" pbc="T T T"
Pt       1.40360696       0.81037286      20.00000000        3       0.00150341       0.00007940      -0.00642702
Pt       4.21082088       0.81037286      20.00000000        3      -0.00081994       0.00125895      -0.00642532
Pt       7.01803480       0.81037286      20.00000000        3      -0.00027065       0.00262320      -0.00198165
Pt       2.80721392       3.24149143      20.00000000        3      -0.00067916      -0.00134245      -0.00642729
Pt       5.61442784       3.24149143      20.00000000        3      -0.00057045       0.00048085       0.01711348
Pt       8.42164176       3.24149143      20.00000000        3      -0.00013099      -0.00073216       0.01711240
Pt       4.21082088       5.67261000      20.00000000        3       0.00241016      -0.00107925      -0.00198194
Pt       7.01803480       5.67261000      20.00000000        3       0.00069854       0.00025397       0.01711366
Pt       9.82524872       5.67261000      20.00000000        3      -0.00214105      -0.00154198      -0.00198171
Pt      -0.00000000       1.62074571      22.29208057        2      -0.11871331       0.08205615       0.00725750
Pt       2.80721392       1.62074571      22.29208057        2       0.00000140      -0.00000135      -0.12335969
Pt       5.61442784       1.62074571      22.29208057        2       0.10593658       0.07567547       0.01753056
Pt       1.40360696       4.05186428      22.29208057        2      -0.11850710       0.05390722       0.01753234
Pt       4.21082088       4.05186428      22.29208057        2       0.13042171       0.06178041       0.00725905
Pt       7.01803480       4.05186428      22.29208057        2      -0.00000299       0.00000038       0.07267042
Pt       2.80721392       6.48298285      22.29208057        2      -0.00000182       0.00000048      -0.04818210
Pt       5.61442784       6.48298285      22.29208057        2       0.01256924      -0.12958385       0.01752784
Pt       8.42164176       6.48298285      22.29208057        2      -0.01170450      -0.14383523       0.00725755
Pt      -0.00823440       0.00938956      24.56825733        1       0.01508321      -0.02342823      -0.02905689
Pt       2.81593233       0.01462056      24.57019438        1      -0.02185519      -0.03447012      -0.00114785
Pt       5.61041284      -0.01182682      24.56825745        1       0.01275007       0.02477797      -0.02906722
Pt       1.41190996       2.41625790      24.57019436        1      -0.01892521       0.03616222      -0.00114591
Pt       4.19380021       2.43135788      24.57019436        1       0.04077759      -0.00168884      -0.00114702
Pt       6.99975059       2.40891809      24.60960981        1       0.02603420      -0.01960847      -0.00390460
Pt       2.81946345       4.86467338      24.56825788        1      -0.02783343      -0.00134952      -0.02906622
Pt       5.60434344       4.88917167      24.60960929        1      -0.02999695      -0.01274172      -0.00390453
Pt       8.45000973       4.85750332      24.60961013        1       0.00396682       0.03234733      -0.00390451
N        7.01803528       4.05186421      26.91368961        0      -0.00003745       0.00000624       0.03993115
H        6.78409862       3.13617350      26.47645016        0       0.03202042       0.00571403       0.02026914
H        6.34199105       4.71230417      26.47644979        0      -0.01104318      -0.03059442       0.02027703
H        7.92801441       4.30711488      26.47645016        0      -0.02093999       0.02487352       0.02025954
