31
Lattice="8.421641763931781 0.0 0.0 4.2108208819658905 7.293355709136913 0.0 0.0 0.0 44.584161137365626" Properties=species:S:1:pos:R:3:tags:I:1:forces:R:3 energy=-172.57989501953125 free_energy=-172.57989501953125 stress="0.010444462299346924 7.514680544495889e-10 2.620062611313756e-09 7.514680544495889e-10 0.010553085245192051 -6.760649557691067e-05 2.620062611313756e-09 -6.760649557691067e-05 -0.00013549307186622173" pbc="T T T"
Pt       1.40360696       0.81037286      20.00000000        3       0.00173012       0.00015692      -0.00500408
Pt       4.21082088       0.81037286      20.00000000        3      -0.00172729       0.00015804      -0.00500339
Pt       7.01803480       0.81037286      20.00000000        3      -0.00000292       0.00069494      -0.00966111
Pt       2.80721392       3.24149143      20.00000000        3       0.00000079      -0.00016580      -0.00903445
Pt       5.61442784       3.24149143      20.00000000        3      -0.00021969       0.00202628       0.00114813
Pt       8.42164176       3.24149143      20.00000000        3       0.00021905       0.00202697       0.00114793
Pt       4.21082088       5.67261000      20.00000000        3       0.00215683      -0.00053313      -0.00299329
Pt       7.01803480       5.67261000      20.00000000        3      -0.00000209      -0.00165473       0.01389876
Pt       9.82524872       5.67261000      20.00000000        3      -0.00215581      -0.00053178      -0.00299248
Pt      -0.00000000       1.62074571      22.29208057        2      -0.00083189       0.02239121      -0.03542499
Pt       2.80721392       1.62074571      22.29208057        2      -0.00000106      -0.03676888      -0.03857759
Pt       5.61442784       1.62074571      22.29208057        2       0.00083311       0.02238833      -0.03542520
Pt       1.40360696       4.05186428      22.29208057        2      -0.06290525       0.02315832      -0.00485396
Pt       4.21082088       4.05186428      22.29208057        2       0.06290515       0.02315703      -0.00486033
Pt       7.01803480       4.05186428      22.29208057        2      -0.00000028       0.05622333       0.04125030
Pt       2.80721392       6.48298285      22.29208057        2      -0.00000193      -0.01184283      -0.04683243
Pt       5.61442784       6.48298285      22.29208057        2       0.03640303      -0.06521997       0.02287528
Pt       8.42164176       6.48298285      22.29208057        2      -0.03639975      -0.06522015       0.02287945
Pt      -0.00082425       0.00225941      24.57164828        1      -0.02059889       0.00187492       0.02615541
Pt       2.80721430      -0.01279085      24.59023739        1      -0.00000119       0.03806598      -0.01323198
Pt       5.61525226       0.00225950      24.57164870        1       0.02059759       0.00187286       0.02614433
Pt       1.41015967       2.42061396      24.57383879        1       0.00786083      -0.00327132       0.01765165
Pt       4.20426777       2.42061369      24.57383809        1      -0.00785811      -0.00327086       0.01766160
Pt       7.01803480       2.43103448      24.57686669        1      -0.00000219      -0.04154853       0.01433900
Pt       2.80721421       4.86225601      24.56783192        1      -0.00000373      -0.00919971       0.03424063
Pt       5.59768351       4.85323079      24.60467349        1      -0.00095067      -0.00083986      -0.03186028
Pt       8.43838532       4.85323095      24.60467475        1       0.00095610      -0.00083812      -0.03186673
N        7.01803520       4.86337273      27.59995895        0      -0.00002225      -0.00043692       0.01547167
H        6.19756166       4.40626304      27.19199331        0       0.00750658       0.02293169      -0.00788860
H        7.01803427       5.82558645      27.25215716        0       0.00000681       0.00128475       0.03854597
H        7.83850818       4.40626223      27.19199306        0      -0.00749105       0.02293107      -0.00789922
