31
Lattice="8.421641763931781 0.0 0.0 4.2108208819658905 7.293355709136913 0.0 0.0 0.0 44.584161137365626" Properties=species:S:1:pos:R:3:tags:I:1:forces:R:3 energy=-172.80612182617188 free_energy=-172.80612182617188 stress="0.010215003043413162 -1.8409886948234089e-09 2.867552584273625e-10 -1.8409886948234089e-09 0.010215014219284058 -2.241881125186751e-09 2.867552584273625e-10 -2.241881125186751e-09 -7.903922232799232e-05" pbc="T T T"
Pt       1.40360696       0.81037286      20.00000000        3       0.00000124      -0.00000231      -0.01100338
Pt       4.21082088       0.81037286      20.00000000        3      -0.00200909       0.00319045       0.00015047
Pt       7.01803480       0.81037286      20.00000000        3       0.00200850       0.00318994       0.00014833
Pt       2.80721392       3.24149143      20.00000000        3       0.00176017      -0.00333811       0.00014809
Pt       5.61442784       3.24149143      20.00000000        3      -0.00000174      -0.00000024       0.03285918
Pt       8.42164176       3.24149143      20.00000000        3      -0.00175758      -0.00333696       0.00014746
Pt       4.21082088       5.67261000      20.00000000        3       0.00377189       0.00014671       0.00014925
Pt       7.01803480       5.67261000      20.00000000        3      -0.00377193       0.00014858       0.00014803
Pt       9.82524872       5.67261000      20.00000000        3      -0.00000151       0.00000301      -0.01574701
Pt      -0.00000000       1.62074571      22.29208057        2      -0.14542334       0.08395827       0.01005746
Pt       2.80721392       1.62074571      22.29208057        2       0.14542586       0.08395957       0.01005637
Pt       5.61442784       1.62074571      22.29208057        2      -0.00000267       0.12772608       0.03249405
Pt       1.40360696       4.05186428      22.29208057        2       0.00000117      -0.03007282      -0.07678524
Pt       4.21082088       4.05186428      22.29208057        2       0.11061765      -0.06386448       0.03249420
Pt       7.01803480       4.05186428      22.29208057        2      -0.11061938      -0.06386434       0.03249460
Pt       2.80721392       6.48298285      22.29208057        2       0.02604437       0.01503794      -0.07678472
Pt       5.61442784       6.48298285      22.29208057        2      -0.00000140      -0.16792074       0.01005623
Pt       8.42164176       6.48298285      22.29208057        2      -0.02604273       0.01503987      -0.07678641
Pt       0.00393424       0.00227106      24.56060019        1      -0.01717632      -0.00991562       0.01756878
Pt       2.80328010       0.00227109      24.56060015        1       0.01717435      -0.00991661       0.01756825
Pt       5.61442780      -0.00512076      24.56477891        1       0.00000178      -0.03940503       0.01025103
Pt       1.40360697       2.42657591      24.56060023        1       0.00000149       0.01983101       0.01757072
Pt       4.18586856       2.41671220      24.61159924        1       0.00751126       0.00433613       0.00178386
Pt       7.04298705       2.41671221      24.61159980        1      -0.00751252       0.00433509       0.00178468
Pt       2.80277971       4.86479729      24.56477927        1      -0.03412690       0.01970434       0.01025251
Pt       5.61442779       4.89104959      24.61159936        1       0.00000077      -0.00867389       0.00178562
Pt       8.42607596       4.86479730      24.56477945        1       0.03412656       0.01970412       0.01025276
N        5.61442791       3.24149138      26.93137550        0      -0.00000054       0.00001596       0.00369602
H        6.43590784       2.76720968      26.50980293        0       0.02257422      -0.01303291       0.00106099
H        4.79294814       2.76720977      26.50980283        0      -0.02257380      -0.01303287       0.00106111
H        5.61442791       4.19005482      26.50980313        0       0.00000001       0.02605002       0.00106696
