31
Lattice="8.421641763931781 0.0 0.0 4.2108208819658905 7.293355709136913 0.0 0.0 0.0 44.584161137365626" Properties=species:S:1:pos:R:3:tags:I:1:forces:R:3 energy=-173.716064453125 free_energy=-173.716064453125 stress="0.010675753466784954 5.762505139728091e-09 2.238072127624946e-08 5.762505139728091e-09 0.010675694793462753 5.610484521412218e-09 2.238072127624946e-08 5.610484521412218e-09 -3.428189302212559e-05" pbc="T T T"
Pt       1.40360696       0.81037286      20.00000000        3       0.00575137       0.00231524      -0.00948596
Pt       4.21082088       0.81037286      20.00000000        3      -0.00081179       0.00281552      -0.00670472
Pt       7.01803480       0.81037286      20.00000000        3      -0.00488521       0.00381925      -0.00948679
Pt       2.80721392       3.24149143      20.00000000        3       0.00284747      -0.00070443      -0.00670668
Pt       5.61442784       3.24149143      20.00000000        3      -0.00203466      -0.00211354      -0.00670725
Pt       8.42164176       3.24149143      20.00000000        3      -0.00068390       0.00496249       0.01227310
Pt       4.21082088       5.67261000      20.00000000        3      -0.00086577      -0.00613774      -0.00948575
Pt       7.01803480       5.67261000      20.00000000        3       0.00463785      -0.00188477       0.01227301
Pt       9.82524872       5.67261000      20.00000000        3      -0.00395611      -0.00307133       0.01227519
Pt      -0.00000000       1.62074571      22.29208057        2      -0.00786521       0.06156230       0.02881905
Pt       2.80721392       1.62074571      22.29208057        2      -0.00215687      -0.01302958      -0.00258657
Pt       5.61442784       1.62074571      22.29208057        2       0.01236233       0.00464483      -0.00258896
Pt       1.40360696       4.05186428      22.29208057        2      -0.06507989       0.04438571      -0.03397223
Pt       4.21082088       4.05186428      22.29208057        2      -0.01020778       0.00838519      -0.00258695
Pt       7.01803480       4.05186428      22.29208057        2       0.07098123       0.03416942      -0.03398587
Pt       2.80721392       6.48298285      22.29208057        2      -0.04938142      -0.03759752       0.02882317
Pt       5.61442784       6.48298285      22.29208057        2       0.05724537      -0.02396487       0.02881975
Pt       8.42164176       6.48298285      22.29208057        2      -0.00589107      -0.07855350      -0.03398245
Pt      -0.00000073       0.00000162      24.58794502        1       0.00000983      -0.00001676       0.00284767
Pt       2.80661229       0.00498544      24.60698446        1      -0.00835561      -0.00107111      -0.00785945
Pt       5.61831053       0.00953094      24.59335572        1       0.01756749       0.01600236       0.01739617
Pt       1.40991928       2.42299077      24.59335513        1       0.00508974      -0.02320517       0.01739512
Pt       4.21082316       2.43111927      24.58759429        1      -0.00000967      -0.00000322       0.00454739
Pt       7.01401983       2.42810561      24.60698739        1       0.00510927      -0.00670066      -0.00786476
Pt       2.81183548       4.86026554      24.60698784        1       0.00323214       0.00777423      -0.00786844
Pt       5.60423838       4.86083287      24.59335378        1      -0.02267487       0.00722542       0.01740469
Pt       8.42164081       4.86223919      24.66139420        1       0.00003009       0.00000291       0.00747207
N        8.42163950       4.86223817      26.72928525        0       0.00012976      -0.00004766      -0.02222383
H        7.93702494       4.01766491      27.04572703        0       0.01481202       0.02338949       0.00460626
H        7.93252168       5.70420608      27.04574016        0       0.01284991      -0.02447905       0.00459678
H        9.39536737       4.86483422      27.04574174        0      -0.02779599       0.00112677       0.00454719
