31
Lattice="8.421641763931781 0.0 0.0 4.2108208819658905 7.293355709136913 0.0 0.0 0.0 44.584161137365626" Properties=species:S:1:pos:R:3:tags:I:1:forces:R:3 energy=-172.8042755126953 free_energy=-172.8042755126953 stress="0.010287953540682793 2.127610532198787e-09 5.057836371946678e-09 2.127610532198787e-09 0.010287965647876263 -2.0024570890342375e-09 5.057836371946678e-09 -2.0024570890342375e-09 2.580655382189434e-05" pbc="T T T"
Pt       1.40360696       0.81037286      20.00000000        3       0.00000076      -0.00000251      -0.01219082
Pt       4.21082088       0.81037286      20.00000000        3      -0.00218490       0.00302604       0.00097710
Pt       7.01803480       0.81037286      20.00000000        3       0.00197851       0.00239038       0.00095356
Pt       2.80721392       3.24149143      20.00000000        3       0.00108294      -0.00291260       0.00095302
Pt       5.61442784       3.24149143      20.00000000        3      -0.00000169       0.00000012       0.03240654
Pt       8.42164176       3.24149143      20.00000000        3      -0.00152710      -0.00340681       0.00097510
Pt       4.21082088       5.67261000      20.00000000        3       0.00371755       0.00038187       0.00097579
Pt       7.01803480       5.67261000      20.00000000        3      -0.00306445       0.00052154       0.00095192
Pt       9.82524872       5.67261000      20.00000000        3      -0.00000079       0.00000252      -0.01432946
Pt      -0.00000000       1.62074571      22.29208057        2      -0.14878778       0.08583800       0.01205674
Pt       2.80721392       1.62074571      22.29208057        2       0.14873411       0.08593850       0.01205964
Pt       5.61442784       1.62074571      22.29208057        2      -0.00261516       0.12159289       0.04922252
Pt       1.40360696       4.05186428      22.29208057        2       0.00523778      -0.02982063      -0.07348133
Pt       4.21082088       4.05186428      22.29208057        2       0.10660943      -0.05853723       0.04922208
Pt       7.01803480       4.05186428      22.29208057        2      -0.10399979      -0.06306070       0.04922081
Pt       2.80721392       6.48298285      22.29208057        2       0.02320519       0.01944480      -0.07348448
Pt       5.61442784       6.48298285      22.29208057        2       0.00005496      -0.17177331       0.01205307
Pt       8.42164176       6.48298285      22.29208057        2      -0.02843935       0.01037808      -0.07348482
Pt       0.00377012       0.00392336      24.56071277        1      -0.01565673      -0.02144453       0.02083957
Pt       2.80193089       0.00130297      24.56071256        1       0.02639809      -0.00283560       0.02084017
Pt       5.60582018      -0.01200383      24.56953870        1       0.02004956       0.02606361      -0.00907175
Pt       1.40511911       2.42589149      24.56071408        1      -0.01073328       0.02428196       0.02082987
Pt       4.18209375       2.42267696      24.61256736        1       0.02813024       0.00079239       0.01037589
Pt       7.03970937       2.41046060      24.61256756        1      -0.01476054       0.02396678       0.01038217
Pt       2.80112222       4.87569317      24.56953873        1       0.01254574      -0.03039724      -0.00907043
Pt       5.62148075       4.89133660      24.61256669        1      -0.01338099      -0.02476216       0.01038689
Pt       8.43634045       4.86078431      24.56953788        1      -0.03259328       0.00433384      -0.00906977
N        5.61442811       3.24149147      26.94051836        0      -0.00002498       0.00001983      -0.04890186
H        6.38998201       2.69238476      26.52022128        0      -0.01086213       0.02135901       0.00245689
H        4.75111033       2.84439460      26.52022072        0       0.02395090      -0.00125909       0.00247379
H        5.70219079       4.18769510      26.52022061        0      -0.01306294      -0.02011971       0.00247144
