31
Lattice="8.421641763931781 0.0 0.0 4.2108208819658905 7.293355709136913 0.0 0.0 0.0 44.584161137365626" Properties=species:S:1:pos:R:3:tags:I:1:forces:R:3 energy=-172.5789794921875 free_energy=-172.5789794921875 stress="0.0104730986058712 -1.3229547457527246e-09 -3.787255842269133e-09 -1.3229547457527246e-09 0.010473099537193775 1.1726344339990646e-09 -3.787255842269133e-09 1.1726344339990646e-09 -0.0002002323162741959" pbc="T T T"
Pt       1.40360696       0.81037286      20.00000000        3       0.00000057      -0.00000317      -0.00540173
Pt       4.21082088       0.81037286      20.00000000        3      -0.00079414       0.00067980      -0.00219938
Pt       7.01803480       0.81037286      20.00000000        3       0.00074401       0.00084673      -0.00204542
Pt       2.80721392       3.24149143      20.00000000        3       0.00036332      -0.00107087      -0.00204602
Pt       5.61442784       3.24149143      20.00000000        3      -0.00000212      -0.00000032       0.00783750
Pt       8.42164176       3.24149143      20.00000000        3      -0.00019058      -0.00102937      -0.00220159
Pt       4.21082088       5.67261000      20.00000000        3       0.00099020       0.00035018      -0.00219953
Pt       7.01803480       5.67261000      20.00000000        3      -0.00111005       0.00022478      -0.00204521
Pt       9.82524872       5.67261000      20.00000000        3      -0.00000123       0.00000260      -0.00681746
Pt      -0.00000000       1.62074571      22.29208057        2      -0.03219031       0.01882782      -0.02421988
Pt       2.80721392       1.62074571      22.29208057        2       0.03240371       0.01846272      -0.02422163
Pt       5.61442784       1.62074571      22.29208057        2       0.00152536       0.04198263       0.02925784
Pt       1.40360696       4.05186428      22.29208057        2       0.00078529      -0.01328978      -0.03097454
Pt       4.21082088       4.05186428      22.29208057        2       0.03559534      -0.02231327       0.02925956
Pt       7.01803480       4.05186428      22.29208057        2      -0.03712381      -0.01966834       0.02926260
Pt       2.80721392       6.48298285      22.29208057        2       0.01112003       0.00732501      -0.03097677
Pt       5.61442784       6.48298285      22.29208057        2      -0.00021401      -0.03729269      -0.02422225
Pt       8.42164176       6.48298285      22.29208057        2      -0.01190161       0.00596748      -0.03097774
Pt       0.00125015       0.00150237      24.57723222        1      -0.00713278      -0.00009484      -0.00424343
Pt       2.80528764       0.00033106      24.57723231        1       0.00364926      -0.00612920      -0.00424150
Pt       5.61499728      -0.00636823      24.57875339        1       0.00299238       0.01932017      -0.00732258
Pt       1.40428346       2.42928469      24.57723240        1       0.00348142       0.00622267      -0.00424209
Pt       4.19857758       2.42122456      24.58945429        1       0.02483431       0.00794635       0.00628367
Pt       7.03272470       2.42546250      24.58945457        1      -0.01929760       0.01753192       0.00628349
Pt       2.80141432       4.86492800      24.57875354        1       0.01523622      -0.01224829      -0.00733194
Pt       5.61198092       4.87778734      24.58945427        1      -0.00553355      -0.02547885       0.00628376
Pt       8.42687197       4.86591464      24.57875363        1      -0.01822983      -0.00707176      -0.00733152
N        5.61442758       3.24149141      27.59559736        0       0.00002154       0.00000098       0.00371993
H        5.14645370       4.06216583      27.19906554        0       0.03360943      -0.00872141       0.03568849
H        6.55913972       3.23643182      27.19906533        0      -0.02437699      -0.02474982       0.03569694
H        5.13769022       2.42587686      27.19906544        0      -0.00925370       0.03347027       0.03568844
