31
Lattice="8.421641763931781 0.0 0.0 4.2108208819658905 7.293355709136913 0.0 0.0 0.0 44.584161137365626" Properties=species:S:1:pos:R:3:tags:I:1:forces:R:3 energy=-172.76148986816406 free_energy=-172.76148986816406 stress="0.010289747267961502 -1.7948937966139056e-05 -0.0001431850396329537 -1.7948937966139056e-05 0.010455882176756859 2.102435701090144e-06 -0.0001431850396329537 2.102435701090144e-06 3.074359119636938e-05" pbc="T T T"
Pt       1.40360696       0.81037286      20.00000000        3       0.00350879       0.00066574       0.00237969
Pt       4.21082088       0.81037286      20.00000000        3      -0.00218682       0.00061611       0.00321952
Pt       7.01803480       0.81037286      20.00000000        3       0.00083606       0.00283980      -0.00485659
Pt       2.80721392       3.24149143      20.00000000        3       0.00090389      -0.00002915      -0.00353882
Pt       5.61442784       3.24149143      20.00000000        3      -0.00146588       0.00183417       0.01590452
Pt       8.42164176       3.24149143      20.00000000        3       0.00228653       0.00241106       0.01940748
Pt       4.21082088       5.67261000      20.00000000        3       0.00348738      -0.00157621       0.00172228
Pt       7.01803480       5.67261000      20.00000000        3       0.00195134      -0.00240346       0.03659764
Pt       9.82524872       5.67261000      20.00000000        3      -0.00199624      -0.00220069       0.00399703
Pt      -0.00000000       1.62074571      22.29208057        2      -0.02897142       0.06047453      -0.03392820
Pt       2.80721392       1.62074571      22.29208057        2      -0.01689888      -0.06630194      -0.05670078
Pt       5.61442784       1.62074571      22.29208057        2      -0.00070068       0.04355010      -0.04282649
Pt       1.40360696       4.05186428      22.29208057        2      -0.18250009       0.07137543       0.06492140
Pt       4.21082088       4.05186428      22.29208057        2       0.11817013       0.05243608       0.01836328
Pt       7.01803480       4.05186428      22.29208057        2       0.02830415       0.06735888       0.02686749
Pt       2.80721392       6.48298285      22.29208057        2      -0.01797733      -0.01324973      -0.05894800
Pt       5.61442784       6.48298285      22.29208057        2       0.03652277      -0.09004977      -0.01967115
Pt       8.42164176       6.48298285      22.29208057        2      -0.05331964      -0.12697358       0.02738947
Pt      -0.02980864       0.00975699      24.57063938        1      -0.00260178       0.00682664      -0.00685889
Pt       2.77876453      -0.01586891      24.60179854        1       0.01504537       0.03898473       0.00962338
Pt       5.60391382       0.00627062      24.57091218        1      -0.00372495      -0.00178649      -0.01211780
Pt       1.39503563       2.41224999      24.57390656        1       0.00815277       0.01362966      -0.02147473
Pt       4.18120164       2.41098383      24.57289371        1      -0.02226010      -0.00303299      -0.01404628
Pt       6.98930481       2.43565378      24.60072209        1       0.01823996      -0.01234606       0.01103035
Pt       2.79800541       4.85843515      24.55895280        1      -0.00363969      -0.01374385       0.00541699
Pt       5.56165060       4.85389428      24.61622989        1       0.00413653      -0.01564210       0.00466226
Pt       8.45328438       4.85352805      24.62803480        1       0.01853791      -0.01474475      -0.01593056
N        7.00396414       4.87508663      26.87165626        0       0.03199465       0.00025655       0.02697501
H        6.63752135       4.05406675      26.33079289        0       0.02117795       0.01852226      -0.00594270
H        6.64501238       5.69696674      26.32759743        0       0.02059153      -0.01513412       0.00021493
H        8.00072862       4.87025137      26.56867144        0       0.00439589      -0.00256665       0.01814851
