31
Lattice="8.421641763931781 0.0 0.0 4.2108208819658905 7.293355709136913 0.0 0.0 0.0 44.584161137365626" Properties=species:S:1:pos:R:3:tags:I:1:forces:R:3 energy=-172.80596923828125 free_energy=-172.80596923828125 stress="0.010340865701436996 -5.324598983946771e-09 8.44757985785094e-10 -5.324598983946771e-09 0.010238098911941051 0.00010186708095716313 8.44757985785094e-10 0.00010186708095716313 -2.5213415938196704e-05" pbc="T T T"
Pt       1.40360696       0.81037286      20.00000000        3       0.00136974       0.00058606      -0.00833493
Pt       4.21082088       0.81037286      20.00000000        3      -0.00136732       0.00058728      -0.00833556
Pt       7.01803480       0.81037286      20.00000000        3      -0.00000224       0.00054166      -0.01008761
Pt       2.80721392       3.24149143      20.00000000        3       0.00000120      -0.00272452      -0.00847268
Pt       5.61442784       3.24149143      20.00000000        3      -0.00164534       0.00133644       0.01607421
Pt       8.42164176       3.24149143      20.00000000        3       0.00164465       0.00133751       0.01607394
Pt       4.21082088       5.67261000      20.00000000        3       0.00306853      -0.00382146       0.00073183
Pt       7.01803480       5.67261000      20.00000000        3      -0.00000220      -0.00263114       0.02806666
Pt       9.82524872       5.67261000      20.00000000        3      -0.00306702      -0.00382054       0.00073180
Pt      -0.00000000       1.62074571      22.29208057        2      -0.06632598       0.08840393      -0.04020308
Pt       2.80721392       1.62074571      22.29208057        2      -0.00000163       0.01983298      -0.12073220
Pt       5.61442784       1.62074571      22.29208057        2       0.06632812       0.08840264      -0.04020242
Pt       1.40360696       4.05186428      22.29208057        2      -0.15750565       0.09655784       0.02518996
Pt       4.21082088       4.05186428      22.29208057        2       0.15750493       0.09655791       0.02518410
Pt       7.01803480       4.05186428      22.29208057        2      -0.00000024       0.06662362       0.08368625
Pt       2.80721392       6.48298285      22.29208057        2      -0.00000036      -0.00960237      -0.06137999
Pt       5.61442784       6.48298285      22.29208057        2       0.02929526      -0.15445890       0.02591603
Pt       8.42164176       6.48298285      22.29208057        2      -0.02929457      -0.15446283       0.02591972
Pt      -0.00201849       0.01868577      24.56279958        1      -0.01061751      -0.00948469       0.00658426
Pt       2.80721416       0.04624298      24.56969638        1      -0.00000114      -0.04436666      -0.00401272
Pt       5.61644676       0.01868500      24.56279992        1       0.01061529      -0.00947885       0.00658402
Pt       1.40760229       2.45042693      24.56863175        1       0.00295221      -0.02025243       0.00780207
Pt       4.20682450       2.45042638      24.56863091        1      -0.00294285      -0.02025047       0.00781202
Pt       7.01803520       2.42384844      24.59392369        1      -0.00000728       0.00319529       0.02678848
Pt       2.80721379       4.87606358      24.56256546        1      -0.00000022       0.01986755      -0.00170477
Pt       5.59298816       4.89382237      24.62805637        1       0.02575709      -0.02176823      -0.00591796
Pt       8.44308088       4.89382185      24.62805934        1      -0.02575418      -0.02176325      -0.00593757
N        7.01803537       4.34186240      26.93106530        0      -0.00000677       0.02513501      -0.01031160
H        6.19839531       4.86425637      26.56360856        0       0.00289670      -0.01868950      -0.00303677
H        7.83767622       4.86425548      26.56360837        0      -0.00288990      -0.01868263      -0.00302995
H        7.01803475       3.45219076      26.38980409        0      -0.00000118       0.00729302       0.02855450
