31
Lattice="8.421641763931781 0.0 0.0 4.2108208819658905 7.293355709136913 0.0 0.0 0.0 44.584161137365626" Properties=species:S:1:pos:R:3:tags:I:1:forces:R:3 energy=-173.710693359375 free_energy=-173.710693359375 stress="0.010916207917034626 5.221362009422137e-09 -4.26610391457416e-09 5.221362009422137e-09 0.010916212573647499 -5.12041298250665e-09 -4.26610391457416e-09 -5.12041298250665e-09 0.0002264527720399201" pbc="T T T"
Pt       1.40360696       0.81037286      20.00000000        3       0.00532248       0.00306961      -0.00583678
Pt       4.21082088       0.81037286      20.00000000        3       0.00000170       0.00275144      -0.00228998
Pt       7.01803480       0.81037286      20.00000000        3      -0.00532415       0.00307069      -0.00583643
Pt       2.80721392       3.24149143      20.00000000        3       0.00238641      -0.00137666      -0.00229156
Pt       5.61442784       3.24149143      20.00000000        3      -0.00238668      -0.00137639      -0.00229087
Pt       8.42164176       3.24149143      20.00000000        3       0.00000130       0.00388630       0.01204482
Pt       4.21082088       5.67261000      20.00000000        3       0.00000230      -0.00614413      -0.00583583
Pt       7.01803480       5.67261000      20.00000000        3       0.00336318      -0.00194147       0.01204619
Pt       9.82524872       5.67261000      20.00000000        3      -0.00336686      -0.00194068       0.01204690
Pt      -0.00000000       1.62074571      22.29208057        2       0.00000218       0.05560840       0.06554732
Pt       2.80721392       1.62074571      22.29208057        2      -0.00339425      -0.00196135       0.04122242
Pt       5.61442784       1.62074571      22.29208057        2       0.00339383      -0.00196287       0.04122339
Pt       1.40360696       4.05186428      22.29208057        2      -0.05054598       0.02918717      -0.00922590
Pt       4.21082088       4.05186428      22.29208057        2       0.00000094       0.00392223       0.04122354
Pt       7.01803480       4.05186428      22.29208057        2       0.05054658       0.02918530      -0.00923007
Pt       2.80721392       6.48298285      22.29208057        2      -0.04816088      -0.02780539       0.06555019
Pt       5.61442784       6.48298285      22.29208057        2       0.04815824      -0.02780378       0.06554668
Pt       8.42164176       6.48298285      22.29208057        2       0.00000422      -0.05836549      -0.00922739
Pt       0.00000067      -0.00000001      24.60026329        1       0.00000239      -0.00000022      -0.04451770
Pt       2.80338889       0.00819161      24.61113020        1       0.00087094       0.01183004      -0.04276903
Pt       5.61825443       0.00819322      24.61113082        1      -0.00087212       0.01182642      -0.04277778
Pt       1.40878817       2.42371026      24.61112981        1       0.01068411      -0.00516104      -0.04276942
Pt       4.21082131       2.43111865      24.60033296        1       0.00000102       0.00000130      -0.04960471
Pt       7.01285493       2.42371122      24.61113036        1      -0.01068421      -0.00516628      -0.04276814
Pt       2.81622248       4.86145507      24.61113109        1       0.00980809      -0.00666863      -0.04277651
Pt       5.60542287       4.86145457      24.61112957        1      -0.00981694      -0.00666618      -0.04276876
Pt       8.42164341       4.86223828      24.65482085        1      -0.00000973      -0.00000658      -0.00605744
N        8.42163756       4.86223407      26.71809051        0       0.00002709      -0.00000151       0.04775512
H        8.42163968       3.89017546      27.03903161        0       0.00000184       0.02898161       0.00154173
H        7.57981096       5.34826525      27.03903050        0       0.02508658      -0.01448015       0.00155222
H        9.26346785       5.34826514      27.03902061        0      -0.02510355      -0.01449188       0.00157373
