31
Lattice="8.421641763931781 0.0 0.0 4.2108208819658905 7.293355709136913 0.0 0.0 0.0 44.584161137365626" Properties=species:S:1:pos:R:3:tags:I:1:forces:R:3 energy=-172.80612182617188 free_energy=-172.80612182617188 stress="0.010215005837380886 4.929323060842705e-10 2.512423824541088e-09 4.929323060842705e-10 0.010215016081929207 3.3737046489790146e-10 2.512423824541088e-09 3.3737046489790146e-10 -7.90363919804804e-05" pbc="T T T"
Pt       1.40360696       0.81037286      20.00000000        3       0.00000123      -0.00000232      -0.01100382
Pt       4.21082088       0.81037286      20.00000000        3      -0.00200894       0.00319055       0.00014961
Pt       7.01803480       0.81037286      20.00000000        3       0.00200832       0.00318962       0.00014839
Pt       2.80721392       3.24149143      20.00000000        3       0.00176014      -0.00333828       0.00014830
Pt       5.61442784       3.24149143      20.00000000        3      -0.00000193      -0.00000000       0.03285968
Pt       8.42164176       3.24149143      20.00000000        3      -0.00175760      -0.00333697       0.00014755
Pt       4.21082088       5.67261000      20.00000000        3       0.00377173       0.00014680       0.00014919
Pt       7.01803480       5.67261000      20.00000000        3      -0.00377179       0.00014837       0.00014839
Pt       9.82524872       5.67261000      20.00000000        3      -0.00000105       0.00000300      -0.01574668
Pt      -0.00000000       1.62074571      22.29208057        2      -0.14542365       0.08395895       0.01005656
Pt       2.80721392       1.62074571      22.29208057        2       0.14542617       0.08396007       0.01005632
Pt       5.61442784       1.62074571      22.29208057        2      -0.00000171       0.12772772       0.03249449
Pt       1.40360696       4.05186428      22.29208057        2       0.00000117      -0.03007289      -0.07678548
Pt       4.21082088       4.05186428      22.29208057        2       0.11061800      -0.06386440       0.03249530
Pt       7.01803480       4.05186428      22.29208057        2      -0.11061936      -0.06386435       0.03249538
Pt       2.80721392       6.48298285      22.29208057        2       0.02604453       0.01503748      -0.07678600
Pt       5.61442784       6.48298285      22.29208057        2      -0.00000178      -0.16792132       0.01005569
Pt       8.42164176       6.48298285      22.29208057        2      -0.02604306       0.01503947      -0.07678758
Pt       0.00393413       0.00227106      24.56059990        1      -0.01717375      -0.00991680       0.01756905
Pt       2.80328022       0.00227124      24.56060021        1       0.01717436      -0.00991545       0.01756914
Pt       5.61442775      -0.00512091      24.56477907        1       0.00000076      -0.03940212       0.01025143
Pt       1.40360699       2.42657601      24.56060069        1       0.00000075       0.01983215       0.01757048
Pt       4.18586847       2.41671214      24.61159972        1       0.00751614       0.00433901       0.00178554
Pt       7.04298717       2.41671215      24.61159974        1      -0.00751727       0.00433869       0.00178601
Pt       2.80277939       4.86479741      24.56477931        1      -0.03412423       0.01970073       0.01025219
Pt       5.61442782       4.89104977      24.61159943        1      -0.00000148      -0.00867840       0.00178597
Pt       8.42607638       4.86479752      24.56477942        1       0.03412456       0.01970060       0.01025300
N        5.61442811       3.24149153      26.93137607        0      -0.00000942       0.00000814       0.00368792
H        5.61442782       4.19005519      26.50980297        0       0.00000004       0.02604610       0.00106714
H        6.43590795       2.76720978      26.50980371        0       0.02256945      -0.01302960       0.00106137
H        4.79294757       2.76720973      26.50980315        0      -0.02256045      -0.01302451       0.00106564
