31
Lattice="8.421641763931781 0.0 0.0 4.2108208819658905 7.293355709136913 0.0 0.0 0.0 44.584161137365626" Properties=species:S:1:pos:R:3:tags:I:1:forces:R:3 energy=-172.80471801757812 free_energy=-172.80471801757812 stress="0.010280989110469818 5.049674012269634e-09 -1.3968225687222002e-08 5.049674012269634e-09 0.010280987247824669 -6.71067956758975e-09 -1.3968225687222002e-08 -6.71067956758975e-09 -4.84562260680832e-05" pbc="T T T"
Pt       1.40360696       0.81037286      20.00000000        3       0.00149722       0.00066847      -0.01032242
Pt       4.21082088       0.81037286      20.00000000        3      -0.00132837       0.00095821      -0.01032162
Pt       7.01803480       0.81037286      20.00000000        3      -0.00020917       0.00324393      -0.00452259
Pt       2.80721392       3.24149143      20.00000000        3      -0.00016487      -0.00163213      -0.01032472
Pt       5.61442784       3.24149143      20.00000000        3       0.00040384       0.00063047       0.01849321
Pt       8.42164176       3.24149143      20.00000000        3      -0.00074762       0.00003620       0.01849216
Pt       4.21082088       5.67261000      20.00000000        3       0.00291690      -0.00144242      -0.00452197
Pt       7.01803480       5.67261000      20.00000000        3       0.00034097      -0.00066409       0.01849332
Pt       9.82524872       5.67261000      20.00000000        3      -0.00270867      -0.00179934      -0.00452316
Pt      -0.00000000       1.62074571      22.29208057        2      -0.12140621       0.09941852      -0.00066466
Pt       2.80721392       1.62074571      22.29208057        2       0.00000091      -0.00000515      -0.11644293
Pt       5.61442784       1.62074571      22.29208057        2       0.11677374       0.09310760       0.00270683
Pt       1.40360696       4.05186428      22.29208057        2      -0.13902651       0.05457766       0.00270882
Pt       4.21082088       4.05186428      22.29208057        2       0.14680499       0.05542926      -0.00066657
Pt       7.01803480       4.05186428      22.29208057        2      -0.00000045       0.00000046       0.08543272
Pt       2.80721392       6.48298285      22.29208057        2      -0.00000047       0.00000199      -0.07498492
Pt       5.61442784       6.48298285      22.29208057        2       0.02224931      -0.14768168       0.00270633
Pt       8.42164176       6.48298285      22.29208057        2      -0.02539955      -0.15484993      -0.00065932
Pt      -0.00300387       0.00562438      24.55890709        1      -0.00090802      -0.02670498       0.02331777
Pt       2.80730064       0.00954428      24.56698961        1      -0.00309670       0.00669451       0.01104753
Pt       5.61105882      -0.00541464      24.55890642        1       0.02357764       0.01256698       0.02331851
Pt       1.41182845       2.42627133      24.56698873        1       0.00735137      -0.00066555       0.01106106
Pt       4.20251177       2.42642194      24.56698888        1      -0.00424837      -0.00603625       0.01105823
Pt       7.01123241       2.41008069      24.61569881        1       0.02002180       0.00549141       0.00407640
Pt       2.81358671       4.86202608      24.55890675        1      -0.02267333       0.01413993       0.02331848
Pt       5.59960951       4.87864655      24.61569877        1      -0.00525132      -0.02008653       0.00408912
Pt       8.44326108       4.86686442      24.61570132        1      -0.01477088       0.01459982       0.00407751
N        7.01803407       4.05186321      26.95924765        0       0.00005792       0.00001136       0.01812550
H        7.08330486       3.10520881      26.53935010        0      -0.00951051      -0.01053184      -0.01485346
H        6.16557290       4.46866719      26.53935240        0      -0.00437388       0.01350465      -0.01487102
H        7.80522991       4.58171622      26.53935608        0       0.01382840      -0.00298136      -0.01484411
