31
Lattice="8.421641763931781 0.0 0.0 4.2108208819658905 7.293355709136913 0.0 0.0 0.0 44.584161137365626" Properties=species:S:1:pos:R:3:tags:I:1:forces:R:3 energy=-172.8053741455078 free_energy=-172.8053741455078 stress="0.010314841754734516 -1.1930793020198394e-09 -7.48744799494716e-09 -1.1930793020198394e-09 0.010264886543154716 -6.445401231758296e-05 -7.48744799494716e-09 -6.445401231758296e-05 -1.555100425321143e-05" pbc="T T T"
Pt       1.40360696       0.81037286      20.00000000        3       0.00093217       0.00201216      -0.00832906
Pt       4.21082088       0.81037286      20.00000000        3      -0.00092900       0.00201376      -0.00832823
Pt       7.01803480       0.81037286      20.00000000        3      -0.00000271       0.00254238      -0.00997126
Pt       2.80721392       3.24149143      20.00000000        3       0.00000198      -0.00056357      -0.00643298
Pt       5.61442784       3.24149143      20.00000000        3      -0.00182735       0.00281443       0.01605046
Pt       8.42164176       3.24149143      20.00000000        3       0.00182568       0.00281479       0.01604819
Pt       4.21082088       5.67261000      20.00000000        3       0.00275819      -0.00175033       0.00135663
Pt       7.01803480       5.67261000      20.00000000        3      -0.00000261      -0.00165678       0.02707863
Pt       9.82524872       5.67261000      20.00000000        3      -0.00275643      -0.00174843       0.00135711
Pt      -0.00000000       1.62074571      22.29208057        2      -0.05991236       0.06153537      -0.03975241
Pt       2.80721392       1.62074571      22.29208057        2       0.00000135      -0.01343537      -0.10786287
Pt       5.61442784       1.62074571      22.29208057        2       0.05991172       0.06153258      -0.03975233
Pt       1.40360696       4.05186428      22.29208057        2      -0.15452060       0.06490474       0.03627918
Pt       4.21082088       4.05186428      22.29208057        2       0.15452094       0.06490230       0.03627003
Pt       7.01803480       4.05186428      22.29208057        2      -0.00000058       0.04678540       0.07277647
Pt       2.80721392       6.48298285      22.29208057        2      -0.00000247      -0.04095032      -0.07370806
Pt       5.61442784       6.48298285      22.29208057        2       0.02178162      -0.17521858       0.02284509
Pt       8.42164176       6.48298285      22.29208057        2      -0.02177856      -0.17521822       0.02285216
Pt      -0.01123162      -0.01385107      24.56335331        1       0.04620287       0.00736906       0.00770155
Pt       2.80721389       0.00059083      24.56808312        1       0.00000449       0.01147585      -0.00642885
Pt       5.62566035      -0.01385102      24.56335384        1      -0.04620786       0.00736440       0.00769135
Pt       1.40770229       2.40721610      24.57008906        1       0.01529238       0.01631529      -0.00071360
Pt       4.20672612       2.40721735      24.57008951        1      -0.01529466       0.01630395      -0.00071280
Pt       7.01803452       2.40304502      24.59456971        1       0.00000218      -0.01717444       0.04192064
Pt       2.80721529       4.83911387      24.56370935        1      -0.00001184       0.02286872      -0.00901087
Pt       5.58907258       4.85269544      24.62682558        1       0.01530621       0.02645555      -0.00760745
Pt       8.44699540       4.85269568      24.62682686        1      -0.01529278       0.02645556      -0.00762286
N        7.01803428       4.35581067      26.93230328        0       0.00005893      -0.00941648      -0.03409043
H        7.01803686       3.46739821      26.38941719        0      -0.00002097      -0.03029137       0.02580458
H        6.19847973       4.87255630      26.55475144        0       0.01873180       0.01047985       0.01212684
H        7.83759109       4.87255467      26.55475117        0      -0.01877174       0.01047761       0.01216514
