31
Lattice="8.421641763931781 0.0 0.0 4.2108208819658905 7.293355709136913 0.0 0.0 0.0 44.584161137365626" Properties=species:S:1:pos:R:3:tags:I:1:forces:R:3 energy=-172.80630493164062 free_energy=-172.80630493164062 stress="0.01026924978941679 -4.086730259755811e-11 3.612308008271725e-09 -4.086730259755811e-11 0.010269260965287685 -3.079865917854363e-09 3.612308008271725e-09 -3.079865917854363e-09 9.030906767293345e-06" pbc="T T T"
Pt       1.40360696       0.81037286      20.00000000        3       0.00000091      -0.00000269      -0.00880900
Pt       4.21082088       0.81037286      20.00000000        3      -0.00214143       0.00264092       0.00079590
Pt       7.01803480       0.81037286      20.00000000        3       0.00214073       0.00264016       0.00079536
Pt       2.80721392       3.24149143      20.00000000        3       0.00121783      -0.00317761       0.00079450
Pt       5.61442784       3.24149143      20.00000000        3      -0.00000200      -0.00000020       0.03264424
Pt       8.42164176       3.24149143      20.00000000        3      -0.00121565      -0.00317687       0.00079340
Pt       4.21082088       5.67261000      20.00000000        3       0.00336253       0.00053656       0.00079533
Pt       7.01803480       5.67261000      20.00000000        3      -0.00336209       0.00053754       0.00079432
Pt       9.82524872       5.67261000      20.00000000        3      -0.00000145       0.00000241      -0.01720315
Pt      -0.00000000       1.62074571      22.29208057        2      -0.13941216       0.08048821       0.02965583
Pt       2.80721392       1.62074571      22.29208057        2       0.13941169       0.08048771       0.02965103
Pt       5.61442784       1.62074571      22.29208057        2       0.00000045       0.12738796       0.04131702
Pt       1.40360696       4.05186428      22.29208057        2       0.00000043      -0.04157468      -0.08074313
Pt       4.21082088       4.05186428      22.29208057        2       0.11032380      -0.06369396       0.04131493
Pt       7.01803480       4.05186428      22.29208057        2      -0.11032482      -0.06369686       0.04131798
Pt       2.80721392       6.48298285      22.29208057        2       0.03600510       0.02078895      -0.08074389
Pt       5.61442784       6.48298285      22.29208057        2      -0.00000168      -0.16097613       0.02965092
Pt       8.42164176       6.48298285      22.29208057        2      -0.03600243       0.02078999      -0.08074604
Pt       0.00154712       0.00089260      24.56436933        1       0.00933280       0.00539098      -0.00226411
Pt       2.80566778       0.00089276      24.56436986        1      -0.00933755       0.00539016      -0.00226355
Pt       5.61442765      -0.01019394      24.56513552        1       0.00000312       0.01071978       0.01351424
Pt       1.40360712       2.42933252      24.56437006        1      -0.00000275      -0.01077846      -0.00226399
Pt       4.18729668       2.41753712      24.61312564        1       0.00276426       0.00159455      -0.00094188
Pt       7.04155848       2.41753702      24.61312615        1      -0.00275992       0.00159325      -0.00095102
Pt       2.79838608       4.86733374      24.56513599        1       0.00928278      -0.00535854       0.01351483
Pt       5.61442813       4.88940020      24.61312473        1      -0.00000082      -0.00319051      -0.00094174
Pt       8.43046931       4.86733412      24.56513609        1      -0.00928210      -0.00536215       0.01351595
N        5.61442800       3.24149104      26.94056702        0      -0.00002202       0.00002812      -0.03256890
H        6.43456201       2.76798702      26.51488979        0       0.02600117      -0.01501528       0.00651562
H        4.79429403       2.76798716      26.51488916        0      -0.02598456      -0.01501220       0.00652615
H        5.61442780       4.18850033      26.51488950        0       0.00000568       0.02999899       0.00653240
