31
Lattice="8.421641763931781 0.0 0.0 4.2108208819658905 7.293355709136913 0.0 0.0 0.0 44.584161137365626" Properties=species:S:1:pos:R:3:tags:I:1:forces:R:3 energy=-172.57716369628906 free_energy=-172.57716369628906 stress="0.010478965938091278 -4.554331578532356e-09 -3.128839132227057e-10 -4.554331578532356e-09 0.010478973388671875 -2.93838797738033e-09 -3.128839132227057e-10 -2.93838797738033e-09 -0.00018220719357486814" pbc="T T T"
Pt       1.40360696       0.81037286      20.00000000        3       0.00106728       0.00043562      -0.00487068
Pt       4.21082088       0.81037286      20.00000000        3      -0.00091108       0.00070286      -0.00486994
Pt       7.01803480       0.81037286      20.00000000        3      -0.00009049       0.00047697      -0.00420865
Pt       2.80721392       3.24149143      20.00000000        3      -0.00015209      -0.00114305      -0.00487205
Pt       5.61442784       3.24149143      20.00000000        3       0.00003933       0.00009020       0.00331920
Pt       8.42164176       3.24149143      20.00000000        3      -0.00009719      -0.00000825       0.00331783
Pt       4.21082088       5.67261000      20.00000000        3       0.00046149      -0.00016218      -0.00420752
Pt       7.01803480       5.67261000      20.00000000        3       0.00005502      -0.00007872       0.00331864
Pt       9.82524872       5.67261000      20.00000000        3      -0.00037208      -0.00031361      -0.00420836
Pt      -0.00000000       1.62074571      22.29208057        2      -0.02726821       0.03339217      -0.00388856
Pt       2.80721392       1.62074571      22.29208057        2       0.00000086      -0.00000182      -0.05327057
Pt       5.61442784       1.62074571      22.29208057        2       0.02598046       0.03246814      -0.00567605
Pt       1.40360696       4.05186428      22.29208057        2      -0.04111050       0.00626664      -0.00567402
Pt       4.21082088       4.05186428      22.29208057        2       0.04255621       0.00691873      -0.00389106
Pt       7.01803480       4.05186428      22.29208057        2      -0.00000306       0.00000055       0.05031727
Pt       2.80721392       6.48298285      22.29208057        2       0.00000038       0.00000192      -0.03515340
Pt       5.61442784       6.48298285      22.29208057        2       0.01512660      -0.03873552      -0.00567533
Pt       8.42164176       6.48298285      22.29208057        2      -0.01528394      -0.04030933      -0.00389138
Pt      -0.00188899      -0.00020534      24.57707658        1       0.00315168       0.00670976      -0.00708458
Pt       2.80770915       0.00689217      24.57902275        1       0.00323637      -0.01788523      -0.00410751
Pt       5.61554987      -0.00153368      24.57707659        1      -0.00738457      -0.00062484      -0.00708500
Pt       1.40932843       2.42724360      24.57902266        1      -0.01710836       0.00613798      -0.00410667
Pt       4.20460457       2.42810128      24.57902259        1       0.01386876       0.01174535      -0.00410762
Pt       7.01544309       2.41651332      24.58942618        1      -0.00550406       0.02317753       0.00538538
Pt       2.80798103       4.86397592      24.57707653        1       0.00423294      -0.00608461      -0.00708249
Pt       5.60307491       4.87178395      24.58942603        1       0.02282819      -0.00681757       0.00538379
Pt       8.43558595       4.86729580      24.58942623        1      -0.01732076      -0.01635987       0.00538534
N        7.01803489       4.05186391      27.59415623        0      -0.00000313       0.00003684       0.00236660
H        7.96315197       4.05669574      27.19876089        0      -0.02401182       0.02385255       0.03304467
H        6.54966030       3.23095354      27.19876082        0       0.03266393       0.00884810       0.03303759
H        6.54129222       4.86794394      27.19876066        0      -0.00864826      -0.03273760       0.03305510
