31
Lattice="8.421641763931781 0.0 0.0 4.2108208819658905 7.293355709136913 0.0 0.0 0.0 44.584161137365626" Properties=species:S:1:pos:R:3:tags:I:1:forces:R:3 energy=-172.80612182617188 free_energy=-172.80612182617188 stress="0.010317445732653141 4.6662447239498306e-09 -5.299981342687943e-09 4.6662447239498306e-09 0.010317455045878887 -3.645777679750495e-09 -5.299981342687943e-09 -3.645777679750495e-09 1.470968982175691e-05" pbc="T T T"
Pt       1.40360696       0.81037286      20.00000000        3       0.00118267       0.00067946      -0.00975457
Pt       4.21082088       0.81037286      20.00000000        3      -0.00117996       0.00068049      -0.00975388
Pt       7.01803480       0.81037286      20.00000000        3      -0.00000282       0.00306352      -0.00310129
Pt       2.80721392       3.24149143      20.00000000        3       0.00000126      -0.00136489      -0.00975615
Pt       5.61442784       3.24149143      20.00000000        3       0.00054049       0.00031314       0.01786786
Pt       8.42164176       3.24149143      20.00000000        3      -0.00054081       0.00031387       0.01786578
Pt       4.21082088       5.67261000      20.00000000        3       0.00265803      -0.00153159      -0.00310069
Pt       7.01803480       5.67261000      20.00000000        3      -0.00000211      -0.00062375       0.01786751
Pt       9.82524872       5.67261000      20.00000000        3      -0.00265705      -0.00153009      -0.00310180
Pt      -0.00000000       1.62074571      22.29208057        2      -0.12057841       0.08953622       0.01156713
Pt       2.80721392       1.62074571      22.29208057        2       0.00000172      -0.00000293      -0.12116300
Pt       5.61442784       1.62074571      22.29208057        2       0.12057739       0.08953783       0.01156612
Pt       1.40360696       4.05186428      22.29208057        2      -0.13783395       0.05965516       0.01156432
Pt       4.21082088       4.05186428      22.29208057        2       0.13783890       0.05965560       0.01156528
Pt       7.01803480       4.05186428      22.29208057        2      -0.00000496       0.00000174       0.08417811
Pt       2.80721392       6.48298285      22.29208057        2       0.00000104       0.00000303      -0.05945077
Pt       5.61442784       6.48298285      22.29208057        2       0.01725221      -0.14919555       0.01156859
Pt       8.42164176       6.48298285      22.29208057        2      -0.01725257      -0.14919114       0.01156681
Pt      -0.00072191      -0.00041730      24.56338249        1      -0.00592815      -0.00342323      -0.00191024
Pt       2.80721415       0.01175079      24.56733997        1      -0.00000050      -0.01475548       0.01010607
Pt       5.61515023      -0.00041744      24.56338235        1       0.00592682      -0.00342439      -0.00191167
Pt       1.41378380       2.42524308      24.56734069        1      -0.01277820       0.00737531       0.01010585
Pt       4.20064430       2.42524314      24.56734034        1       0.01277743       0.00737462       0.01010512
Pt       7.01803435       2.41191770      24.61556616        1       0.00000072      -0.00761250      -0.00047997
Pt       2.80721399       4.86307093      24.56338096        1      -0.00000081       0.00684847      -0.00189883
Pt       5.59779903       4.87183720      24.61556725        1      -0.00659145       0.00380966      -0.00049431
Pt       8.43826983       4.87183734      24.61556663        1       0.00659291       0.00380870      -0.00048199
N        7.01803451       4.05186403      26.96079482        0       0.00003448       0.00003011      -0.02613211
H        7.01803494       3.10656560      26.53156581        0      -0.00000241      -0.03149341       0.00498686
H        6.19938260       4.52451357      26.53156525        0      -0.02727346       0.01573882       0.00499815
H        7.83668757       4.52451367      26.53156529        0       0.02724163       0.01572322       0.00501161
