31
Lattice="8.421641763931781 0.0 0.0 4.2108208819658905 7.293355709136913 0.0 0.0 0.0 44.584161137365626" Properties=species:S:1:pos:R:3:tags:I:1:forces:R:3 energy=-172.64517211914062 free_energy=-172.64517211914062 stress="0.010424403473734856 5.992810248045544e-09 9.271229117757684e-09 5.992810248045544e-09 0.010424424894154072 -8.3390361282909e-09 9.271229117757684e-09 -8.3390361282909e-09 -8.760510354477447e-06" pbc="T T T"
Pt       1.40360696       0.81037286      20.00000000        3       0.00203380       0.00117139       0.00089705
Pt       4.21082088       0.81037286      20.00000000        3      -0.00203134       0.00117236       0.00089738
Pt       7.01803480       0.81037286      20.00000000        3      -0.00000250       0.00398761       0.00066781
Pt       2.80721392       3.24149143      20.00000000        3       0.00000124      -0.00234759       0.00089592
Pt       5.61442784       3.24149143      20.00000000        3       0.00027149       0.00015711       0.02934432
Pt       8.42164176       3.24149143      20.00000000        3      -0.00027196       0.00015838       0.02934307
Pt       4.21082088       5.67261000      20.00000000        3       0.00345758      -0.00199335       0.00066853
Pt       7.01803480       5.67261000      20.00000000        3      -0.00000160      -0.00031344       0.02934387
Pt       9.82524872       5.67261000      20.00000000        3      -0.00345636      -0.00199208       0.00066864
Pt      -0.00000000       1.62074571      22.29208057        2      -0.07618363       0.08602830      -0.01590275
Pt       2.80721392       1.62074571      22.29208057        2       0.00000048      -0.00000173      -0.06579379
Pt       5.61442784       1.62074571      22.29208057        2       0.07618345       0.08602890      -0.01590364
Pt       1.40360696       4.05186428      22.29208057        2      -0.11259637       0.02296316      -0.01590279
Pt       4.21082088       4.05186428      22.29208057        2       0.11259774       0.02296158      -0.01590516
Pt       7.01803480       4.05186428      22.29208057        2      -0.00000163      -0.00000101       0.00991482
Pt       2.80721392       6.48298285      22.29208057        2       0.00000042       0.00000145      -0.07842121
Pt       5.61442784       6.48298285      22.29208057        2       0.03641013      -0.10899056      -0.01590519
Pt       8.42164176       6.48298285      22.29208057        2      -0.03641045      -0.10899077      -0.01590338
Pt      -0.00172807      -0.00099811      24.55968864        1      -0.00141918      -0.00081921       0.02566651
Pt       2.80721391       0.00666466      24.58204435        1       0.00000066      -0.00462756      -0.00813444
Pt       5.61615621      -0.00099814      24.55968859        1       0.00141859      -0.00081964       0.02566634
Pt       1.40937885       2.42778615      24.58204434        1      -0.00400749       0.00231249      -0.00813212
Pt       4.20504894       2.42778611      24.58204449        1       0.00400712       0.00231207      -0.00813316
Pt       7.01803464       2.40933261      24.62282302        1       0.00000006       0.01740618       0.04149622
Pt       2.80721409       4.86423276      24.55968873        1       0.00000087       0.00164003       0.02566756
Pt       5.59556106       4.87312978      24.62282259        1       0.01507544      -0.00870295       0.04150623
Pt       8.44050848       4.87313005      24.62282292        1      -0.01507656      -0.00870137       0.04149720
N        7.01803526       4.05186375      26.88201502        0      -0.00004430       0.00004216      -0.01738322
H        7.81233839       3.59327266      26.36754914        0       0.01717599      -0.00991555      -0.00759161
H        6.22373055       3.59327267      26.36754917        0      -0.01713524      -0.00989626      -0.00756863
H        7.01803458       4.96904802      26.36754930        0       0.00000350       0.01976997      -0.00756028
