31
Lattice="8.421641763931781 0.0 0.0 4.2108208819658905 7.293355709136913 0.0 0.0 0.0 44.584161137365626" Properties=species:S:1:pos:R:3:tags:I:1:forces:R:3 energy=-172.79193115234375 free_energy=-172.79193115234375 stress="0.010310148820281029 -5.974722050439141e-09 2.5901345512835405e-09 -5.974722050439141e-09 0.01031015906482935 4.63612348511333e-09 2.5901345512835405e-09 4.63612348511333e-09 -5.3186824516160414e-05" pbc="T T T"
Pt       1.40360696       0.81037286      20.00000000        3       0.00082287       0.00125748      -0.00642690
Pt       4.21082088       0.81037286      20.00000000        3      -0.00150082       0.00008067      -0.00642613
Pt       7.01803480       0.81037286      20.00000000        3       0.00026546       0.00262325      -0.00198272
Pt       2.80721392       3.24149143      20.00000000        3       0.00068176      -0.00134285      -0.00642830
Pt       5.61442784       3.24149143      20.00000000        3       0.00013050      -0.00073260       0.01711360
Pt       8.42164176       3.24149143      20.00000000        3       0.00056975       0.00048143       0.01711279
Pt       4.21082088       5.67261000      20.00000000        3       0.00214277      -0.00154368      -0.00198096
Pt       7.01803480       5.67261000      20.00000000        3      -0.00070334       0.00025402       0.01711354
Pt       9.82524872       5.67261000      20.00000000        3      -0.00240918      -0.00107787      -0.00198174
Pt      -0.00000000       1.62074571      22.29208057        2      -0.10593911       0.07567813       0.01753264
Pt       2.80721392       1.62074571      22.29208057        2       0.00000094      -0.00000109      -0.12335907
Pt       5.61442784       1.62074571      22.29208057        2       0.11871383       0.08205605       0.00726120
Pt       1.40360696       4.05186428      22.29208057        2      -0.13042139       0.06178234       0.00726155
Pt       4.21082088       4.05186428      22.29208057        2       0.11851141       0.05390843       0.01753450
Pt       7.01803480       4.05186428      22.29208057        2      -0.00000327      -0.00000002       0.07267416
Pt       2.80721392       6.48298285      22.29208057        2      -0.00000128      -0.00000006      -0.04818114
Pt       5.61442784       6.48298285      22.29208057        2       0.01170639      -0.14384057       0.00725919
Pt       8.42164176       6.48298285      22.29208057        2      -0.01256779      -0.12958409       0.01753310
Pt       0.00401485      -0.01182698      24.56825700        1      -0.01274839       0.02477725      -0.02905646
Pt       2.79849634       0.01462037      24.57019385        1       0.02185135      -0.03446820      -0.00114670
Pt       5.62266271       0.00938971      24.56825748        1      -0.01508272      -0.02342684      -0.02906731
Pt       1.42062807       2.43135797      24.57019439        1      -0.04077779      -0.00169064      -0.00114682
Pt       4.20251795       2.41625822      24.57019381        1       0.01892540       0.03615767      -0.00114642
Pt       7.03631861       2.40891809      24.60961131        1      -0.02603442      -0.01961338      -0.00391582
Pt       2.79496414       4.86467363      24.56825834        1       0.02783693      -0.00134810      -0.02906641
Pt       5.58605981       4.85750247      24.60961069        1      -0.00397009       0.03235421      -0.00391705
Pt       8.43172514       4.88917174      24.60961147        1       0.02999958      -0.01274109      -0.00391211
N        7.01803511       4.05186444      26.91369146        0      -0.00002596      -0.00003603       0.03992897
H        7.69407792       4.71230562      26.47645149        0       0.01106440      -0.03057767       0.02025790
H        7.25197198       3.13617305      26.47645082        0      -0.03202008       0.00574660       0.02028104
H        6.10805431       4.30711396      26.47645051        0       0.02098237       0.02486725       0.02027800
