31
Lattice="8.421641763931781 0.0 0.0 4.2108208819658905 7.293355709136913 0.0 0.0 0.0 44.584161137365626" Properties=species:S:1:pos:R:3:tags:I:1:forces:R:3 energy=-173.7055206298828 free_energy=-173.7055206298828 stress="0.010626977309584618 -2.689246684894897e-05 -0.00016130173753481358 -2.689246684894897e-05 0.010686527006328106 3.111457408522256e-05 -0.00016130173753481358 3.111457408522256e-05 2.1073734387755394e-05" pbc="T T T"
Pt       1.40360696       0.81037286      20.00000000        3       0.00814733       0.00234927      -0.00744098
Pt       4.21082088       0.81037286      20.00000000        3      -0.00046857       0.00237100      -0.00500658
Pt       7.01803480       0.81037286      20.00000000        3      -0.00356083       0.00372976      -0.00827876
Pt       2.80721392       3.24149143      20.00000000        3       0.00405780      -0.00246587      -0.00989732
Pt       5.61442784       3.24149143      20.00000000        3      -0.00185385      -0.00257200      -0.00666809
Pt       8.42164176       3.24149143      20.00000000        3       0.00211323       0.00470519       0.01696670
Pt       4.21082088       5.67261000      20.00000000        3       0.00154061      -0.00627404      -0.01460922
Pt       7.01803480       5.67261000      20.00000000        3       0.00609970      -0.00201969       0.01753476
Pt       9.82524872       5.67261000      20.00000000        3      -0.00378329      -0.00339141       0.01130536
Pt      -0.00000000       1.62074571      22.29208057        2      -0.02342682       0.08023895       0.03091628
Pt       2.80721392       1.62074571      22.29208057        2      -0.02948754      -0.02340942       0.00094122
Pt       5.61442784       1.62074571      22.29208057        2       0.00335438       0.00702935       0.00817746
Pt       1.40360696       4.05186428      22.29208057        2      -0.12442810       0.05285911       0.00243107
Pt       4.21082088       4.05186428      22.29208057        2      -0.01574501       0.00084604      -0.02943757
Pt       7.01803480       4.05186428      22.29208057        2       0.05119559       0.02976063      -0.04078393
Pt       2.80721392       6.48298285      22.29208057        2      -0.08045097      -0.01346327       0.02168009
Pt       5.61442784       6.48298285      22.29208057        2       0.05682962      -0.01411020       0.01336295
Pt       8.42164176       6.48298285      22.29208057        2      -0.02067196      -0.07944768      -0.01982830
Pt      -0.02977917       0.01088142      24.58433555        1       0.00275622       0.00129720       0.01880130
Pt       2.77485593       0.00757205      24.61002465        1       0.01871785       0.00312004       0.00384364
Pt       5.59067566       0.01914161      24.59912847        1       0.02476298      -0.00783375      -0.00627464
Pt       1.38289892       2.42872965      24.59995346        1       0.00745534       0.00284171      -0.01197298
Pt       4.17961114       2.43522314      24.58455409        1       0.02265064      -0.01262945       0.01832438
Pt       6.98647885       2.44116770      24.61106554        1       0.01072420       0.00014498      -0.00175992
Pt       2.78395027       4.86715976      24.59354144        1      -0.00053751       0.00989817       0.02313742
Pt       5.56034834       4.86933435      24.59049680        1       0.03034399      -0.01210506       0.00841242
Pt       8.39678892       4.87342129      24.67277307        1       0.01791323      -0.01726219       0.00951532
N        8.06256495       4.88186092      26.72119722        0       0.02446692      -0.00546217       0.00347090
H        8.95917913       4.90473215      27.21394783        0      -0.01120345       0.00542090      -0.04480880
H        7.54010472       4.03302052      26.95482696        0       0.00582369      -0.04005359      -0.00123887
H        7.49968040       5.70782311      26.94422468        0       0.01666447       0.03588735      -0.00081539
