31
Lattice="8.421641763931781 0.0 0.0 4.2108208819658905 7.293355709136913 0.0 0.0 0.0 44.584161137365626" Properties=species:S:1:pos:R:3:tags:I:1:forces:R:3 energy=-172.80471801757812 free_energy=-172.80471801757812 stress="0.010280360467731953 -4.573546430464148e-09 1.7943212471394077e-09 -4.573546430464148e-09 0.010280385613441467 3.570957751719561e-09 1.7943212471394077e-09 3.570957751719561e-09 -4.919867205899209e-05" pbc="T T T"
Pt       1.40360696       0.81037286      20.00000000        3       0.00149939       0.00067044      -0.01033410
Pt       4.21082088       0.81037286      20.00000000        3      -0.00133063       0.00095938      -0.01033372
Pt       7.01803480       0.81037286      20.00000000        3      -0.00020943       0.00324851      -0.00453135
Pt       2.80721392       3.24149143      20.00000000        3      -0.00016480      -0.00163476      -0.01033440
Pt       5.61442784       3.24149143      20.00000000        3       0.00040494       0.00063140       0.01849946
Pt       8.42164176       3.24149143      20.00000000        3      -0.00074880       0.00003688       0.01849914
Pt       4.21082088       5.67261000      20.00000000        3       0.00292075      -0.00144448      -0.00453135
Pt       7.01803480       5.67261000      20.00000000        3       0.00034197      -0.00066547       0.01849899
Pt       9.82524872       5.67261000      20.00000000        3      -0.00271301      -0.00180164      -0.00453183
Pt      -0.00000000       1.62074571      22.29208057        2      -0.12143849       0.09948170      -0.00071942
Pt       2.80721392       1.62074571      22.29208057        2      -0.00000144       0.00000039      -0.11659434
Pt       5.61442784       1.62074571      22.29208057        2       0.11680790       0.09316322       0.00261305
Pt       1.40360696       4.05186428      22.29208057        2      -0.13908699       0.05457501       0.00261722
Pt       4.21082088       4.05186428      22.29208057        2       0.14687607       0.05542938      -0.00072075
Pt       7.01803480       4.05186428      22.29208057        2      -0.00000256       0.00000014       0.08541977
Pt       2.80721392       6.48298285      22.29208057        2       0.00000091       0.00000133      -0.07507090
Pt       5.61442784       6.48298285      22.29208057        2       0.02227640      -0.14774139       0.00261242
Pt       8.42164176       6.48298285      22.29208057        2      -0.02543282      -0.15491015      -0.00072290
Pt      -0.00298924       0.00562973      24.55887024        1      -0.00105932      -0.02672195       0.02350301
Pt       2.80728965       0.00955784      24.56697287        1      -0.00302148       0.00654038       0.01114665
Pt       5.61104654      -0.00540418      24.55887041        1       0.02367344       0.01244465       0.02350177
Pt       1.41184659       2.42627352      24.56697389        1       0.00717609      -0.00065324       0.01113577
Pt       4.20250568       2.42640445      24.56697337        1      -0.00415460      -0.00588344       0.01114602
Pt       7.01121892       2.41008409      24.61570449        1       0.02010991       0.00545797       0.00404585
Pt       2.81358419       4.86201094      24.55886994        1      -0.02261109       0.01427628       0.02350339
Pt       5.59961928       4.87865706      24.61570299        1      -0.00533161      -0.02014492       0.00403922
Pt       8.44326581       4.86685190      24.61570432        1      -0.01478104       0.01468610       0.00404272
N        7.01803492       4.05186432      26.95923327        0      -0.00001938      -0.00001054       0.01855129
H        7.80520243       4.58174933      26.53935458        0       0.01410091      -0.00282713      -0.01498916
H        7.08334576       3.10521286      26.53935629        0      -0.00949475      -0.01077005      -0.01498469
H        6.16555710       4.46862834      26.53935199        0      -0.00458632       0.01360591      -0.01497696
