31
Lattice="8.421641763931781 0.0 0.0 4.2108208819658905 7.293355709136913 0.0 0.0 0.0 44.584161137365626" Properties=species:S:1:pos:R:3:tags:I:1:forces:R:3 energy=-172.8042755126953 free_energy=-172.8042755126953 stress="0.010287945158779621 2.7805857616414187e-09 2.8186759593040733e-09 2.7805857616414187e-09 0.010287963785231113 -2.1221691071104942e-09 2.8186759593040733e-09 -2.1221691071104942e-09 2.582029628683813e-05" pbc="T T T"
Pt       1.40360696       0.81037286      20.00000000        3       0.00000096      -0.00000229      -0.01219139
Pt       4.21082088       0.81037286      20.00000000        3      -0.00218465       0.00302581       0.00097680
Pt       7.01803480       0.81037286      20.00000000        3       0.00197795       0.00239028       0.00095326
Pt       2.80721392       3.24149143      20.00000000        3       0.00108290      -0.00291227       0.00095338
Pt       5.61442784       3.24149143      20.00000000        3      -0.00000160       0.00000024       0.03240669
Pt       8.42164176       3.24149143      20.00000000        3      -0.00152697      -0.00340717       0.00097531
Pt       4.21082088       5.67261000      20.00000000        3       0.00371756       0.00038123       0.00097671
Pt       7.01803480       5.67261000      20.00000000        3      -0.00306507       0.00052117       0.00095275
Pt       9.82524872       5.67261000      20.00000000        3      -0.00000114       0.00000255      -0.01432887
Pt      -0.00000000       1.62074571      22.29208057        2      -0.14878774       0.08583676       0.01205907
Pt       2.80721392       1.62074571      22.29208057        2       0.14873050       0.08593857       0.01205719
Pt       5.61442784       1.62074571      22.29208057        2      -0.00261262       0.12158994       0.04922185
Pt       1.40360696       4.05186428      22.29208057        2       0.00523540      -0.02981962      -0.07347245
Pt       4.21082088       4.05186428      22.29208057        2       0.10661051      -0.05853339       0.04922075
Pt       7.01803480       4.05186428      22.29208057        2      -0.10399815      -0.06305862       0.04922433
Pt       2.80721392       6.48298285      22.29208057        2       0.02320541       0.01944553      -0.07347642
Pt       5.61442784       6.48298285      22.29208057        2       0.00005273      -0.17177492       0.01205383
Pt       8.42164176       6.48298285      22.29208057        2      -0.02843714       0.01037543      -0.07347572
Pt       0.00377169       0.00392411      24.56071497        1      -0.01566974      -0.02145235       0.02083009
Pt       2.80192978       0.00130387      24.56071377        1       0.02641342      -0.00284081       0.02084163
Pt       5.60582047      -0.01200295      24.56953941        1       0.02004621       0.02605096      -0.00908130
Pt       1.40511838       2.42589017      24.56071584        1      -0.01073383       0.02429666       0.02082132
Pt       4.18209330       2.42267724      24.61256675        1       0.02813287       0.00079369       0.01038609
Pt       7.03970906       2.41045983      24.61256845        1      -0.01475824       0.02397066       0.01037911
Pt       2.80112314       4.87569263      24.56953866        1       0.01253571      -0.03039053      -0.00907017
Pt       5.62148125       4.89133740      24.61256865        1      -0.01338232      -0.02476750       0.01038047
Pt       8.43633956       4.86078386      24.56954017        1      -0.03258210       0.00433900      -0.00907995
N        5.61442791       3.24149079      26.94051576        0      -0.00002317       0.00000384      -0.04886010
H        4.75110454       2.84441006      26.52021876        0       0.02392340      -0.00127801       0.00246005
H        5.70220633       4.18769240      26.52021956        0      -0.01305922      -0.02007048       0.00245390
H        6.38997222       2.69237221      26.52021703        0      -0.01084173       0.02134562       0.00245189
