31
Lattice="8.421641763931781 0.0 0.0 4.2108208819658905 7.293355709136913 0.0 0.0 0.0 44.584161137365626" Properties=species:S:1:pos:R:3:tags:I:1:forces:R:3 energy=-173.7158660888672 free_energy=-173.7158660888672 stress="0.010695405304431915 -1.1593028759193658e-08 -1.630941426356003e-08 -1.1593028759193658e-08 0.010695457458496094 8.733541889682783e-09 -1.630941426356003e-08 8.733541889682783e-09 5.3997569921193644e-05" pbc="T T T"
Pt       1.40360696       0.81037286      20.00000000        3       0.00578187       0.00267952      -0.00904953
Pt       4.21082088       0.81037286      20.00000000        3      -0.00040951       0.00292715      -0.00573367
Pt       7.01803480       0.81037286      20.00000000        3      -0.00521657       0.00366264      -0.00904986
Pt       2.80721392       3.24149143      20.00000000        3       0.00274363      -0.00110840      -0.00573558
Pt       5.61442784       3.24149143      20.00000000        3      -0.00233241      -0.00182034      -0.00573394
Pt       8.42164176       3.24149143      20.00000000        3       0.00044944       0.00437550       0.01246846
Pt       4.21082088       5.67261000      20.00000000        3      -0.00056452      -0.00634628      -0.00904891
Pt       7.01803480       5.67261000      20.00000000        3       0.00356197      -0.00257299       0.01246977
Pt       9.82524872       5.67261000      20.00000000        3      -0.00401349      -0.00179621       0.01247039
Pt      -0.00000000       1.62074571      22.29208057        2      -0.00116642       0.06463657       0.03390416
Pt       2.80721392       1.62074571      22.29208057        2      -0.00210211      -0.01191747       0.00323748
Pt       5.61442784       1.62074571      22.29208057        2       0.01136872       0.00413502       0.00323780
Pt       1.40360696       4.05186428      22.29208057        2      -0.06639453       0.03545181      -0.02262708
Pt       4.21082088       4.05186428      22.29208057        2      -0.00926446       0.00778021       0.00324016
Pt       7.01803480       4.05186428      22.29208057        2       0.06389493       0.03977579      -0.02262475
Pt       2.80721392       6.48298285      22.29208057        2      -0.05539428      -0.03332983       0.03390329
Pt       5.61442784       6.48298285      22.29208057        2       0.05656104      -0.03130923       0.03390435
Pt       8.42164176       6.48298285      22.29208057        2       0.00249647      -0.07522335      -0.02262854
Pt       0.00000027      -0.00000024      24.58918330        1      -0.00000000       0.00000021      -0.00004011
Pt       2.80932705      -0.00204041      24.60569982        1       0.00002147       0.00689472       0.00132966
Pt       5.62556347       0.01952780      24.60028350        1      -0.01657427      -0.02170684      -0.01355436
Pt       1.41495103       2.41171035      24.60028357        1      -0.01051310       0.02520818      -0.01355268
Pt       4.21082077       2.43111840      24.58864052        1       0.00000159       0.00000140       0.00205103
Pt       7.01874501       2.43396842      24.60569986        1      -0.00598267      -0.00342853       0.00132930
Pt       2.80439046       4.86142729      24.60569968        1       0.00596106      -0.00346786       0.00132972
Pt       5.59194805       4.86211697      24.60028366        1       0.02708469      -0.00350150      -0.01356207
Pt       8.42164165       4.86223688      24.65962457        1       0.00000233      -0.00000077       0.02950990
N        8.42164289       4.86223673      26.72769559        0      -0.00015123       0.00006747       0.01218086
H        9.39203859       4.86344843      27.05203903        0       0.02152251       0.00122213      -0.01450912
H        7.93749244       4.02124280      27.05204041        0      -0.00964322      -0.01916102      -0.01454592
H        7.93539382       5.70202091      27.05204002        0      -0.01172904       0.01787217      -0.01457015
