31
Lattice="8.421641763931781 0.0 0.0 4.2108208819658905 7.293355709136913 0.0 0.0 0.0 44.584161137365626" Properties=species:S:1:pos:R:3:tags:I:1:forces:R:3 energy=-172.80453491210938 free_energy=-172.80453491210938 stress="0.01030896045267582 5.459143803676625e-09 -4.777601425587363e-09 5.459143803676625e-09 0.010308980941772461 1.4467479436675035e-09 -4.777601425587363e-09 1.4467479436675035e-09 -2.4785829737083986e-05" pbc="T T T"
Pt       1.40360696       0.81037286      20.00000000        3       0.00144722       0.00135384      -0.00842458
Pt       4.21082088       0.81037286      20.00000000        3      -0.00189565       0.00057266      -0.00842458
Pt       7.01803480       0.81037286      20.00000000        3      -0.00024775       0.00310504      -0.00555527
Pt       2.80721392       3.24149143      20.00000000        3       0.00045256      -0.00193077      -0.00842601
Pt       5.61442784       3.24149143      20.00000000        3       0.00007398      -0.00009954       0.01854756
Pt       8.42164176       3.24149143      20.00000000        3       0.00004916       0.00011513       0.01854590
Pt       4.21082088       5.67261000      20.00000000        3       0.00281554      -0.00134009      -0.00555444
Pt       7.01803480       5.67261000      20.00000000        3      -0.00012525      -0.00001368       0.01854709
Pt       9.82524872       5.67261000      20.00000000        3      -0.00256941      -0.00176345      -0.00555509
Pt      -0.00000000       1.62074571      22.29208057        2      -0.10751690       0.10099589       0.00855014
Pt       2.80721392       1.62074571      22.29208057        2       0.00000106      -0.00000082      -0.10866477
Pt       5.61442784       1.62074571      22.29208057        2       0.11438878       0.09611890       0.00601427
Pt       1.40360696       4.05186428      22.29208057        2      -0.14043371       0.05100589       0.00601869
Pt       4.21082088       4.05186428      22.29208057        2       0.14122616       0.04261541       0.00855274
Pt       7.01803480       4.05186428      22.29208057        2      -0.00000257       0.00000062       0.08439857
Pt       2.80721392       6.48298285      22.29208057        2       0.00000107      -0.00000158      -0.08292588
Pt       5.61442784       6.48298285      22.29208057        2       0.02604477      -0.14712527       0.00601597
Pt       8.42164176       6.48298285      22.29208057        2      -0.03370684      -0.14360934       0.00854912
Pt      -0.00295037       0.00121451      24.55878820        1       0.01110926      -0.00659348       0.02386238
Pt       2.79765097       0.01234988      24.57146074        1       0.02426507      -0.01660934      -0.01095022
Pt       5.61485107      -0.00316171      24.55878851        1       0.00015602       0.01291425       0.02386223
Pt       1.41908398       2.43322398      24.57146000        1      -0.02651335      -0.01270546      -0.01094757
Pt       4.20490634       2.41666131      24.57146040        1       0.00225063       0.02932060      -0.01094994
Pt       7.02433277       2.40983682      24.61358598        1      -0.01066690       0.00372947       0.00522735
Pt       2.80974153       4.86418439      24.55878961        1      -0.01126444      -0.00632386       0.02385190
Pt       5.59284814       4.86742345      24.61358630        1       0.00856374       0.00737271       0.00522736
Pt       8.43692460       4.87833299      24.61358569        1       0.00209618      -0.01110446       0.00523364
N        7.01803393       4.05186404      26.95087851        0       0.00003672      -0.00002581      -0.01164395
H        6.16009621       4.45698823      26.52762827        0       0.01730046       0.00296371       0.00232817
H        7.79785189       4.59229936      26.52763056        0      -0.00611278      -0.01647838       0.00233941
H        7.09615686       3.10630552      26.52762665        0      -0.01122278       0.01354127       0.00235022
