31
Lattice="8.421641763931781 0.0 0.0 4.2108208819658905 7.293355709136913 0.0 0.0 0.0 44.584161137365626" Properties=species:S:1:pos:R:3:tags:I:1:forces:R:3 energy=-172.65090942382812 free_energy=-172.65090942382812 stress="0.010420496575534344 4.141184284378596e-09 -2.8132345342157805e-09 4.141184284378596e-09 0.01042051799595356 -2.720729674540734e-12 -2.8132345342157805e-09 -2.720729674540734e-12 -9.668069651525002e-06" pbc="T T T"
Pt       1.40360696       0.81037286      20.00000000        3       0.00000108      -0.00000294      -0.00922713
Pt       4.21082088       0.81037286      20.00000000        3      -0.00161683       0.00377675       0.01037958
Pt       7.01803480       0.81037286      20.00000000        3       0.00161622       0.00377584       0.01037803
Pt       2.80721392       3.24149143      20.00000000        3       0.00246364      -0.00329118       0.01037806
Pt       5.61442784       3.24149143      20.00000000        3      -0.00000195      -0.00000033       0.05188578
Pt       8.42164176       3.24149143      20.00000000        3      -0.00246093      -0.00329037       0.01037672
Pt       4.21082088       5.67261000      20.00000000        3       0.00408341      -0.00048569       0.01037896
Pt       7.01803480       5.67261000      20.00000000        3      -0.00408331      -0.00048446       0.01037800
Pt       9.82524872       5.67261000      20.00000000        3      -0.00000130       0.00000257      -0.00294769
Pt      -0.00000000       1.62074571      22.29208057        2      -0.14262018       0.08234072      -0.01449880
Pt       2.80721392       1.62074571      22.29208057        2       0.14262339       0.08234169      -0.01449891
Pt       5.61442784       1.62074571      22.29208057        2      -0.00000208       0.10560744      -0.00439804
Pt       1.40360696       4.05186428      22.29208057        2       0.00000134      -0.00523615      -0.04636878
Pt       4.21082088       4.05186428      22.29208057        2       0.09146157      -0.05280486      -0.00439813
Pt       7.01803480       4.05186428      22.29208057        2      -0.09146310      -0.05280434      -0.00439671
Pt       2.80721392       6.48298285      22.29208057        2       0.00453533       0.00261893      -0.04636820
Pt       5.61442784       6.48298285      22.29208057        2      -0.00000130      -0.16468534      -0.01449940
Pt       8.42164176       6.48298285      22.29208057        2      -0.00453358       0.00262045      -0.04636981
Pt       0.00520221       0.00300334      24.55814341        1      -0.02220524      -0.01282077       0.03848250
Pt       2.80201229       0.00300315      24.55814351        1       0.02220276      -0.01282019       0.03848304
Pt       5.61442769       0.00060259      24.57922938        1       0.00000121      -0.02769938       0.00173208
Pt       1.40360719       2.42511211      24.55814361        1      -0.00000040       0.02563745       0.03848320
Pt       4.18051107       2.41361913      24.62834700        1       0.03289008       0.01898819      -0.01525307
Pt       7.04834442       2.41361885      24.62834696        1      -0.03289043       0.01898983      -0.01525225
Pt       2.80773586       4.86193566      24.57922934        1      -0.02398747       0.01385099       0.00173272
Pt       5.61442765       4.89723563      24.62834696        1       0.00000143      -0.03797534      -0.01525359
Pt       8.42111947       4.86193543      24.57923018        1       0.02398694       0.01385051       0.00173399
N        5.61442751       3.24149165      26.85409196        0       0.00002266      -0.00000976       0.03312035
H        5.61442786       2.32115472      26.34144133        0      -0.00000094       0.01590504      -0.00472778
H        4.81739337       3.70165953      26.34144136        0       0.01375441      -0.00794177      -0.00473860
H        6.41146288       3.70165986      26.34144186        0      -0.01377645      -0.00795337      -0.00472623
