31
Lattice="8.421641763931781 0.0 0.0 4.2108208819658905 7.293355709136913 0.0 0.0 0.0 44.584161137365626" Properties=species:S:1:pos:R:3:tags:I:1:forces:R:3 energy=-173.70989990234375 free_energy=-173.70989990234375 stress="0.010813955217599869 1.0925520932403288e-08 -1.112268321890042e-08 1.0925520932403288e-08 0.01081396359950304 6.715100697718412e-10 -1.112268321890042e-08 6.715100697718412e-10 0.00012010351929347962" pbc="T T T"
Pt       1.40360696       0.81037286      20.00000000        3       0.00496303       0.00286167      -0.00772327
Pt       4.21082088       0.81037286      20.00000000        3       0.00000135       0.00341866      -0.00427032
Pt       7.01803480       0.81037286      20.00000000        3      -0.00496444       0.00286237      -0.00772372
Pt       2.80721392       3.24149143      20.00000000        3       0.00296275      -0.00171056      -0.00427246
Pt       5.61442784       3.24149143      20.00000000        3      -0.00296340      -0.00170990      -0.00427213
Pt       8.42164176       3.24149143      20.00000000        3       0.00000062       0.00448142       0.01262733
Pt       4.21082088       5.67261000      20.00000000        3       0.00000267      -0.00572772      -0.00772336
Pt       7.01803480       5.67261000      20.00000000        3       0.00387884      -0.00223801       0.01262853
Pt       9.82524872       5.67261000      20.00000000        3      -0.00388177      -0.00223806       0.01262844
Pt      -0.00000000       1.62074571      22.29208057        2       0.00000147       0.05747562       0.04723145
Pt       2.80721392       1.62074571      22.29208057        2      -0.00186791      -0.00108027       0.02037301
Pt       5.61442784       1.62074571      22.29208057        2       0.00186666      -0.00108036       0.02037369
Pt       1.40360696       4.05186428      22.29208057        2      -0.06377958       0.03682326      -0.01406284
Pt       4.21082088       4.05186428      22.29208057        2       0.00000161       0.00215722       0.02037377
Pt       7.01803480       4.05186428      22.29208057        2       0.06377754       0.03682317      -0.01406290
Pt       2.80721392       6.48298285      22.29208057        2      -0.04977679      -0.02873759       0.04723048
Pt       5.61442784       6.48298285      22.29208057        2       0.04977582      -0.02873741       0.04722911
Pt       8.42164176       6.48298285      22.29208057        2       0.00000150      -0.07364431      -0.01406550
Pt       0.00000025      -0.00000042      24.59664102        1      -0.00000092       0.00000188      -0.03495619
Pt       2.80263412       0.00774845      24.60512676        1       0.00224560       0.00080010      -0.01533182
Pt       5.61900740       0.00774816      24.60512699        1      -0.00224582       0.00080183      -0.01533319
Pt       1.40802748       2.42327792      24.60512724        1       0.00181382       0.00154571      -0.01533261
Pt       4.21082081       2.43111838      24.59749939        1       0.00000284      -0.00000111      -0.03700292
Pt       7.01361403       2.42327787      24.60512740        1      -0.00181578       0.00154482      -0.01533188
Pt       2.81621440       4.86232907      24.60512718        1      -0.00043011      -0.00234453      -0.01533228
Pt       5.60542753       4.86232907      24.60512716        1       0.00042918      -0.00234591      -0.01533259
Pt       8.42164094       4.86223731      24.66416288        1       0.00000001      -0.00000108      -0.02246627
N        8.42164226       4.86223740      26.72911473        0      -0.00007641      -0.00000791       0.01970565
H        7.58068482       4.37670972      27.05108771        0       0.00087453       0.00050330       0.00138164
H        8.42164220       5.83329069      27.05108792        0       0.00000244      -0.00095901       0.00139709
H        9.26259918       4.37671020      27.05108482        0      -0.00079924       0.00046246       0.00141618
