31
Lattice="8.421641763931781 0.0 0.0 4.2108208819658905 7.293355709136913 0.0 0.0 0.0 44.584161137365626" Properties=species:S:1:pos:R:3:tags:I:1:forces:R:3 energy=-172.76077270507812 free_energy=-172.76077270507812 stress="0.010311977006494999 1.4921650290489197e-05 0.0001385980285704136 1.4921650290489197e-05 0.01045744027942419 -5.7480583564029075e-06 0.0001385980285704136 -5.7480583564029075e-06 0.00011397776688681915" pbc="T T T"
Pt       1.40360696       0.81037286      20.00000000        3       0.00258155       0.00063484       0.00243178
Pt       4.21082088       0.81037286      20.00000000        3      -0.00359369       0.00089464       0.00178942
Pt       7.01803480       0.81037286      20.00000000        3      -0.00101971       0.00300007      -0.00506425
Pt       2.80721392       3.24149143      20.00000000        3      -0.00064189       0.00004658      -0.00557959
Pt       5.61442784       3.24149143      20.00000000        3      -0.00206155       0.00257963       0.01904461
Pt       8.42164176       3.24149143      20.00000000        3       0.00087653       0.00217777       0.01664999
Pt       4.21082088       5.67261000      20.00000000        3       0.00218155      -0.00275853       0.00365803
Pt       7.01803480       5.67261000      20.00000000        3      -0.00170828      -0.00178891       0.03803521
Pt       9.82524872       5.67261000      20.00000000        3      -0.00334042      -0.00202453       0.00241289
Pt      -0.00000000       1.62074571      22.29208057        2      -0.00526710       0.04512529      -0.03811690
Pt       2.80721392       1.62074571      22.29208057        2       0.01448173      -0.06945030      -0.06476584
Pt       5.61442784       1.62074571      22.29208057        2       0.03199742       0.05640944      -0.03371491
Pt       1.40360696       4.05186428      22.29208057        2      -0.12806623       0.06054910       0.02495971
Pt       4.21082088       4.05186428      22.29208057        2       0.18541837       0.07464907       0.05175630
Pt       7.01803480       4.05186428      22.29208057        2      -0.02193291       0.06693341       0.03638102
Pt       2.80721392       6.48298285      22.29208057        2       0.01335987      -0.01757504      -0.05836629
Pt       5.61442784       6.48298285      22.29208057        2       0.06063840      -0.12906340       0.03078929
Pt       8.42164176       6.48298285      22.29208057        2      -0.04336345      -0.09788995      -0.00417645
Pt       0.00964368       0.00108449      24.56933764        1       0.00623101       0.01055680      -0.00238423
Pt       2.83148350      -0.00632425      24.60469650        1       0.00182343      -0.01912402       0.00361905
Pt       5.64025640       0.00438241      24.56952097        1      -0.00097431       0.00780895      -0.00144577
Pt       1.43085832       2.41354092      24.57077920        1       0.00543196      -0.00640630      -0.00211415
Pt       4.21829344       2.41609198      24.57114172        1       0.00143944      -0.00899530      -0.00352459
Pt       7.04191752       2.42616392      24.60377349        1       0.00150046       0.01630496       0.00149985
Pt       2.82041870       4.85514434      24.55989987        1      -0.02789412       0.00337920       0.00330789
Pt       5.58775011       4.85079225      24.62962614        1       0.00404954       0.00177758       0.02443192
Pt       8.46978187       4.85108958      24.62028282        1      -0.01315609      -0.00010126       0.01262249
N        7.03902391       4.86818789      26.89483266        0      -0.02622662       0.00142306      -0.01382497
H        7.40274250       4.04999161      26.35085599        0      -0.00256954      -0.03221938      -0.01686430
H        6.04513633       4.86823748      26.58755653        0      -0.04635905      -0.00020030      -0.00394988
H        7.40273809       5.68662463      26.35178493        0      -0.00383623       0.03334682      -0.01949722
