31
Lattice="8.421641763931781 0.0 0.0 4.2108208819658905 7.293355709136913 0.0 0.0 0.0 44.584161137365626" Properties=species:S:1:pos:R:3:tags:I:1:forces:R:3 energy=-172.76148986816406 free_energy=-172.76148986816406 stress="0.010289767757058144 1.7943688362720422e-05 0.00014317757450044155 1.7943688362720422e-05 0.010455913841724396 2.1081573322589975e-06 0.00014317757450044155 2.1081573322589975e-06 3.0765400879317895e-05" pbc="T T T"
Pt       1.40360696       0.81037286      20.00000000        3       0.00218934       0.00061547       0.00321862
Pt       4.21082088       0.81037286      20.00000000        3      -0.00350652       0.00066717       0.00238013
Pt       7.01803480       0.81037286      20.00000000        3      -0.00084153       0.00283985      -0.00485647
Pt       2.80721392       3.24149143      20.00000000        3      -0.00090151      -0.00002977      -0.00353867
Pt       5.61442784       3.24149143      20.00000000        3      -0.00228735       0.00241029       0.01940951
Pt       8.42164176       3.24149143      20.00000000        3       0.00146570       0.00183468       0.01590380
Pt       4.21082088       5.67261000      20.00000000        3       0.00199737      -0.00220165       0.00399837
Pt       7.01803480       5.67261000      20.00000000        3      -0.00195481      -0.00240315       0.03659734
Pt       9.82524872       5.67261000      20.00000000        3      -0.00348608      -0.00157500       0.00172314
Pt      -0.00000000       1.62074571      22.29208057        2       0.00069800       0.04355025      -0.04282293
Pt       2.80721392       1.62074571      22.29208057        2       0.01690156      -0.06630176      -0.05670119
Pt       5.61442784       1.62074571      22.29208057        2       0.02897219       0.06047686      -0.03392703
Pt       1.40360696       4.05186428      22.29208057        2      -0.11816476       0.05243658       0.01836659
Pt       4.21082088       4.05186428      22.29208057        2       0.18250251       0.07137705       0.06492718
Pt       7.01803480       4.05186428      22.29208057        2      -0.02831163       0.06735718       0.02687100
Pt       2.80721392       6.48298285      22.29208057        2       0.01797959      -0.01325225      -0.05894542
Pt       5.61442784       6.48298285      22.29208057        2       0.05331767      -0.12697704       0.02739248
Pt       8.42164176       6.48298285      22.29208057        2      -0.03652267      -0.09004829      -0.01966896
Pt       0.01051398       0.00627065      24.57091234        1       0.00372897      -0.00178976      -0.01211925
Pt       2.83566341      -0.01586900      24.60179911        1      -0.01504419       0.03898287       0.00962251
Pt       5.64423729       0.00975755      24.57063947        1       0.00259583       0.00682439      -0.00685903
Pt       1.43322649       2.41098364      24.57289324        1       0.02226092      -0.00303304      -0.01404546
Pt       4.21939221       2.41224935      24.57390671        1      -0.00815146       0.01363568      -0.02147634
Pt       7.04676469       2.43565415      24.60072295        1      -0.01824214      -0.01234671       0.01102124
Pt       2.81642215       4.85843534      24.55895363        1       0.00364732      -0.01374410       0.00540484
Pt       5.58278499       4.85352794      24.62803473        1      -0.01854417      -0.01474495      -0.01594552
Pt       8.47441941       4.85389441      24.61622925        1      -0.00414088      -0.01563910       0.00466445
N        7.03210305       4.87508672      26.87165506        0      -0.03195895       0.00022275       0.02697742
H        7.39105859       5.69696719      26.32759792        0      -0.02059548      -0.01513067       0.00020576
H        7.39854903       4.05406576      26.33079381        0      -0.02119623       0.01855221      -0.00592750
H        6.03533947       4.87025162      26.56866814        0      -0.00440666      -0.00256580       0.01814936
