31
Lattice="8.421641763931781 0.0 0.0 4.2108208819658905 7.293355709136913 0.0 0.0 0.0 44.584161137365626" Properties=species:S:1:pos:R:3:tags:I:1:forces:R:3 energy=-173.7161865234375 free_energy=-173.7161865234375 stress="0.01066673919558525 -4.814331155955642e-09 -2.1960369522844303e-08 -4.814331155955642e-09 0.010666700080037117 -5.788352019919785e-10 -2.1960369522844303e-08 -5.788352019919785e-10 -1.7624192878429312e-06" pbc="T T T"
Pt       1.40360696       0.81037286      20.00000000        3       0.00502295       0.00367253      -0.00957391
Pt       4.21082088       0.81037286      20.00000000        3       0.00066955       0.00312312      -0.00628418
Pt       7.01803480       0.81037286      20.00000000        3      -0.00569679       0.00250942      -0.00957432
Pt       2.80721392       3.24149143      20.00000000        3       0.00237329      -0.00214147      -0.00628552
Pt       5.61442784       3.24149143      20.00000000        3      -0.00304215      -0.00098352      -0.00628433
Pt       8.42164176       3.24149143      20.00000000        3       0.00054057       0.00469374       0.01202005
Pt       4.21082088       5.67261000      20.00000000        3       0.00067502      -0.00618570      -0.00957403
Pt       7.01803480       5.67261000      20.00000000        3       0.00379164      -0.00281081       0.01202068
Pt       9.82524872       5.67261000      20.00000000        3      -0.00433473      -0.00187662       0.01202074
Pt      -0.00000000       1.62074571      22.29208057        2       0.00611929       0.06274424       0.02847210
Pt       2.80721392       1.62074571      22.29208057        2      -0.00941554       0.00433056      -0.00397979
Pt       5.61442784       1.62074571      22.29208057        2       0.00095436      -0.01032197      -0.00397963
Pt       1.40360696       4.05186428      22.29208057        2      -0.07003638       0.03508817      -0.02902537
Pt       4.21082088       4.05186428      22.29208057        2       0.00846433       0.00599010      -0.00397771
Pt       7.01803480       4.05186428      22.29208057        2       0.06540052       0.04311229      -0.02902499
Pt       2.80721392       6.48298285      22.29208057        2      -0.05739766      -0.02607602       0.02847161
Pt       5.61442784       6.48298285      22.29208057        2       0.05128133      -0.03667226       0.02847116
Pt       8.42164176       6.48298285      22.29208057        2       0.00463301      -0.07819599      -0.02902686
Pt       0.00000120      -0.00000083      24.58874885        1      -0.00000059       0.00000122      -0.00018674
Pt       2.80256788       0.01090734      24.59462660        1      -0.00539555       0.00066395       0.01184461
Pt       5.61710026       0.00668625      24.60592542        1      -0.00698763      -0.01684050      -0.00246677
Pt       1.40806307       2.42546184      24.60592484        1      -0.01109181       0.01446814      -0.00246699
Pt       4.21082164       2.43111848      24.58900250        1       0.00000219      -0.00000109      -0.00093997
Pt       7.01091323       2.42163970      24.59462706        1       0.00211891      -0.00500291       0.01184617
Pt       2.81898352       4.86080727      24.59462668        1       0.00326981       0.00433984       0.01184411
Pt       5.60730153       4.86120678      24.60592631        1       0.01807349       0.00236928      -0.00247507
Pt       8.42164049       4.86223661      24.65974748        1       0.00000303       0.00000330       0.03703427
N        8.42164015       4.86223799      26.72997103        0      -0.00015253      -0.00000710      -0.04324812
H        8.91084904       5.70301402      27.04813467        0      -0.00219771      -0.00615422       0.00146433
H        8.90516879       4.01818238      27.04813327        0      -0.00422047       0.00500123       0.00146469
H        7.44890113       4.86551831      27.04814079        0       0.00657639       0.00115927       0.00139981
