31
Lattice="8.421641763931781 0.0 0.0 4.2108208819658905 7.293355709136913 0.0 0.0 0.0 44.584161137365626" Properties=species:S:1:pos:R:3:tags:I:1:forces:R:3 energy=-173.71633911132812 free_energy=-173.71633911132812 stress="0.010684308595955372 -1.0526503224639328e-08 -9.794626915082816e-11 -1.0526503224639328e-08 0.010684283450245857 5.835965044553859e-10 -9.794626915082816e-11 5.835965044553859e-10 -3.929789272660855e-06" pbc="T T T"
Pt       1.40360696       0.81037286      20.00000000        3       0.00502914       0.00377207      -0.00913978
Pt       4.21082088       0.81037286      20.00000000        3       0.00069991       0.00299504      -0.00606546
Pt       7.01803480       0.81037286      20.00000000        3      -0.00578601       0.00246481      -0.00914022
Pt       2.80721392       3.24149143      20.00000000        3       0.00224775      -0.00210328      -0.00606725
Pt       5.61442784       3.24149143      20.00000000        3      -0.00294621      -0.00089437      -0.00606680
Pt       8.42164176       3.24149143      20.00000000        3       0.00051989       0.00465120       0.01215065
Pt       4.21082088       5.67261000      20.00000000        3       0.00075712      -0.00624063      -0.00913998
Pt       7.01803480       5.67261000      20.00000000        3       0.00376686      -0.00277273       0.01215118
Pt       9.82524872       5.67261000      20.00000000        3      -0.00428864      -0.00187373       0.01215091
Pt      -0.00000000       1.62074571      22.29208057        2       0.00646007       0.06193595       0.03263836
Pt       2.80721392       1.62074571      22.29208057        2      -0.01087581       0.00429124      -0.00002266
Pt       5.61442784       1.62074571      22.29208057        2       0.00171977      -0.01156438      -0.00002271
Pt       1.40360696       4.05186428      22.29208057        2      -0.06803515       0.03420629      -0.02866425
Pt       4.21082088       4.05186428      22.29208057        2       0.00915749       0.00727364      -0.00002159
Pt       7.01803480       4.05186428      22.29208057        2       0.06363948       0.04181980      -0.02866236
Pt       2.80721392       6.48298285      22.29208057        2      -0.05686644      -0.02537588       0.03263595
Pt       5.61442784       6.48298285      22.29208057        2       0.05040969      -0.03656128       0.03263649
Pt       8.42164176       6.48298285      22.29208057        2       0.00439415      -0.07602243      -0.02866564
Pt       0.00000068      -0.00000036      24.58945466        1      -0.00000217       0.00000263      -0.00312212
Pt       2.80201912       0.01133798      24.59564215        1      -0.00744060       0.00258014       0.00772436
Pt       5.61576069       0.00571535      24.60742545        1      -0.00022528      -0.01155619      -0.00822616
Pt       1.40789006       2.42710738      24.60742784        1      -0.00989893       0.00597846      -0.00823130
Pt       4.21082101       2.43111840      24.58918241        1       0.00000292       0.00000120      -0.00129095
Pt       7.01081464       2.42095297      24.59564232        1       0.00148289      -0.00774216       0.00772390
Pt       2.81962979       4.86106669      24.59564134        1       0.00596379       0.00515693       0.00772420
Pt       5.60881348       4.86053381      24.60742744        1       0.01012613       0.00558356      -0.00823146
Pt       8.42164446       4.86223930      24.65962978        1      -0.00000218       0.00000181       0.00504658
N        8.42164204       4.86223700      26.72622484        0      -0.00008942      -0.00006321      -0.00090384
H        7.44952705       4.86479664      27.04595862        0      -0.00081858       0.00119867      -0.00030574
H        8.90991386       5.70282553      27.04597498        0       0.00150900       0.00021686      -0.00029491
H        8.90547756       4.01908053      27.04596277        0      -0.00061055      -0.00136025      -0.00029732
