31
Lattice="8.421641763931781 0.0 0.0 4.2108208819658905 7.293355709136913 0.0 0.0 0.0 44.584161137365626" Properties=species:S:1:pos:R:3:tags:I:1:forces:R:3 energy=-172.80076599121094 free_energy=-172.80076599121094 stress="0.010380446910858154 -1.642640468091372e-09 1.5759826776928776e-09 -1.642640468091372e-09 0.010380460880696774 1.7902400673008856e-09 1.5759826776928776e-09 1.7902400673008856e-09 0.00013815643615089357" pbc="T T T"
Pt       1.40360696       0.81037286      20.00000000        3       0.00000078      -0.00000262      -0.00917163
Pt       4.21082088       0.81037286      20.00000000        3      -0.00208516       0.00282830       0.00179401
Pt       7.01803480       0.81037286      20.00000000        3       0.00175491       0.00301120       0.00177824
Pt       2.80721392       3.24149143      20.00000000        3       0.00173228      -0.00302910       0.00177729
Pt       5.61442784       3.24149143      20.00000000        3      -0.00000165      -0.00000023       0.03522331
Pt       8.42164176       3.24149143      20.00000000        3      -0.00140616      -0.00322198       0.00179163
Pt       4.21082088       5.67261000      20.00000000        3       0.00349655       0.00039398       0.00179324
Pt       7.01803480       5.67261000      20.00000000        3      -0.00349022       0.00001757       0.00177735
Pt       9.82524872       5.67261000      20.00000000        3      -0.00000146       0.00000271      -0.01458377
Pt      -0.00000000       1.62074571      22.29208057        2      -0.13851236       0.08505411       0.03905298
Pt       2.80721392       1.62074571      22.29208057        2       0.14291951       0.07742751       0.03905396
Pt       5.61442784       1.62074571      22.29208057        2       0.00084245       0.12742448       0.05053338
Pt       1.40360696       4.05186428      22.29208057        2      -0.00004461      -0.03188276      -0.06163672
Pt       4.21082088       4.05186428      22.29208057        2       0.10993264      -0.06444537       0.05053499
Pt       7.01803480       4.05186428      22.29208057        2      -0.11078041      -0.06298054       0.05053519
Pt       2.80721392       6.48298285      22.29208057        2       0.02763479       0.01590267      -0.06163754
Pt       5.61442784       6.48298285      22.29208057        2      -0.00440676      -0.16248429       0.03905191
Pt       8.42164176       6.48298285      22.29208057        2      -0.02758693       0.01598401      -0.06163793
Pt      -0.00139879       0.00421553      24.56545450        1       0.02553279      -0.01180587      -0.00534171
Pt       2.80426211      -0.00331962      24.56545496        1      -0.00254251       0.02801567      -0.00534037
Pt       5.61297494      -0.00628329      24.56941782        1      -0.00361150      -0.02451466      -0.00742845
Pt       1.40795674       2.43022195      24.56545457        1      -0.02298420      -0.01621009      -0.00534061
Pt       4.18802660       2.41476091      24.61813788        1      -0.00371541       0.01514411      -0.00875369
Pt       7.04359773       2.41955645      24.61813829        1      -0.01126107      -0.01078621      -0.00875028
Pt       2.80249848       4.86663671      24.56941845        1      -0.01942402       0.01538214      -0.00742777
Pt       5.61165863       4.89015628      24.61813766        1       0.01497097      -0.00435634      -0.00875550
Pt       8.42780921       4.86412025      24.56941837        1       0.02303648       0.00913281      -0.00742754
N        5.61442853       3.24149255      26.94318654        0      -0.00002218      -0.00001387      -0.00919747
H        4.72431579       2.91136885      26.52135892        0       0.01574805      -0.01921621      -0.01074837
H        5.77358936       4.17741427      26.52135939        0      -0.02450486      -0.00402646      -0.01075811
H        6.34537913       2.63569190      26.52135956        0       0.00877932       0.02325547      -0.01076004
