31
Lattice="8.421641763931781 0.0 0.0 4.2108208819658905 7.293355709136913 0.0 0.0 0.0 44.584161137365626" Properties=species:S:1:pos:R:3:tags:I:1:forces:R:3 energy=-172.8042755126953 free_energy=-172.8042755126953 stress="0.010287963785231113 1.7603121182929726e-09 3.780453727841859e-09 1.7603121182929726e-09 0.010287963785231113 6.921536233051029e-09 3.780453727841859e-09 6.921536233051029e-09 2.5797757189138792e-05" pbc="T T T"
Pt       1.40360696       0.81037286      20.00000000        3       0.00000095      -0.00000224      -0.01218972
Pt       4.21082088       0.81037286      20.00000000        3      -0.00197896       0.00239088       0.00095433
Pt       7.01803480       0.81037286      20.00000000        3       0.00218437       0.00302524       0.00097603
Pt       2.80721392       3.24149143      20.00000000        3       0.00152947      -0.00340779       0.00097507
Pt       5.61442784       3.24149143      20.00000000        3      -0.00000164      -0.00000033       0.03240645
Pt       8.42164176       3.24149143      20.00000000        3      -0.00107990      -0.00291152       0.00095189
Pt       4.21082088       5.67261000      20.00000000        3       0.00306486       0.00052054       0.00095382
Pt       7.01803480       5.67261000      20.00000000        3      -0.00371738       0.00038292       0.00097540
Pt       9.82524872       5.67261000      20.00000000        3      -0.00000108       0.00000251      -0.01432964
Pt      -0.00000000       1.62074571      22.29208057        2      -0.14872952       0.08593285       0.01205891
Pt       2.80721392       1.62074571      22.29208057        2       0.14878787       0.08583411       0.01205740
Pt       5.61442784       1.62074571      22.29208057        2       0.00260937       0.12159188       0.04921967
Pt       1.40360696       4.05186428      22.29208057        2      -0.00523607      -0.02982018      -0.07348243
Pt       4.21082088       4.05186428      22.29208057        2       0.10399977      -0.06305742       0.04922135
Pt       7.01803480       4.05186428      22.29208057        2      -0.10661298      -0.05853364       0.04922407
Pt       2.80721392       6.48298285      22.29208057        2       0.02844413       0.01037703      -0.07348242
Pt       5.61442784       6.48298285      22.29208057        2      -0.00005872      -0.17177281       0.01205961
Pt       8.42164176       6.48298285      22.29208057        2      -0.02320572       0.01944802      -0.07348232
Pt       0.00528278       0.00130272      24.56071379        1      -0.02639719      -0.00283951       0.02082987
Pt       2.80344369       0.00392336      24.56071440        1       0.01565746      -0.02144204       0.02083057
Pt       5.62303540      -0.01200350      24.56953780        1      -0.02005362       0.02605941      -0.00907177
Pt       1.40209390       2.42589142      24.56071542        1       0.01073987       0.02427988       0.02083035
Pt       4.18914526       2.41046104      24.61256659        1       0.01475941       0.02396649       0.01038561
Pt       7.04676222       2.42267574      24.61256542        1      -0.02813304       0.00079772       0.01038017
Pt       2.79251444       4.86078386      24.56953803        1       0.03259821       0.00433691      -0.00906989
Pt       5.60737515       4.89133747      24.61256762        1       0.01337785      -0.02476449       0.01037520
Pt       8.42773310       4.87569313      24.56953772        1      -0.01254700      -0.03039556      -0.00907049
N        5.61442897       3.24149134      26.94051113        0      -0.00003106      -0.00004449      -0.04888591
H        5.52667184       4.18769660      26.52021900        0       0.01307037      -0.02009159       0.00245399
H        6.47774370       2.84438684      26.52021634        0      -0.02394952      -0.00125010       0.00246692
H        4.83886770       2.69239012      26.52021842        0       0.01090954       0.02138719       0.00247846
