31
Lattice="8.421641763931781 0.0 0.0 4.2108208819658905 7.293355709136913 0.0 0.0 0.0 44.584161137365626" Properties=species:S:1:pos:R:3:tags:I:1:forces:R:3 energy=-173.71035766601562 free_energy=-173.71035766601562 stress="0.010695308446884155 -4.1706154974008314e-08 2.0724000293625977e-08 -4.1706154974008314e-08 0.010695274919271469 -1.681546990539573e-08 2.0724000293625977e-08 -1.681546990539573e-08 3.063437588934903e-06" pbc="T T T"
Pt       1.40360696       0.81037286      20.00000000        3       0.00519125       0.00299380      -0.00957793
Pt       4.21082088       0.81037286      20.00000000        3       0.00000164       0.00324905      -0.00614363
Pt       7.01803480       0.81037286      20.00000000        3      -0.00519272       0.00299433      -0.00957900
Pt       2.80721392       3.24149143      20.00000000        3       0.00281596      -0.00162548      -0.00614634
Pt       5.61442784       3.24149143      20.00000000        3      -0.00281669      -0.00162544      -0.00614440
Pt       8.42164176       3.24149143      20.00000000        3       0.00000110       0.00468086       0.01237124
Pt       4.21082088       5.67261000      20.00000000        3       0.00000291      -0.00599195      -0.00957826
Pt       7.01803480       5.67261000      20.00000000        3       0.00405077      -0.00233767       0.01237321
Pt       9.82524872       5.67261000      20.00000000        3      -0.00405455      -0.00233747       0.01237211
Pt      -0.00000000       1.62074571      22.29208057        2       0.00000173       0.06262188       0.02822065
Pt       2.80721392       1.62074571      22.29208057        2      -0.00442103      -0.00255848      -0.00151779
Pt       5.61442784       1.62074571      22.29208057        2       0.00442226      -0.00255382      -0.00151920
Pt       1.40360696       4.05186428      22.29208057        2      -0.06926414       0.03999078      -0.02597989
Pt       4.21082088       4.05186428      22.29208057        2       0.00000470       0.00510911      -0.00151982
Pt       7.01803480       4.05186428      22.29208057        2       0.06925892       0.03998912      -0.02597818
Pt       2.80721392       6.48298285      22.29208057        2      -0.05423249      -0.03131044       0.02821745
Pt       5.61442784       6.48298285      22.29208057        2       0.05423494      -0.03131080       0.02822188
Pt       8.42164176       6.48298285      22.29208057        2      -0.00000020      -0.07997525      -0.02597891
Pt       0.00000110      -0.00000004      24.58918443        1       0.00000532       0.00000043      -0.00196603
Pt       2.80293123       0.00806928      24.60058694        1       0.00136669      -0.00474107       0.00235550
Pt       5.61871365       0.00806854      24.60058661        1      -0.00137675      -0.00474275       0.00236569
Pt       1.40845433       2.42337454      24.60058650        1      -0.00342264       0.00355074       0.00236604
Pt       4.21082248       2.43111959      24.59012745        1      -0.00000243      -0.00000489      -0.00374728
Pt       7.01319008       2.42337306      24.60058741        1       0.00341945       0.00355906       0.00235793
Pt       2.81634457       4.86191382      24.60058679        1      -0.00479234       0.00118378       0.00236541
Pt       5.60529801       4.86191351      24.60058722        1       0.00479047       0.00118532       0.00235672
Pt       8.42164017       4.86223607      24.66290832        1      -0.00000633       0.00000549       0.02310312
N        8.42163501       4.86223735      26.73258966        0       0.00026438      -0.00015306      -0.02155530
H        9.26313748       4.37639712      27.05342274        0      -0.00967330       0.00558805      -0.00075625
H        7.58014315       4.37639844      27.05343339        0       0.00943013       0.00545526      -0.00069128
H        8.42163921       5.83391268      27.05342319        0      -0.00000685      -0.01088867      -0.00066730
