31
Lattice="8.421641763931781 0.0 0.0 4.2108208819658905 7.293355709136913 0.0 0.0 0.0 44.584161137365626" Properties=species:S:1:pos:R:3:tags:I:1:forces:R:3 energy=-173.71286010742188 free_energy=-173.71286010742188 stress="0.010689308866858482 1.1787973264176799e-08 2.169627366654936e-09 1.1787973264176799e-08 0.010689313523471355 1.5494555638539964e-09 2.169627366654936e-09 1.5494555638539964e-09 -8.534929065717733e-07" pbc="T T T"
Pt       1.40360696       0.81037286      20.00000000        3       0.00540922       0.00311960      -0.00960821
Pt       4.21082088       0.81037286      20.00000000        3       0.00000167       0.00326181      -0.00671214
Pt       7.01803480       0.81037286      20.00000000        3      -0.00541043       0.00311978      -0.00960889
Pt       2.80721392       3.24149143      20.00000000        3       0.00282685      -0.00163177      -0.00671324
Pt       5.61442784       3.24149143      20.00000000        3      -0.00282794      -0.00163175      -0.00671366
Pt       8.42164176       3.24149143      20.00000000        3       0.00000110       0.00504161       0.01241750
Pt       4.21082088       5.67261000      20.00000000        3       0.00000219      -0.00624336      -0.00960916
Pt       7.01803480       5.67261000      20.00000000        3       0.00436384      -0.00251812       0.01241919
Pt       9.82524872       5.67261000      20.00000000        3      -0.00436667      -0.00251779       0.01241896
Pt      -0.00000000       1.62074571      22.29208057        2       0.00000268       0.06238623       0.03127839
Pt       2.80721392       1.62074571      22.29208057        2      -0.00560572      -0.00323935      -0.00203045
Pt       5.61442784       1.62074571      22.29208057        2       0.00560563      -0.00323862      -0.00203068
Pt       1.40360696       4.05186428      22.29208057        2      -0.07025636       0.04056344      -0.02788038
Pt       4.21082088       4.05186428      22.29208057        2       0.00000212       0.00647401      -0.00202975
Pt       7.01803480       4.05186428      22.29208057        2       0.07025459       0.04056288      -0.02787988
Pt       2.80721392       6.48298285      22.29208057        2      -0.05402826      -0.03119342       0.03127684
Pt       5.61442784       6.48298285      22.29208057        2       0.05402935      -0.03119313       0.03127837
Pt       8.42164176       6.48298285      22.29208057        2       0.00000124      -0.08112352      -0.02788291
Pt       0.00000130      -0.00000071      24.58984427        1       0.00000292      -0.00000055      -0.00325757
Pt       2.80433272       0.00911883      24.60032639        1      -0.00181565      -0.00595408       0.00255786
Pt       5.61731209       0.00911780      24.60032685        1       0.00180721      -0.00594828       0.00255868
Pt       1.41006403       2.42406288      24.60032677        1      -0.00605997       0.00140465       0.00255843
Pt       4.21082226       2.43111785      24.58937886        1      -0.00000103       0.00000302      -0.00328207
Pt       7.01158058       2.42406173      24.60032722        1       0.00605650       0.00141243       0.00255911
Pt       2.81655260       4.86017400      24.60032706        1      -0.00424613       0.00454144       0.00255795
Pt       5.60508990       4.86017390      24.60032666        1       0.00425178       0.00454496       0.00255777
Pt       8.42164205       4.86223736      24.66258219        1      -0.00001212      -0.00000017       0.01703426
N        8.42163657       4.86223851      26.73159949        0       0.00005989       0.00000492      -0.00472808
H        7.58003383       5.34813842      27.05269803        0       0.01581644      -0.00912999      -0.00450710
H        9.26324330       5.34813890      27.05269116        0      -0.01586609      -0.00915980      -0.00450175
H        8.42163807       3.89043672      27.05269235        0       0.00000101       0.01828286      -0.00449736
