31
Lattice="8.421641763931781 0.0 0.0 4.2108208819658905 7.293355709136913 0.0 0.0 0.0 44.584161137365626" Properties=species:S:1:pos:R:3:tags:I:1:forces:R:3 energy=-172.8036651611328 free_energy=-172.8036651611328 stress="0.010319443419575691 4.0724760369537094e-11 4.929962216237982e-09 4.0724760369537094e-11 0.010218461975455284 7.03775804140605e-05 4.929962216237982e-09 7.03775804140605e-05 -1.0961689440591726e-05" pbc="T T T"
Pt       1.40360696       0.81037286      20.00000000        3       0.00222245       0.00139335      -0.00127196
Pt       4.21082088       0.81037286      20.00000000        3      -0.00221940       0.00139407      -0.00127098
Pt       7.01803480       0.81037286      20.00000000        3      -0.00000274      -0.00074079      -0.01569125
Pt       2.80721392       3.24149143      20.00000000        3       0.00000073      -0.00096624      -0.00621146
Pt       5.61442784       3.24149143      20.00000000        3      -0.00289072       0.00222465       0.00617591
Pt       8.42164176       3.24149143      20.00000000        3       0.00289043       0.00222458       0.00617421
Pt       4.21082088       5.67261000      20.00000000        3       0.00240633      -0.00366192       0.00331193
Pt       7.01803480       5.67261000      20.00000000        3      -0.00000190      -0.00306929       0.03510556
Pt       9.82524872       5.67261000      20.00000000        3      -0.00240541      -0.00366061       0.00331110
Pt      -0.00000000       1.62074571      22.29208057        2       0.03447894       0.04056434      -0.08589899
Pt       2.80721392       1.62074571      22.29208057        2      -0.00000031      -0.08158801      -0.03735847
Pt       5.61442784       1.62074571      22.29208057        2      -0.03447793       0.04056285      -0.08589810
Pt       1.40360696       4.05186428      22.29208057        2      -0.15671685       0.10425552       0.05839458
Pt       4.21082088       4.05186428      22.29208057        2       0.15672208       0.10425833       0.05839620
Pt       7.01803480       4.05186428      22.29208057        2      -0.00000496       0.13903421       0.04897820
Pt       2.80721392       6.48298285      22.29208057        2      -0.00000029      -0.02630039      -0.07216056
Pt       5.61442784       6.48298285      22.29208057        2       0.07579105      -0.09864816       0.03033243
Pt       8.42164176       6.48298285      22.29208057        2      -0.07579052      -0.09864341       0.03033313
Pt      -0.00304504       0.02275518      24.56862723        1      -0.00133900      -0.04929420       0.00072818
Pt       2.80721419       0.03046999      24.59719180        1      -0.00000108       0.00795698       0.01626081
Pt       5.61747325       0.02275520      24.56862835        1       0.00134071      -0.04929064       0.00071707
Pt       1.41147448       2.44079589      24.56839103        1       0.01230870       0.00011216      -0.01238662
Pt       4.20295377       2.44079607      24.56839019        1      -0.01230674       0.00011385      -0.01237673
Pt       7.01803470       2.42387072      24.56439219        1      -0.00000254       0.01124720       0.01069672
Pt       2.80721356       4.88438448      24.56182861        1       0.00000583      -0.04882517       0.00093441
Pt       5.58386001       4.85962979      24.62284189        1       0.01313243      -0.01176326      -0.00584196
Pt       8.45221036       4.85962946      24.62284000        1      -0.01314185      -0.01176265      -0.00582493
N        7.01803580       5.33335660      26.90725901        0      -0.00002789      -0.00688020      -0.04221874
H        6.19869476       4.80788116      26.53904927        0       0.02424496       0.03296823       0.01655610
H        7.01803499       6.22020485      26.35830910        0       0.00001010      -0.02618279       0.04146932
H        7.83737676       4.80788104      26.53905037        0      -0.02422480       0.03296718       0.01653443
