31
Lattice="8.421641763931781 0.0 0.0 4.2108208819658905 7.293355709136913 0.0 0.0 0.0 44.584161137365626" Properties=species:S:1:pos:R:3:tags:I:1:forces:R:3 energy=-172.80630493164062 free_energy=-172.80630493164062 stress="0.010269255377352238 2.1820649731552066e-09 1.5045634738086733e-09 2.1820649731552066e-09 0.010269271209836006 -3.721958075075804e-09 1.5045634738086733e-09 -3.721958075075804e-09 9.032942216435913e-06" pbc="T T T"
Pt       1.40360696       0.81037286      20.00000000        3       0.00000091      -0.00000278      -0.00880995
Pt       4.21082088       0.81037286      20.00000000        3      -0.00214157       0.00264092       0.00079563
Pt       7.01803480       0.81037286      20.00000000        3       0.00214078       0.00263968       0.00079489
Pt       2.80721392       3.24149143      20.00000000        3       0.00121814      -0.00317739       0.00079450
Pt       5.61442784       3.24149143      20.00000000        3      -0.00000190      -0.00000027       0.03264385
Pt       8.42164176       3.24149143      20.00000000        3      -0.00121546      -0.00317661       0.00079319
Pt       4.21082088       5.67261000      20.00000000        3       0.00336250       0.00053640       0.00079507
Pt       7.01803480       5.67261000      20.00000000        3      -0.00336197       0.00053751       0.00079414
Pt       9.82524872       5.67261000      20.00000000        3      -0.00000137       0.00000244      -0.01720381
Pt      -0.00000000       1.62074571      22.29208057        2      -0.13941270       0.08048835       0.02965532
Pt       2.80721392       1.62074571      22.29208057        2       0.13941468       0.08048964       0.02965357
Pt       5.61442784       1.62074571      22.29208057        2      -0.00000195       0.12738957       0.04132060
Pt       1.40360696       4.05186428      22.29208057        2       0.00000113      -0.04157465      -0.08074163
Pt       4.21082088       4.05186428      22.29208057        2       0.11032616      -0.06369591       0.04132066
Pt       7.01803480       4.05186428      22.29208057        2      -0.11032760      -0.06369600       0.04132209
Pt       2.80721392       6.48298285      22.29208057        2       0.03600484       0.02078849      -0.08074318
Pt       5.61442784       6.48298285      22.29208057        2      -0.00000188      -0.16098014       0.02965385
Pt       8.42164176       6.48298285      22.29208057        2      -0.03600276       0.02079022      -0.08074519
Pt       0.00154704       0.00089271      24.56436895        1       0.00933401       0.00539038      -0.00226474
Pt       2.80566753       0.00089276      24.56436903        1      -0.00933607       0.00538833      -0.00226316
Pt       5.61442738      -0.01019378      24.56513564        1       0.00000158       0.01072023       0.01351447
Pt       1.40360721       2.42933235      24.56436947        1      -0.00000285      -0.01077613      -0.00226313
Pt       4.18729661       2.41753672      24.61312585        1       0.00276759       0.00159614      -0.00095215
Pt       7.04155882       2.41753682      24.61312632        1      -0.00276376       0.00159555      -0.00095257
Pt       2.79838628       4.86733404      24.56513575        1       0.00928077      -0.00535949       0.01351491
Pt       5.61442741       4.88940044      24.61312613        1       0.00000111      -0.00319126      -0.00095407
Pt       8.43046958       4.86733382      24.56513548        1      -0.00928225      -0.00536261       0.01351567
N        5.61442816       3.24149146      26.94056620        0      -0.00000998       0.00002604      -0.03257453
H        5.61442781       4.18850051      26.51488777        0       0.00000013       0.02999340       0.00653801
H        6.43456128       2.76798707      26.51488817        0       0.02600160      -0.01501287       0.00652183
H        4.79429430       2.76798699      26.51488782        0      -0.02599187      -0.01500732       0.00652618
