31
Lattice="8.421641763931781 0.0 0.0 4.2108208819658905 7.293355709136913 0.0 0.0 0.0 44.584161137365626" Properties=species:S:1:pos:R:3:tags:I:1:forces:R:3 energy=-172.8042755126953 free_energy=-172.8042755126953 stress="0.010287940502166748 1.0229943558925925e-09 -1.782077957424022e-10 1.0229943558925925e-09 0.010287958197295666 5.094566435381864e-10 -1.782077957424022e-10 5.094566435381864e-10 2.576591396064032e-05" pbc="T T T"
Pt       1.40360696       0.81037286      20.00000000        3       0.00000119      -0.00000197      -0.01219070
Pt       4.21082088       0.81037286      20.00000000        3      -0.00197887       0.00239132       0.00095528
Pt       7.01803480       0.81037286      20.00000000        3       0.00218380       0.00302525       0.00097623
Pt       2.80721392       3.24149143      20.00000000        3       0.00152966      -0.00340824       0.00097531
Pt       5.61442784       3.24149143      20.00000000        3      -0.00000198      -0.00000015       0.03240737
Pt       8.42164176       3.24149143      20.00000000        3      -0.00108021      -0.00291134       0.00095275
Pt       4.21082088       5.67261000      20.00000000        3       0.00306494       0.00052083       0.00095308
Pt       7.01803480       5.67261000      20.00000000        3      -0.00371711       0.00038273       0.00097430
Pt       9.82524872       5.67261000      20.00000000        3      -0.00000157       0.00000312      -0.01433021
Pt      -0.00000000       1.62074571      22.29208057        2      -0.14873049       0.08593466       0.01205931
Pt       2.80721392       1.62074571      22.29208057        2       0.14879169       0.08583774       0.01205993
Pt       5.61442784       1.62074571      22.29208057        2       0.00260722       0.12159161       0.04922243
Pt       1.40360696       4.05186428      22.29208057        2      -0.00523723      -0.02982587      -0.07349248
Pt       4.21082088       4.05186428      22.29208057        2       0.10400286      -0.06306456       0.04921810
Pt       7.01803480       4.05186428      22.29208057        2      -0.10661393      -0.05853737       0.04921804
Pt       2.80721392       6.48298285      22.29208057        2       0.02844056       0.01038171      -0.07348941
Pt       5.61442784       6.48298285      22.29208057        2      -0.00005898      -0.17177176       0.01205596
Pt       8.42164176       6.48298285      22.29208057        2      -0.02320352       0.01945171      -0.07349061
Pt       0.00528139       0.00130174      24.56071302        1      -0.02638500      -0.00283242       0.02083902
Pt       2.80344552       0.00392307      24.56071253        1       0.01564341      -0.02143445       0.02083997
Pt       5.62303430      -0.01200471      24.56953928        1      -0.02004783       0.02607103      -0.00908113
Pt       1.40209359       2.42589179      24.56071469        1       0.01074076       0.02426990       0.02082866
Pt       4.18914536       2.41046132      24.61256798        1       0.01475010       0.02396381       0.01036628
Pt       7.04676112       2.42267652      24.61256674        1      -0.02812614       0.00078730       0.01037658
Pt       2.79251414       4.86078426      24.56953379        1       0.03260564       0.00433309      -0.00904986
Pt       5.60737647       4.89133755      24.61256530        1       0.01337289      -0.02475708       0.01037611
Pt       8.42773433       4.87569336      24.56953578        1      -0.01255197      -0.03040105      -0.00905968
N        5.61442795       3.24149141      26.94050699        0      -0.00000840       0.00000946      -0.04888692
H        4.83885504       2.69240507      26.52021607        0       0.01091364       0.02139142       0.00247434
H        5.52669289       4.18770026      26.52021630        0       0.01305778      -0.02014938       0.00247282
H        6.47773667       2.84436888      26.52021576        0      -0.02396294      -0.00125130       0.00246895
