31
Lattice="8.421641763931781 0.0 0.0 4.2108208819658905 7.293355709136913 0.0 0.0 0.0 44.584161137365626" Properties=species:S:1:pos:R:3:tags:I:1:forces:R:3 energy=-172.65139770507812 free_energy=-172.65139770507812 stress="0.01035960204899311 -6.424211856925766e-11 1.1022013302053324e-09 -6.424211856925766e-11 0.010359610430896282 7.073897023701647e-10 1.1022013302053324e-09 7.073897023701647e-10 -4.0887614886742085e-05" pbc="T T T"
Pt       1.40360696       0.81037286      20.00000000        3       0.00000108      -0.00000272      -0.00685412
Pt       4.21082088       0.81037286      20.00000000        3      -0.00128946       0.00270253       0.00972760
Pt       7.01803480       0.81037286      20.00000000        3       0.00128875       0.00270167       0.00972530
Pt       2.80721392       3.24149143      20.00000000        3       0.00169781      -0.00247080       0.00972524
Pt       5.61442784       3.24149143      20.00000000        3      -0.00000197      -0.00000022       0.04421818
Pt       8.42164176       3.24149143      20.00000000        3      -0.00169496      -0.00246969       0.00972521
Pt       4.21082088       5.67261000      20.00000000        3       0.00298999      -0.00023243       0.00972611
Pt       7.01803480       5.67261000      20.00000000        3      -0.00298967      -0.00023109       0.00972563
Pt       9.82524872       5.67261000      20.00000000        3      -0.00000142       0.00000255      -0.00171119
Pt      -0.00000000       1.62074571      22.29208057        2      -0.12749876       0.07361323      -0.01448294
Pt       2.80721392       1.62074571      22.29208057        2       0.12750243       0.07361148      -0.01448130
Pt       5.61442784       1.62074571      22.29208057        2      -0.00000331       0.08691704      -0.02148276
Pt       1.40360696       4.05186428      22.29208057        2      -0.00000084      -0.00806045      -0.05043445
Pt       4.21082088       4.05186428      22.29208057        2       0.07527415      -0.04345981      -0.02148123
Pt       7.01803480       4.05186428      22.29208057        2      -0.07527410      -0.04345715      -0.02147968
Pt       2.80721392       6.48298285      22.29208057        2       0.00697990       0.00402998      -0.05043995
Pt       5.61442784       6.48298285      22.29208057        2       0.00000106      -0.14722593      -0.01448406
Pt       8.42164176       6.48298285      22.29208057        2      -0.00698028       0.00403114      -0.05043647
Pt       0.00346125       0.00199788      24.56004393        1      -0.00292234      -0.00168802       0.02772065
Pt       2.80375304       0.00199808      24.56004440        1       0.00292300      -0.00168851       0.02771126
Pt       5.61442781      -0.00376763      24.58110136        1      -0.00000143       0.00321374      -0.00503267
Pt       1.40360712       2.42712206      24.56004447        1       0.00000124       0.00337644       0.02771197
Pt       4.18473762       2.41605911      24.61787440        1       0.01591821       0.00919187       0.04069592
Pt       7.04411823       2.41605900      24.61787434        1      -0.01592164       0.00919117       0.04069784
Pt       2.80395117       4.86412089      24.58110141        1       0.00278335      -0.00160884      -0.00503166
Pt       5.61442772       4.89235552      24.61787424        1       0.00000037      -0.01838124       0.04069601
Pt       8.42490415       4.86412079      24.58110175        1      -0.00278210      -0.00160677      -0.00503790
N        5.61442796       3.24149167      26.85605629        0      -0.00000682      -0.00000420      -0.01853245
H        4.81944002       3.70047794      26.34043644        0      -0.01131085       0.00653156      -0.00213307
H        6.40941573       3.70047804      26.34043689        0       0.01131780       0.00653456      -0.00213772
H        5.61442782       2.32351855      26.34043690        0       0.00000086      -0.01306126      -0.00213340
