31
Lattice="8.421641763931781 0.0 0.0 4.2108208819658905 7.293355709136913 0.0 0.0 0.0 44.584161137365626" Properties=species:S:1:pos:R:3:tags:I:1:forces:R:3 energy=-172.575439453125 free_energy=-172.575439453125 stress="0.010469985194504261 -9.894817765143671e-08 1.2794340364052914e-05 -9.894817765143671e-08 0.010570465587079525 -1.0408239177195355e-06 1.2794340364052914e-05 -1.0408239177195355e-06 -0.00012012980005238205" pbc="T T T"
Pt       1.40360696       0.81037286      20.00000000        3       0.00093804       0.00073800      -0.00392574
Pt       4.21082088       0.81037286      20.00000000        3      -0.00098532       0.00061816      -0.00410825
Pt       7.01803480       0.81037286      20.00000000        3       0.00001872       0.00035861      -0.00613013
Pt       2.80721392       3.24149143      20.00000000        3      -0.00002553      -0.00077828      -0.00524265
Pt       5.61442784       3.24149143      20.00000000        3      -0.00041775       0.00095421       0.00243473
Pt       8.42164176       3.24149143      20.00000000        3       0.00052918       0.00021953       0.00005743
Pt       4.21082088       5.67261000      20.00000000        3       0.00087328      -0.00086026      -0.00139093
Pt       7.01803480       5.67261000      20.00000000        3      -0.00055738      -0.00071380       0.00689542
Pt       9.82524872       5.67261000      20.00000000        3      -0.00040678      -0.00049014      -0.00393957
Pt      -0.00000000       1.62074571      22.29208057        2      -0.00206457       0.01968139      -0.02391511
Pt       2.80721392       1.62074571      22.29208057        2      -0.00002226      -0.01154316      -0.04594947
Pt       5.61442784       1.62074571      22.29208057        2       0.00319312       0.02480894      -0.02192647
Pt       1.40360696       4.05186428      22.29208057        2      -0.03941897       0.01503033      -0.00910738
Pt       4.21082088       4.05186428      22.29208057        2       0.05324041       0.02312255       0.00318457
Pt       7.01803480       4.05186428      22.29208057        2      -0.01415981       0.03304874       0.04391364
Pt       2.80721392       6.48298285      22.29208057        2       0.00405552      -0.01220030      -0.02985627
Pt       5.61442784       6.48298285      22.29208057        2       0.01937501      -0.05234615       0.02674933
Pt       8.42164176       6.48298285      22.29208057        2      -0.02242531      -0.03906950       0.01556725
Pt      -0.00404642       0.00368551      24.57862958        1       0.01120249      -0.00318178      -0.00653726
Pt       2.80796422       0.00922674      24.58337326        1       0.00087319      -0.03398832       0.00005081
Pt       5.61923954       0.00379651      24.57851466        1      -0.00677359      -0.00103018      -0.00741008
Pt       1.40871905       2.42715742      24.57873339        1      -0.00641861       0.00014916      -0.00410146
Pt       4.20644017       2.42732744      24.57886100        1       0.00970425       0.00266853      -0.00327381
Pt       7.01865204       2.42255860      24.58331980        1       0.00138440       0.03314847      -0.00194582
Pt       2.80655307       4.86219314      24.57622516        1       0.00035188      -0.00012424      -0.00779402
Pt       5.59913430       4.86173736      24.59781696        1       0.01189983       0.00036911       0.02197173
Pt       8.43607358       4.86180194      24.58785918        1      -0.01518485      -0.00016175       0.00252847
N        7.01759944       4.86233552      27.58833498        0      -0.02071685       0.00037885      -0.00558409
H        7.49031381       5.68364390      27.20167781        0      -0.00392415      -0.02278718       0.03817487
H        7.49050879       4.04099088      27.20180059        0      -0.00346218       0.02413061       0.03898738
H        6.07227700       4.86226149      27.19136913        0       0.01932466      -0.00014995      -0.00837725
