31
Lattice="8.421641763931781 0.0 0.0 4.2108208819658905 7.293355709136913 0.0 0.0 0.0 44.584161137365626" Properties=species:S:1:pos:R:3:tags:I:1:forces:R:3 energy=-173.70559692382812 free_energy=-173.70559692382812 stress="0.010608743876218796 2.6164701921516098e-05 0.00015826584422029555 2.6164701921516098e-05 0.010677258484065533 3.053939144592732e-05 0.00015826584422029555 3.053939144592732e-05 7.4348822636238765e-06" pbc="T T T"
Pt       1.40360696       0.81037286      20.00000000        3       0.00052527       0.00230451      -0.00503999
Pt       4.21082088       0.81037286      20.00000000        3      -0.00811405       0.00232328      -0.00741440
Pt       7.01803480       0.81037286      20.00000000        3       0.00364758       0.00377203      -0.00840357
Pt       2.80721392       3.24149143      20.00000000        3      -0.00397222      -0.00245368      -0.01003742
Pt       5.61442784       3.24149143      20.00000000        3      -0.00200464       0.00464792       0.01678082
Pt       8.42164176       3.24149143      20.00000000        3       0.00186200      -0.00249879      -0.00649899
Pt       4.21082088       5.67261000      20.00000000        3       0.00384001      -0.00332572       0.01112640
Pt       7.01803480       5.67261000      20.00000000        3      -0.00589784      -0.00200977       0.01740158
Pt       9.82524872       5.67261000      20.00000000        3      -0.00158332      -0.00626543      -0.01465037
Pt      -0.00000000       1.62074571      22.29208057        2      -0.00427389       0.00747701       0.00701845
Pt       2.80721392       1.62074571      22.29208057        2       0.02905017      -0.02407717      -0.00001818
Pt       5.61442784       1.62074571      22.29208057        2       0.02237957       0.08056610       0.02959384
Pt       1.40360696       4.05186428      22.29208057        2       0.01355212       0.00094746      -0.03046097
Pt       4.21082088       4.05186428      22.29208057        2       0.12351508       0.05303209       0.00237000
Pt       7.01803480       4.05186428      22.29208057        2      -0.05026221       0.02884988      -0.04328107
Pt       2.80721392       6.48298285      22.29208057        2       0.07989643      -0.01344715       0.02076874
Pt       5.61442784       6.48298285      22.29208057        2       0.01934968      -0.07860976      -0.02163661
Pt       8.42164176       6.48298285      22.29208057        2      -0.05759438      -0.01428121       0.01112485
Pt       0.02208575       0.01935790      24.59876351        1      -0.02413181      -0.01004298      -0.00530517
Pt       2.83808805       0.00660248      24.60989011        1      -0.01776337       0.00964753       0.00455512
Pt       5.64251152       0.01094412      24.58380348        1      -0.00047580       0.00194903       0.02117380
Pt       1.43382141       2.43488394      24.58400042        1      -0.02420225      -0.01282587       0.02077162
Pt       4.23008950       2.42878261      24.59971709        1      -0.00702627       0.00281497      -0.01168112
Pt       7.04796976       2.44118279      24.61081672        1      -0.00789121      -0.00040173      -0.00061265
Pt       2.82826228       4.86693456      24.59294294        1       0.00716385       0.01129672       0.02488415
Pt       5.63879023       4.87357253      24.67152589        1      -0.02553365      -0.01971913       0.01258504
Pt       8.47443400       4.86959709      24.59086327        1      -0.02731539      -0.01622560       0.00568511
N        5.97619229       4.88162128      26.71948626        0      -0.02427800      -0.00721094       0.00425315
H        5.08055739       4.90444907      27.21356965        0       0.00077501       0.00568615      -0.04213724
H        6.53837506       5.70829503      26.94159853        0      -0.01124759       0.03335361       0.00007534
H        6.49844110       4.03250727      26.95293121        0      -0.00198886      -0.03527343      -0.00299062
