31
Lattice="8.421641763931781 0.0 0.0 4.2108208819658905 7.293355709136913 0.0 0.0 0.0 44.584161137365626" Properties=species:S:1:pos:R:3:tags:I:1:forces:R:3 energy=-172.80630493164062 free_energy=-172.80630493164062 stress="0.01026923581957817 4.204398162954703e-09 2.3398274984209877e-10 4.204398162954703e-09 0.010269244201481342 2.7588198392436425e-09 2.3398274984209877e-10 2.7588198392436425e-09 9.010806024889462e-06" pbc="T T T"
Pt       1.40360696       0.81037286      20.00000000        3       0.00000112      -0.00000267      -0.00880948
Pt       4.21082088       0.81037286      20.00000000        3      -0.00214159       0.00264096       0.00079602
Pt       7.01803480       0.81037286      20.00000000        3       0.00214046       0.00264031       0.00079459
Pt       2.80721392       3.24149143      20.00000000        3       0.00121814      -0.00317796       0.00079447
Pt       5.61442784       3.24149143      20.00000000        3      -0.00000188      -0.00000004       0.03264409
Pt       8.42164176       3.24149143      20.00000000        3      -0.00121552      -0.00317662       0.00079370
Pt       4.21082088       5.67261000      20.00000000        3       0.00336280       0.00053630       0.00079456
Pt       7.01803480       5.67261000      20.00000000        3      -0.00336221       0.00053742       0.00079396
Pt       9.82524872       5.67261000      20.00000000        3      -0.00000132       0.00000284      -0.01720321
Pt      -0.00000000       1.62074571      22.29208057        2      -0.13941018       0.08048946       0.02965029
Pt       2.80721392       1.62074571      22.29208057        2       0.13941304       0.08048804       0.02965100
Pt       5.61442784       1.62074571      22.29208057        2      -0.00000293       0.12738718       0.04131423
Pt       1.40360696       4.05186428      22.29208057        2       0.00000123      -0.04157405      -0.08074299
Pt       4.21082088       4.05186428      22.29208057        2       0.11032271      -0.06369525       0.04131523
Pt       7.01803480       4.05186428      22.29208057        2      -0.11032435      -0.06369407       0.04131544
Pt       2.80721392       6.48298285      22.29208057        2       0.03600288       0.02078702      -0.08074683
Pt       5.61442784       6.48298285      22.29208057        2       0.00000046      -0.16097778       0.02964773
Pt       8.42164176       6.48298285      22.29208057        2      -0.03600255       0.02078993      -0.08074563
Pt       0.00154695       0.00089281      24.56436796        1       0.00933286       0.00538963      -0.00225389
Pt       2.80566743       0.00089262      24.56436886        1      -0.00933469       0.00539027      -0.00226444
Pt       5.61442778      -0.01019390      24.56513582        1       0.00000103       0.01071902       0.01351443
Pt       1.40360731       2.42933231      24.56436917        1      -0.00000204      -0.01077590      -0.00226355
Pt       4.18729675       2.41753691      24.61312556        1       0.00276473       0.00159598      -0.00094223
Pt       7.04155849       2.41753705      24.61312546        1      -0.00276256       0.00159517      -0.00093918
Pt       2.79838611       4.86733387      24.56513571        1       0.00928282      -0.00536056       0.01351501
Pt       5.61442787       4.88940030      24.61312570        1      -0.00000155      -0.00319316      -0.00094161
Pt       8.43046951       4.86733387      24.56513605        1      -0.00928160      -0.00536097       0.01351646
N        5.61442767       3.24149167      26.94056631        0      -0.00000826      -0.00000188      -0.03257048
H        4.79429380       2.76798651      26.51488958        0      -0.02598596      -0.01500193       0.00652757
H        5.61442814       4.18850043      26.51488957        0      -0.00000142       0.03001307       0.00652453
H        6.43456172       2.76798701      26.51489084        0       0.02599645      -0.01500995       0.00652035
