31
Lattice="8.421641763931781 0.0 0.0 4.2108208819658905 7.293355709136913 0.0 0.0 0.0 44.584161137365626" Properties=species:S:1:pos:R:3:tags:I:1:forces:R:3 energy=-172.575439453125 free_energy=-172.575439453125 stress="0.010469995439052582 9.748374196760778e-08 -1.2802295714209322e-05 9.748374196760778e-08 0.010570456273853779 -1.03775596471678e-06 -1.2802295714209322e-05 -1.03775596471678e-06 -0.00012013514788122848" pbc="T T T"
Pt       1.40360696       0.81037286      20.00000000        3       0.00098785       0.00061695      -0.00410917
Pt       4.21082088       0.81037286      20.00000000        3      -0.00093502       0.00073848      -0.00392503
Pt       7.01803480       0.81037286      20.00000000        3      -0.00002436       0.00035864      -0.00613031
Pt       2.80721392       3.24149143      20.00000000        3       0.00002842      -0.00077770      -0.00524181
Pt       5.61442784       3.24149143      20.00000000        3      -0.00053049       0.00021849       0.00005832
Pt       8.42164176       3.24149143      20.00000000        3       0.00041739       0.00095468       0.00243244
Pt       4.21082088       5.67261000      20.00000000        3       0.00040808      -0.00049144      -0.00393945
Pt       7.01803480       5.67261000      20.00000000        3       0.00055342      -0.00071279       0.00689563
Pt       9.82524872       5.67261000      20.00000000        3      -0.00087215      -0.00085862      -0.00139090
Pt      -0.00000000       1.62074571      22.29208057        2      -0.00319335       0.02480678      -0.02192467
Pt       2.80721392       1.62074571      22.29208057        2       0.00002323      -0.01154286      -0.04594815
Pt       5.61442784       1.62074571      22.29208057        2       0.00206464       0.01968177      -0.02391727
Pt       1.40360696       4.05186428      22.29208057        2      -0.05323680       0.02312237       0.00318492
Pt       4.21082088       4.05186428      22.29208057        2       0.03941908       0.01502868      -0.00911060
Pt       7.01803480       4.05186428      22.29208057        2       0.01415604       0.03304791       0.04390904
Pt       2.80721392       6.48298285      22.29208057        2      -0.00405417      -0.01219947      -0.02985559
Pt       5.61442784       6.48298285      22.29208057        2       0.02242360      -0.03906850       0.01556435
Pt       8.42164176       6.48298285      22.29208057        2      -0.01937480      -0.05234358       0.02674705
Pt      -0.00481137       0.00379625      24.57851476        1       0.00677264      -0.00102806      -0.00741088
Pt       2.80646375       0.00922633      24.58337329        1      -0.00087347      -0.03398190       0.00005022
Pt       5.61847413       0.00368536      24.57862992        1      -0.01119921      -0.00318022      -0.00653613
Pt       1.40798754       2.42732757      24.57886144        1      -0.00970110       0.00266743      -0.00327328
Pt       4.20570941       2.42715763      24.57873355        1       0.00641437       0.00014639      -0.00410122
Pt       7.01741727       2.42255891      24.58331981        1      -0.00138379       0.03314352      -0.00194548
Pt       2.80787506       4.86219323      24.57622566        1      -0.00035422      -0.00012418      -0.00779459
Pt       5.59999649       4.86180188      24.58785870        1       0.01517997      -0.00016170       0.00253691
Pt       8.43693420       4.86173751      24.59781634        1      -0.01189479       0.00036662       0.02197479
N        7.01846937       4.86233498      27.58833519        0       0.02076681       0.00037518      -0.00560296
H        6.54556074       4.04099086      27.20180020        0       0.00346520       0.02413493       0.03898790
H        6.54575582       5.68364395      27.20167695        0       0.00391845      -0.02278370       0.03817330
H        7.96379334       4.86226163      27.19136908        0      -0.01937136      -0.00015409      -0.00835768
