31
Lattice="8.421641763931781 0.0 0.0 4.2108208819658905 7.293355709136913 0.0 0.0 0.0 44.584161137365626" Properties=species:S:1:pos:R:3:tags:I:1:forces:R:3 energy=-173.71255493164062 free_energy=-173.71255493164062 stress="0.010737682692706585 -5.217785759015214e-09 -4.89063367581366e-09 -5.217785759015214e-09 0.010737687349319458 1.43518485984373e-09 -4.89063367581366e-09 1.43518485984373e-09 1.2297170542296953e-05" pbc="T T T"
Pt       1.40360696       0.81037286      20.00000000        3       0.00546864       0.00315423      -0.01009339
Pt       4.21082088       0.81037286      20.00000000        3       0.00000141       0.00357040      -0.00688449
Pt       7.01803480       0.81037286      20.00000000        3      -0.00547027       0.00315454      -0.01009470
Pt       2.80721392       3.24149143      20.00000000        3       0.00309430      -0.00178576      -0.00688612
Pt       5.61442784       3.24149143      20.00000000        3      -0.00309495      -0.00178596      -0.00688556
Pt       8.42164176       3.24149143      20.00000000        3       0.00000130       0.00539022       0.01372895
Pt       4.21082088       5.67261000      20.00000000        3       0.00000236      -0.00631255      -0.01009321
Pt       7.01803480       5.67261000      20.00000000        3       0.00466542      -0.00269228       0.01372927
Pt       9.82524872       5.67261000      20.00000000        3      -0.00466827      -0.00269209       0.01372927
Pt      -0.00000000       1.62074571      22.29208057        2       0.00000296       0.06621453       0.03225433
Pt       2.80721392       1.62074571      22.29208057        2      -0.00482916      -0.00278981       0.00163861
Pt       5.61442784       1.62074571      22.29208057        2       0.00482723      -0.00278750       0.00163641
Pt       1.40360696       4.05186428      22.29208057        2      -0.07609346       0.04393280      -0.02060065
Pt       4.21082088       4.05186428      22.29208057        2       0.00000117       0.00557614       0.00163935
Pt       7.01803480       4.05186428      22.29208057        2       0.07609238       0.04393329      -0.02060131
Pt       2.80721392       6.48298285      22.29208057        2      -0.05734274      -0.03310829       0.03225296
Pt       5.61442784       6.48298285      22.29208057        2       0.05734375      -0.03310667       0.03225294
Pt       8.42164176       6.48298285      22.29208057        2      -0.00000073      -0.08786470      -0.02060473
Pt       0.00000037      -0.00000025      24.58858466        1      -0.00000070      -0.00000069       0.00282034
Pt       2.80441152       0.00900027      24.60083905        1      -0.00085757      -0.00626666       0.00067410
Pt       5.61723024       0.00900038      24.60083862        1       0.00085901      -0.00626696       0.00068305
Pt       1.41000061       2.42419083      24.60083894        1      -0.00585626       0.00239218       0.00067455
Pt       4.21082092       2.43111854      24.59054652        1      -0.00000158       0.00000112      -0.00889528
Pt       7.01164127       2.42419073      24.60083929        1       0.00585681       0.00239005       0.00067598
Pt       2.81641035       4.86016423      24.60083935        1      -0.00499832       0.00387387       0.00067489
Pt       5.60523212       4.86016392      24.60083871        1       0.00499529       0.00387747       0.00067481
Pt       8.42164151       4.86223706      24.67001038        1       0.00000188       0.00000075      -0.03261057
N        8.42164186       4.86223759      26.73726489        0      -0.00004845      -0.00000864      -0.01468456
H        7.57837115       5.34909969      27.05381454        0       0.04243456      -0.02449550       0.00638821
H        9.26491229       5.34909952      27.05381162        0      -0.04239155      -0.02447730       0.00640795
H        8.42164177       3.88851185      27.05381215        0       0.00000555       0.04897980       0.00639855
