31
Lattice="8.421641763931781 0.0 0.0 4.2108208819658905 7.293355709136913 0.0 0.0 0.0 44.584161137365626" Properties=species:S:1:pos:R:3:tags:I:1:forces:R:3 energy=-172.6457061767578 free_energy=-172.6457061767578 stress="0.01056428998708725 -4.294977262730981e-09 -4.716384616187952e-09 -4.294977262730981e-09 0.010564315132796764 -6.162452770297477e-09 -4.716384616187952e-09 -6.162452770297477e-09 0.00012949758092872798" pbc="T T T"
Pt       1.40360696       0.81037286      20.00000000        3       0.00160808       0.00092518       0.00035629
Pt       4.21082088       0.81037286      20.00000000        3      -0.00160534       0.00092619       0.00035667
Pt       7.01803480       0.81037286      20.00000000        3      -0.00000252       0.00392950       0.00387120
Pt       2.80721392       3.24149143      20.00000000        3       0.00000104      -0.00185611       0.00035599
Pt       5.61442784       3.24149143      20.00000000        3       0.00078636       0.00045490       0.03163350
Pt       8.42164176       3.24149143      20.00000000        3      -0.00078680       0.00045552       0.03163281
Pt       4.21082088       5.67261000      20.00000000        3       0.00340742      -0.00196451       0.00387079
Pt       7.01803480       5.67261000      20.00000000        3      -0.00000211      -0.00090785       0.03163388
Pt       9.82524872       5.67261000      20.00000000        3      -0.00340622      -0.00196292       0.00387070
Pt      -0.00000000       1.62074571      22.29208057        2      -0.08638647       0.08268705       0.00364400
Pt       2.80721392       1.62074571      22.29208057        2      -0.00000063      -0.00000323      -0.05205601
Pt       5.61442784       1.62074571      22.29208057        2       0.08638774       0.08268745       0.00364161
Pt       1.40360696       4.05186428      22.29208057        2      -0.11480533       0.03346972       0.00364351
Pt       4.21082088       4.05186428      22.29208057        2       0.11480776       0.03347103       0.00364103
Pt       7.01803480       4.05186428      22.29208057        2      -0.00000235       0.00000051       0.03507110
Pt       2.80721392       6.48298285      22.29208057        2       0.00000089       0.00000178      -0.05437816
Pt       5.61442784       6.48298285      22.29208057        2       0.02841632      -0.11615717       0.00364250
Pt       8.42164176       6.48298285      22.29208057        2      -0.02841649      -0.11615627       0.00364242
Pt      -0.00256066      -0.00147865      24.56614504        1       0.00538219       0.00310630      -0.00713772
Pt       2.80721401       0.00400352      24.58142047        1      -0.00000007       0.01597884      -0.00494882
Pt       5.61698880      -0.00147868      24.56614539        1      -0.00538298       0.00310671      -0.00713784
Pt       1.40707444       2.42911652      24.58142059        1       0.01383845      -0.00799035      -0.00494681
Pt       4.20735372       2.42911681      24.58141993        1      -0.01383958      -0.00799202      -0.00493877
Pt       7.01803454       2.40793836      24.63180152        1       0.00000060       0.01428749      -0.00863834
Pt       2.80721385       4.86519406      24.56614518        1       0.00000056      -0.00621322      -0.00713721
Pt       5.59435332       4.87382685      24.63180124        1       0.01237190      -0.00714105      -0.00864083
Pt       8.44171590       4.87382702      24.63180107        1      -0.01237308      -0.00714259      -0.00863805
N        7.01803453       4.05186373      26.88131989        0       0.00003271       0.00004145       0.03627095
H        7.01803474       4.97044528      26.36859597        0      -0.00000118       0.00314824      -0.01071048
H        7.81355020       3.59257367      26.36859635        0       0.00273342      -0.00158694      -0.01072645
H        6.22252018       3.59257395      26.36859613        0      -0.00276438      -0.00160369      -0.01074404
