31
Lattice="8.421641763931781 0.0 0.0 4.2108208819658905 7.293355709136913 0.0 0.0 0.0 44.584161137365626" Properties=species:S:1:pos:R:3:tags:I:1:forces:R:3 energy=-172.5789794921875 free_energy=-172.5789794921875 stress="0.010473097674548626 3.4673999227408103e-09 3.7382825723852875e-09 3.4673999227408103e-09 0.01047310046851635 -1.9344388313413674e-09 3.7382825723852875e-09 -1.9344388313413674e-09 -0.00020023407705593854" pbc="T T T"
Pt       1.40360696       0.81037286      20.00000000        3       0.00000108      -0.00000244      -0.00540248
Pt       4.21082088       0.81037286      20.00000000        3      -0.00074483       0.00084727      -0.00204462
Pt       7.01803480       0.81037286      20.00000000        3       0.00079366       0.00067887      -0.00220031
Pt       2.80721392       3.24149143      20.00000000        3       0.00019353      -0.00103048      -0.00220060
Pt       5.61442784       3.24149143      20.00000000        3      -0.00000208      -0.00000038       0.00783756
Pt       8.42164176       3.24149143      20.00000000        3      -0.00036007      -0.00107064      -0.00204653
Pt       4.21082088       5.67261000      20.00000000        3       0.00111043       0.00022377      -0.00204477
Pt       7.01803480       5.67261000      20.00000000        3      -0.00099029       0.00035149      -0.00220078
Pt       9.82524872       5.67261000      20.00000000        3      -0.00000101       0.00000261      -0.00681764
Pt      -0.00000000       1.62074571      22.29208057        2      -0.03240098       0.01846205      -0.02422024
Pt       2.80721392       1.62074571      22.29208057        2       0.03219171       0.01882919      -0.02422133
Pt       5.61442784       1.62074571      22.29208057        2      -0.00152942       0.04198310       0.02925835
Pt       1.40360696       4.05186428      22.29208057        2      -0.00078262      -0.01329090      -0.03097402
Pt       4.21082088       4.05186428      22.29208057        2       0.03712195      -0.01966898       0.02926145
Pt       7.01803480       4.05186428      22.29208057        2      -0.03559719      -0.02231332       0.02926248
Pt       2.80721392       6.48298285      22.29208057        2       0.01190422       0.00596577      -0.03097765
Pt       5.61442784       6.48298285      22.29208057        2       0.00021018      -0.03729255      -0.02422256
Pt       8.42164176       6.48298285      22.29208057        2      -0.01111788       0.00732632      -0.03097769
Pt       0.00192654       0.00033095      24.57723217        1      -0.00364908      -0.00612742      -0.00424188
Pt       2.80596400       0.00150251      24.57723227        1       0.00713318      -0.00009385      -0.00424272
Pt       5.61385810      -0.00636833      24.57875326        1      -0.00299081       0.01932233      -0.00732252
Pt       1.40293081       2.42928455      24.57723241        1      -0.00348264       0.00622517      -0.00424254
Pt       4.19613071       2.42546242      24.58945435        1       0.01929912       0.01753285       0.00628355
Pt       7.03027805       2.42122451      24.58945459        1      -0.02483343       0.00794752       0.00628415
Pt       2.80198376       4.86591458      24.57875351        1       0.01822818      -0.00707271      -0.00733149
Pt       5.61687457       4.87778739      24.58945435        1       0.00553350      -0.02548242       0.00628373
Pt       8.42744141       4.86492831      24.57875360        1      -0.01523806      -0.01225234      -0.00733113
N        5.61442821       3.24149106      27.59559735        0      -0.00002522       0.00002481       0.00372204
H        6.09116549       2.42587708      27.19906571        0       0.00926135       0.03345469       0.03568092
H        4.66971578       3.23643177      27.19906538        0       0.02437678      -0.02475130       0.03569689
H        6.08240198       4.06216571      27.19906541        0      -0.03361312      -0.00872825       0.03569258
