31
Lattice="8.421641763931781 0.0 0.0 4.2108208819658905 7.293355709136913 0.0 0.0 0.0 44.584161137365626" Properties=species:S:1:pos:R:3:tags:I:1:forces:R:3 energy=-173.71568298339844 free_energy=-173.71568298339844 stress="0.01073116809129715 2.1439350295082704e-09 -1.1703218838476914e-08 2.1439350295082704e-09 0.01073120441287756 5.523080881530973e-10 -1.1703218838476914e-08 5.523080881530973e-10 2.1081363229313865e-05" pbc="T T T"
Pt       1.40360696       0.81037286      20.00000000        3       0.00554255       0.00235844      -0.00801766
Pt       4.21082088       0.81037286      20.00000000        3      -0.00056585       0.00240788      -0.00491905
Pt       7.01803480       0.81037286      20.00000000        3      -0.00481771       0.00361623      -0.00801876
Pt       2.80721392       3.24149143      20.00000000        3       0.00237186      -0.00071371      -0.00492057
Pt       5.61442784       3.24149143      20.00000000        3      -0.00180466      -0.00169622      -0.00491974
Pt       8.42164176       3.24149143      20.00000000        3       0.00012942       0.00453769       0.01194888
Pt       4.21082088       5.67261000      20.00000000        3      -0.00072426      -0.00597838      -0.00801778
Pt       7.01803480       5.67261000      20.00000000        3       0.00386284      -0.00237661       0.01194990
Pt       9.82524872       5.67261000      20.00000000        3      -0.00399394      -0.00215447       0.01195061
Pt      -0.00000000       1.62074571      22.29208057        2      -0.00345447       0.05798659       0.04051850
Pt       2.80721392       1.62074571      22.29208057        2      -0.00074611      -0.01197891       0.01779168
Pt       5.61442784       1.62074571      22.29208057        2       0.01074375       0.00534039       0.01779210
Pt       1.40360696       4.05186428      22.29208057        2      -0.05779647       0.03318821      -0.03199268
Pt       4.21082088       4.05186428      22.29208057        2      -0.00999836       0.00663567       0.01779223
Pt       7.01803480       4.05186428      22.29208057        2       0.05763751       0.03346004      -0.03199143
Pt       2.80721392       6.48298285      22.29208057        2      -0.04849112      -0.03198717       0.04051735
Pt       5.61442784       6.48298285      22.29208057        2       0.05194645      -0.02600055       0.04051800
Pt       8.42164176       6.48298285      22.29208057        2       0.00015792      -0.06664468      -0.03199336
Pt      -0.00000024      -0.00000011      24.59135378        1       0.00000272      -0.00000157      -0.01072603
Pt       2.81075531      -0.00383792      24.60838523        1      -0.02137834       0.04127219      -0.01027122
Pt       5.62262785       0.01404638      24.60008782        1       0.00886528       0.02334411      -0.01379032
Pt       1.41167187       2.41699408      24.60008784        1       0.01577894      -0.01935116      -0.01378924
Pt       4.21082081       2.43111855      24.59176298        1       0.00000149       0.00000109      -0.01549047
Pt       7.01958784       2.43610463      24.60838547        1      -0.02505772      -0.03915039      -0.01027001
Pt       2.80211839       4.86108905      24.60838510        1       0.04643585      -0.00212484      -0.01027061
Pt       5.59816283       4.86231490      24.60008811        1      -0.02464999      -0.00398848      -0.01378992
Pt       8.42164086       4.86223751      24.65832889        1       0.00000229       0.00000112      -0.02936971
N        8.42164304       4.86223732      26.72027741        0      -0.00009830      -0.00001588       0.04299831
H        7.93584663       5.70332573      27.04137481        0      -0.00971702       0.01444368       0.00291670
H        9.39294460       4.86240398      27.04136999        0       0.01745147       0.00119893       0.00294885
H        7.93613645       4.02098062      27.04137269        0      -0.00763610      -0.01562908       0.00291543
