31
Lattice="8.421641763931781 0.0 0.0 4.2108208819658905 7.293355709136913 0.0 0.0 0.0 44.584161137365626" Properties=species:S:1:pos:R:3:tags:I:1:forces:R:3 energy=-172.8055419921875 free_energy=-172.8055419921875 stress="0.010267108678817749 -3.813589000145612e-09 -3.890643363035906e-09 -3.813589000145612e-09 0.010219121351838112 -0.00011344049562467262 -3.890643363035906e-09 -0.00011344049562467262 -5.9203353885095567e-05" pbc="T T T"
Pt       1.40360696       0.81037286      20.00000000        3       0.00203003       0.00306398      -0.00474790
Pt       4.21082088       0.81037286      20.00000000        3      -0.00202828       0.00306556      -0.00474772
Pt       7.01803480       0.81037286      20.00000000        3      -0.00000188       0.00165096      -0.01465958
Pt       2.80721392       3.24149143      20.00000000        3       0.00000152       0.00059637      -0.00791100
Pt       5.61442784       3.24149143      20.00000000        3      -0.00193306       0.00454770       0.00620446
Pt       8.42164176       3.24149143      20.00000000        3       0.00193215       0.00454783       0.00620192
Pt       4.21082088       5.67261000      20.00000000        3       0.00229884      -0.00216525       0.00427327
Pt       7.01803480       5.67261000      20.00000000        3      -0.00000263      -0.00018113       0.03382966
Pt       9.82524872       5.67261000      20.00000000        3      -0.00229728      -0.00216410       0.00427046
Pt      -0.00000000       1.62074571      22.29208057        2       0.01726693       0.00746775      -0.08239514
Pt       2.80721392       1.62074571      22.29208057        2       0.00000178      -0.11674117      -0.04284295
Pt       5.61442784       1.62074571      22.29208057        2      -0.01726828       0.00747580      -0.08239631
Pt       1.40360696       4.05186428      22.29208057        2      -0.16515221       0.07757531       0.05781570
Pt       4.21082088       4.05186428      22.29208057        2       0.16515829       0.07757605       0.05781849
Pt       7.01803480       4.05186428      22.29208057        2      -0.00000688       0.10184051       0.06140998
Pt       2.80721392       6.48298285      22.29208057        2       0.00000623      -0.06784555      -0.07097731
Pt       5.61442784       6.48298285      22.29208057        2       0.08122364      -0.12512650       0.02002863
Pt       8.42164176       6.48298285      22.29208057        2      -0.08122936      -0.12512551       0.02001900
Pt      -0.00349791      -0.03012113      24.56749326        1      -0.01284014       0.01348318       0.00479509
Pt       2.80721581       0.00720673      24.59225159        1      -0.00001185       0.01144803       0.01752303
Pt       5.61792533      -0.03012121      24.56748965        1       0.01284976       0.01348604       0.00481543
Pt       1.40272591       2.40139505      24.56335093        1       0.02535599       0.02807487       0.01108423
Pt       4.21170177       2.40139540      24.56335216        1      -0.02535325       0.02807839       0.01107070
Pt       7.01803488       2.37698700      24.57053324        1      -0.00000229       0.04154444      -0.01218739
Pt       2.80721394       4.82862362      24.56492703        1       0.00000059       0.01905812      -0.01172490
Pt       5.59299906       4.81991431      24.62335708        1      -0.01331686      -0.00109250      -0.02260528
Pt       8.44306928       4.81991423      24.62335654        1       0.01331649      -0.00109560      -0.02258747
N        7.01803422       5.40412710      26.90602960        0       0.00001515       0.01401262       0.04642329
H        6.19604213       4.88531348      26.54188049        0      -0.01504421      -0.00829048      -0.00790945
H        7.01803543       6.30144723      26.37849524        0      -0.00000343      -0.00047877       0.02802047
H        7.84002819       4.88531396      26.54188122        0       0.01503441      -0.00828664      -0.00791121
