31
Lattice="8.421641763931781 0.0 0.0 4.2108208819658905 7.293355709136913 0.0 0.0 0.0 44.584161137365626" Properties=species:S:1:pos:R:3:tags:I:1:forces:R:3 energy=-172.76075744628906 free_energy=-172.76075744628906 stress="0.010311971418559551 1.492805404268438e-05 0.00013859564205631614 1.492805404268438e-05 0.010457437485456467 -5.765615242125932e-06 0.00013859564205631614 -5.765615242125932e-06 0.00011396691115805879" pbc="T T T"
Pt       1.40360696       0.81037286      20.00000000        3       0.00258174       0.00063489       0.00243109
Pt       4.21082088       0.81037286      20.00000000        3      -0.00359366       0.00089469       0.00178987
Pt       7.01803480       0.81037286      20.00000000        3      -0.00101966       0.00299973      -0.00506407
Pt       2.80721392       3.24149143      20.00000000        3      -0.00064183       0.00004730      -0.00558010
Pt       5.61442784       3.24149143      20.00000000        3      -0.00206133       0.00257948       0.01904371
Pt       8.42164176       3.24149143      20.00000000        3       0.00087644       0.00217765       0.01665112
Pt       4.21082088       5.67261000      20.00000000        3       0.00218138      -0.00275889       0.00365824
Pt       7.01803480       5.67261000      20.00000000        3      -0.00170805      -0.00178958       0.03803521
Pt       9.82524872       5.67261000      20.00000000        3      -0.00334058      -0.00202461       0.00241387
Pt      -0.00000000       1.62074571      22.29208057        2      -0.00527145       0.04512824      -0.03811924
Pt       2.80721392       1.62074571      22.29208057        2       0.01448216      -0.06945314      -0.06477159
Pt       5.61442784       1.62074571      22.29208057        2       0.03200169       0.05640851      -0.03371594
Pt       1.40360696       4.05186428      22.29208057        2      -0.12807250       0.06055146       0.02495678
Pt       4.21082088       4.05186428      22.29208057        2       0.18541932       0.07464841       0.05174807
Pt       7.01803480       4.05186428      22.29208057        2      -0.02192938       0.06693171       0.03638195
Pt       2.80721392       6.48298285      22.29208057        2       0.01335710      -0.01757242      -0.05837108
Pt       5.61442784       6.48298285      22.29208057        2       0.06064107      -0.12906340       0.03078341
Pt       8.42164176       6.48298285      22.29208057        2      -0.04336346      -0.09789255      -0.00417522
Pt       0.00964421       0.00108424      24.56933687        1       0.00622747       0.01056056      -0.00237465
Pt       2.83148370      -0.00632438      24.60469663        1       0.00182490      -0.01912546       0.00362006
Pt       5.64025634       0.00438222      24.56952086        1      -0.00097370       0.00781261      -0.00144508
Pt       1.43085837       2.41354114      24.57077884        1       0.00543044      -0.00640613      -0.00210533
Pt       4.21829385       2.41609224      24.57114055        1       0.00144039      -0.00899767      -0.00351425
Pt       7.04191774       2.42616429      24.60377438        1       0.00149937       0.01630292       0.00148980
Pt       2.82041831       4.85514463      24.55989836        1      -0.02789565       0.00337971       0.00331636
Pt       5.58774911       4.85079218      24.62962437        1       0.00405591       0.00177684       0.02444234
Pt       8.46978154       4.85108937      24.62028443        1      -0.01315705      -0.00010033       0.01261488
N        7.03902360       4.86818696      26.89483325        0      -0.02623280       0.00150734      -0.01388040
H        7.40273708       5.68662575      26.35178456        0      -0.00386285       0.03327356      -0.01945135
H        7.40274124       4.04999162      26.35085565        0      -0.00256877      -0.03222605      -0.01686656
H        6.04513542       4.86823755      26.58755446        0      -0.04632667      -0.00020548      -0.00394166
