31
Lattice="8.421641763931781 0.0 0.0 4.2108208819658905 7.293355709136913 0.0 0.0 0.0 44.584161137365626" Properties=species:S:1:pos:R:3:tags:I:1:forces:R:3 energy=-172.80628967285156 free_energy=-172.80628967285156 stress="0.010336626321077347 6.0875535723425855e-09 -3.390029146288498e-09 6.0875535723425855e-09 0.010336638428270817 1.7331047708069036e-09 -3.390029146288498e-09 1.7331047708069036e-09 2.1111469322931953e-05" pbc="T T T"
Pt       1.40360696       0.81037286      20.00000000        3       0.00129065       0.00074248      -0.00833490
Pt       4.21082088       0.81037286      20.00000000        3      -0.00128840       0.00074352      -0.00833479
Pt       7.01803480       0.81037286      20.00000000        3      -0.00000193       0.00278298      -0.00336197
Pt       2.80721392       3.24149143      20.00000000        3       0.00000141      -0.00149003      -0.00833571
Pt       5.61442784       3.24149143      20.00000000        3       0.00012197       0.00007205       0.01725021
Pt       8.42164176       3.24149143      20.00000000        3      -0.00012237       0.00007203       0.01724812
Pt       4.21082088       5.67261000      20.00000000        3       0.00241422      -0.00139092      -0.00336194
Pt       7.01803480       5.67261000      20.00000000        3      -0.00000231      -0.00014104       0.01724941
Pt       9.82524872       5.67261000      20.00000000        3      -0.00241326      -0.00138980      -0.00336304
Pt      -0.00000000       1.62074571      22.29208057        2      -0.11445491       0.08732441       0.01453586
Pt       2.80721392       1.62074571      22.29208057        2       0.00000094      -0.00000141      -0.11073934
Pt       5.61442784       1.62074571      22.29208057        2       0.11445411       0.08732565       0.01453499
Pt       1.40360696       4.05186428      22.29208057        2      -0.13285470       0.05545826       0.01453580
Pt       4.21082088       4.05186428      22.29208057        2       0.13285711       0.05545815       0.01453491
Pt       7.01803480       4.05186428      22.29208057        2      -0.00000291       0.00000004       0.08593702
Pt       2.80721392       6.48298285      22.29208057        2       0.00000077       0.00000126      -0.05644566
Pt       5.61442784       6.48298285      22.29208057        2       0.01839794      -0.14278497       0.01453402
Pt       8.42164176       6.48298285      22.29208057        2      -0.01839863      -0.14278248       0.01453488
Pt      -0.00121455      -0.00070156      24.56507438        1      -0.00108075      -0.00062369      -0.00976260
Pt       2.80721390       0.01191124      24.57002391        1       0.00000239      -0.01414492      -0.00316991
Pt       5.61564254      -0.00070148      24.56507441        1       0.00107911      -0.00062330      -0.00976276
Pt       1.41392263       2.42516255      24.57002382        1      -0.01224899       0.00707280      -0.00317001
Pt       4.20050537       2.42516273      24.57002357        1       0.01224975       0.00707124      -0.00317021
Pt       7.01803471       2.40978280      24.61315570        1      -0.00000168       0.00144556       0.00335173
Pt       2.80721398       4.86363987      24.56507473        1       0.00000050       0.00124613      -0.00976154
Pt       5.59595046       4.87290493      24.61315570        1       0.00125141      -0.00072237       0.00334990
Pt       8.44011860       4.87290496      24.61315578        1      -0.00125187      -0.00072172       0.00335284
N        7.01803464       4.05186410      26.94874353        0       0.00002912      -0.00000024       0.04619968
H        7.01803484       3.10212039      26.53110417        0      -0.00000135      -0.01186320      -0.01335853
H        6.19553275       4.52673599      26.53110442        0      -0.01028825       0.00593892      -0.01336489
H        7.84053724       4.52673616      26.53110431        0       0.01026069       0.00592451      -0.01335155
