31
Lattice="8.421641763931781 0.0 0.0 4.2108208819658905 7.293355709136913 0.0 0.0 0.0 44.584161137365626" Properties=species:S:1:pos:R:3:tags:I:1:forces:R:3 energy=-172.79193115234375 free_energy=-172.79193115234375 stress="0.010310113430023193 -2.3398274429098365e-09 -4.037562728598232e-09 -2.3398274429098365e-09 0.010310123674571514 3.047217145280001e-09 -4.037562728598232e-09 3.047217145280001e-09 -5.321209391695447e-05" pbc="T T T"
Pt       1.40360696       0.81037286      20.00000000        3       0.00082314       0.00125747      -0.00642636
Pt       4.21082088       0.81037286      20.00000000        3      -0.00150083       0.00008014      -0.00642535
Pt       7.01803480       0.81037286      20.00000000        3       0.00026539       0.00262320      -0.00198236
Pt       2.80721392       3.24149143      20.00000000        3       0.00068147      -0.00134228      -0.00642732
Pt       5.61442784       3.24149143      20.00000000        3       0.00012997      -0.00073278       0.01711279
Pt       8.42164176       3.24149143      20.00000000        3       0.00057005       0.00048171       0.01711169
Pt       4.21082088       5.67261000      20.00000000        3       0.00214211      -0.00154339      -0.00198138
Pt       7.01803480       5.67261000      20.00000000        3      -0.00070277       0.00025441       0.01711324
Pt       9.82524872       5.67261000      20.00000000        3      -0.00240922      -0.00107776      -0.00198135
Pt      -0.00000000       1.62074571      22.29208057        2      -0.10593732       0.07567662       0.01752971
Pt       2.80721392       1.62074571      22.29208057        2       0.00000100      -0.00000102      -0.12335946
Pt       5.61442784       1.62074571      22.29208057        2       0.11871158       0.08205499       0.00725793
Pt       1.40360696       4.05186428      22.29208057        2      -0.13041908       0.06178164       0.00726036
Pt       4.21082088       4.05186428      22.29208057        2       0.11850872       0.05390628       0.01753088
Pt       7.01803480       4.05186428      22.29208057        2      -0.00000277       0.00000033       0.07267056
Pt       2.80721392       6.48298285      22.29208057        2      -0.00000165       0.00000003      -0.04818298
Pt       5.61442784       6.48298285      22.29208057        2       0.01170621      -0.14383706       0.00725503
Pt       8.42164176       6.48298285      22.29208057        2      -0.01256679      -0.12958133       0.01752998
Pt       0.00401476      -0.01182686      24.56825715        1      -0.01274858       0.02477946      -0.02905606
Pt       2.79849639       0.01462047      24.57019426        1       0.02185038      -0.03446661      -0.00114694
Pt       5.62266263       0.00939005      24.56825740        1      -0.01508212      -0.02343027      -0.02906725
Pt       1.42062777       2.43135808      24.57019431        1      -0.04077550      -0.00169159      -0.00114687
Pt       4.20251822       2.41625844      24.57019400        1       0.01892371       0.03615890      -0.00114657
Pt       7.03631838       2.40891785      24.60960989        1      -0.02603355      -0.01960935      -0.00390599
Pt       2.79496457       4.86467342      24.56825845        1       0.02783021      -0.00134804      -0.02906573
Pt       5.58605971       4.85750328      24.60960945        1      -0.00396528       0.03234765      -0.00390715
Pt       8.43172546       4.88917137      24.60961006        1       0.03000136      -0.01274088      -0.00390658
N        7.01803435       4.05186397      26.91368948        0       0.00002018      -0.00000670       0.03996471
H        7.25197113       3.13617300      26.47645063        0      -0.03201881       0.00570747       0.02026235
H        6.10805515       4.30711500      26.47645016        0       0.02093349       0.02487454       0.02025369
H        7.69407831       4.71230411      26.47645045        0       0.01106519      -0.03057578       0.02026302
