31
Lattice="8.421641763931781 0.0 0.0 4.2108208819658905 7.293355709136913 0.0 0.0 0.0 44.584161137365626" Properties=species:S:1:pos:R:3:tags:I:1:forces:R:3 energy=-173.7037811279297 free_energy=-173.7037811279297 stress="0.010714855045080185 -3.358030880917795e-05 -0.00016869817045517266 -3.358030880917795e-05 0.0108006801456213 3.931210085283965e-05 -0.00016869817045517266 3.931210085283965e-05 0.0001050160062732175" pbc="T T T"
Pt       1.40360696       0.81037286      20.00000000        3       0.00788338       0.00206526      -0.00670749
Pt       4.21082088       0.81037286      20.00000000        3      -0.00029711       0.00287381      -0.00396261
Pt       7.01803480       0.81037286      20.00000000        3      -0.00297666       0.00341700      -0.00780210
Pt       2.80721392       3.24149143      20.00000000        3       0.00454110      -0.00185375      -0.00824660
Pt       5.61442784       3.24149143      20.00000000        3      -0.00203143      -0.00297153      -0.00725871
Pt       8.42164176       3.24149143      20.00000000        3       0.00254696       0.00513503       0.01720488
Pt       4.21082088       5.67261000      20.00000000        3       0.00070962      -0.00634990      -0.01259840
Pt       7.01803480       5.67261000      20.00000000        3       0.00704330      -0.00205150       0.01832253
Pt       9.82524872       5.67261000      20.00000000        3      -0.00330351      -0.00411602       0.01318377
Pt      -0.00000000       1.62074571      22.29208057        2      -0.02430760       0.07309012       0.04147577
Pt       2.80721392       1.62074571      22.29208057        2      -0.02563028      -0.02304546       0.01854524
Pt       5.61442784       1.62074571      22.29208057        2      -0.00462560       0.00585805       0.02036939
Pt       1.40360696       4.05186428      22.29208057        2      -0.12255184       0.05712860       0.00744600
Pt       4.21082088       4.05186428      22.29208057        2      -0.02760583       0.00300108      -0.01597836
Pt       7.01803480       4.05186428      22.29208057        2       0.05360566       0.03382321      -0.03280598
Pt       2.80721392       6.48298285      22.29208057        2      -0.07802816      -0.01936566       0.03034095
Pt       5.61442784       6.48298285      22.29208057        2       0.05218703      -0.00952073       0.03346033
Pt       8.42164176       6.48298285      22.29208057        2      -0.02593919      -0.07907959      -0.00599296
Pt      -0.03932086       0.01036942      24.58975099        1       0.04564080      -0.00082927      -0.00631437
Pt       2.77184996       0.01078049      24.61261467        1       0.01387908      -0.01172842      -0.00820044
Pt       5.58839257       0.01748124      24.60087692        1      -0.00248498       0.01044752      -0.00982861
Pt       1.37889230       2.43010002      24.59983303        1       0.01382125      -0.02007840      -0.00763667
Pt       4.17816026       2.44034140      24.59002239        1       0.00897149      -0.03544939      -0.00866994
Pt       6.98248232       2.44145473      24.61302887        1       0.01357878      -0.00307857      -0.00745490
Pt       2.77338800       4.86835878      24.60180112        1       0.04307405       0.00203339      -0.00924279
Pt       5.55730464       4.86792027      24.58910581        1       0.02361260       0.01772207       0.01489223
Pt       8.39513716       4.87001549      24.67990476        1       0.00710900       0.01362354      -0.03938112
N        8.05464584       4.88287971      26.72440515        0      -0.02357221       0.02192020      -0.00334531
H        7.48913977       5.71003039      26.94099097        0       0.03181959      -0.00816290      -0.00027265
H        8.94618499       4.90538920      27.22509677        0       0.00993206       0.00048772      -0.04050946
H        7.53043514       4.03191355      26.94590294        0       0.00339869      -0.02494537       0.02696802
