31
Lattice="8.421641763931781 0.0 0.0 4.2108208819658905 7.293355709136913 0.0 0.0 0.0 44.584161137365626" Properties=species:S:1:pos:R:3:tags:I:1:forces:R:3 energy=-172.64517211914062 free_energy=-172.64517211914062 stress="0.01042439416050911 1.5020478194571751e-09 3.101631729229837e-10 1.5020478194571751e-09 0.010424400679767132 2.8594868695108744e-09 3.101631729229837e-10 2.8594868695108744e-09 -8.775947208050638e-06" pbc="T T T"
Pt       1.40360696       0.81037286      20.00000000        3       0.00203420       0.00117117       0.00089708
Pt       4.21082088       0.81037286      20.00000000        3      -0.00203170       0.00117232       0.00089750
Pt       7.01803480       0.81037286      20.00000000        3      -0.00000239       0.00398774       0.00066745
Pt       2.80721392       3.24149143      20.00000000        3       0.00000105      -0.00234791       0.00089616
Pt       5.61442784       3.24149143      20.00000000        3       0.00027138       0.00015778       0.02934408
Pt       8.42164176       3.24149143      20.00000000        3      -0.00027168       0.00015833       0.02934271
Pt       4.21082088       5.67261000      20.00000000        3       0.00345771      -0.00199342       0.00066915
Pt       7.01803480       5.67261000      20.00000000        3      -0.00000194      -0.00031345       0.02934313
Pt       9.82524872       5.67261000      20.00000000        3      -0.00345649      -0.00199220       0.00066814
Pt      -0.00000000       1.62074571      22.29208057        2      -0.07618439       0.08602844      -0.01590206
Pt       2.80721392       1.62074571      22.29208057        2       0.00000095      -0.00000084      -0.06579495
Pt       5.61442784       1.62074571      22.29208057        2       0.07618399       0.08602946      -0.01590261
Pt       1.40360696       4.05186428      22.29208057        2      -0.11259481       0.02296489      -0.01589933
Pt       4.21082088       4.05186428      22.29208057        2       0.11259769       0.02296457      -0.01590078
Pt       7.01803480       4.05186428      22.29208057        2      -0.00000287       0.00000063       0.00991739
Pt       2.80721392       6.48298285      22.29208057        2       0.00000047      -0.00000159      -0.07841768
Pt       5.61442784       6.48298285      22.29208057        2       0.03640951      -0.10899363      -0.01590281
Pt       8.42164176       6.48298285      22.29208057        2      -0.03641025      -0.10899144      -0.01590265
Pt      -0.00172800      -0.00099807      24.55968945        1      -0.00141904      -0.00082144       0.02566703
Pt       2.80721402       0.00666512      24.58204406        1      -0.00000036      -0.00463212      -0.00813387
Pt       5.61615607      -0.00099805      24.55968928        1       0.00142064      -0.00081918       0.02566686
Pt       1.40937939       2.42778588      24.58204423        1      -0.00401085       0.00231525      -0.00813177
Pt       4.20504869       2.42778579      24.58204413        1       0.00401270       0.00231531      -0.00813270
Pt       7.01803470       2.40933258      24.62282398        1      -0.00000211       0.01740456       0.04149233
Pt       2.80721414       4.86423277      24.55968981        1       0.00000063       0.00164147       0.02565654
Pt       5.59556083       4.87312975      24.62282388        1       0.01507157      -0.00870156       0.04149160
Pt       8.44050864       4.87313018      24.62282380        1      -0.01507358      -0.00870301       0.04149270
N        7.01803479       4.05186447      26.88201291        0      -0.00000545      -0.00001811      -0.01730064
H        7.01803471       4.96904687      26.36754917        0      -0.00000133       0.01984577      -0.00760174
H        7.81233820       3.59327293      26.36754920        0       0.01718105      -0.00991660      -0.00759444
H        6.22373132       3.59327252      26.36754919        0      -0.01717417      -0.00991093      -0.00759140
