31
Lattice="8.421641763931781 0.0 0.0 4.2108208819658905 7.293355709136913 0.0 0.0 0.0 44.584161137365626" Properties=species:S:1:pos:R:3:tags:I:1:forces:R:3 energy=-172.5792236328125 free_energy=-172.5792236328125 stress="0.010448810644447803 -9.684037571844328e-09 1.1704578639637475e-08 -9.684037571844328e-09 0.010548679158091545 6.268518336582929e-05 1.1704578639637475e-08 6.268518336582929e-05 -0.00013973710883874446" pbc="T T T"
Pt       1.40360696       0.81037286      20.00000000        3       0.00087985      -0.00016894      -0.00785038
Pt       4.21082088       0.81037286      20.00000000        3      -0.00087758      -0.00016792      -0.00785032
Pt       7.01803480       0.81037286      20.00000000        3      -0.00000239       0.00113331      -0.00677136
Pt       2.80721392       3.24149143      20.00000000        3       0.00000159      -0.00101636      -0.00977767
Pt       5.61442784       3.24149143      20.00000000        3       0.00030690       0.00149307       0.00436392
Pt       8.42164176       3.24149143      20.00000000        3      -0.00030750       0.00149361       0.00436321
Pt       4.21082088       5.67261000      20.00000000        3       0.00175598      -0.00096297      -0.00325790
Pt       7.01803480       5.67261000      20.00000000        3      -0.00000199      -0.00278920       0.01129726
Pt       9.82524872       5.67261000      20.00000000        3      -0.00175497      -0.00096170      -0.00325832
Pt      -0.00000000       1.62074571      22.29208057        2      -0.02080357       0.03952640      -0.02778898
Pt       2.80721392       1.62074571      22.29208057        2       0.00000056      -0.01375429      -0.04704522
Pt       5.61442784       1.62074571      22.29208057        2       0.02080313       0.03952684      -0.02778841
Pt       1.40360696       4.05186428      22.29208057        2      -0.07028805       0.02672048      -0.00506993
Pt       4.21082088       4.05186428      22.29208057        2       0.07028870       0.02671861      -0.00507396
Pt       7.01803480       4.05186428      22.29208057        2      -0.00000163       0.04517063       0.05191566
Pt       2.80721392       6.48298285      22.29208057        2      -0.00000038      -0.00527281      -0.04579237
Pt       5.61442784       6.48298285      22.29208057        2       0.02188352      -0.06464237       0.01217164
Pt       8.42164176       6.48298285      22.29208057        2      -0.02188327      -0.06464233       0.01217461
Pt      -0.00531944       0.01005761      24.57148194        1      -0.01083582       0.00406657       0.02710706
Pt       2.80721412       0.00070630      24.57805087        1       0.00000146       0.04293463       0.01029925
Pt       5.61974762       0.01005766      24.57148189        1       0.01083423       0.00406659       0.02710691
Pt       1.40531561       2.42820527      24.57342196        1       0.02012647      -0.00095449       0.01955935
Pt       4.20911211       2.42820527      24.57342204        1      -0.02012247      -0.00095595       0.01955900
Pt       7.01803530       2.44506371      24.58929213        1      -0.00000492      -0.04041398      -0.01083302
Pt       2.80721419       4.86172000      24.56720408        1      -0.00000336       0.00767601       0.03755155
Pt       5.59795904       4.86991859      24.60530540        1      -0.00142950      -0.00019100      -0.03416350
Pt       8.43810922       4.86991844      24.60530668        1       0.00143499      -0.00018686      -0.03417261
N        7.01803550       4.86235690      27.60063906        0      -0.00008823       0.00168984       0.01746044
H        7.01803463       3.89904984      27.25580715        0       0.00000624      -0.00051042       0.03950369
H        6.19758566       5.31827093      27.19143386        0       0.00660345      -0.02233194      -0.00894834
H        7.83848345       5.31827071      27.19143408        0      -0.00652137      -0.02229333      -0.00899166
