31
Lattice="8.421641763931781 0.0 0.0 4.2108208819658905 7.293355709136913 0.0 0.0 0.0 44.584161137365626" Properties=species:S:1:pos:R:3:tags:I:1:forces:R:3 energy=-173.7161865234375 free_energy=-173.7161865234375 stress="0.010666759684681892 -5.185710527655374e-09 1.7177326228079437e-08 -5.185710527655374e-09 0.010666703805327415 -8.638316451037298e-11 1.7177326228079437e-08 -8.638316451037298e-11 -1.7676920833764598e-06" pbc="T T T"
Pt       1.40360696       0.81037286      20.00000000        3       0.00569568       0.00250874      -0.00957325
Pt       4.21082088       0.81037286      20.00000000        3      -0.00066631       0.00312318      -0.00628307
Pt       7.01803480       0.81037286      20.00000000        3      -0.00502461       0.00367340      -0.00957420
Pt       2.80721392       3.24149143      20.00000000        3       0.00304159      -0.00098422      -0.00628570
Pt       5.61442784       3.24149143      20.00000000        3      -0.00237373      -0.00214122      -0.00628403
Pt       8.42164176       3.24149143      20.00000000        3      -0.00053830       0.00469288       0.01201943
Pt       4.21082088       5.67261000      20.00000000        3      -0.00066985      -0.00618574      -0.00957397
Pt       7.01803480       5.67261000      20.00000000        3       0.00433132      -0.00187663       0.01201978
Pt       9.82524872       5.67261000      20.00000000        3      -0.00379570      -0.00281069       0.01202023
Pt      -0.00000000       1.62074571      22.29208057        2      -0.00611594       0.06274581       0.02847473
Pt       2.80721392       1.62074571      22.29208057        2      -0.00095548      -0.01032425      -0.00397919
Pt       5.61442784       1.62074571      22.29208057        2       0.00941700       0.00433165      -0.00397955
Pt       1.40360696       4.05186428      22.29208057        2      -0.06540241       0.04311049      -0.02902498
Pt       4.21082088       4.05186428      22.29208057        2      -0.00845948       0.00598965      -0.00397948
Pt       7.01803480       4.05186428      22.29208057        2       0.07003292       0.03508462      -0.02902688
Pt       2.80721392       6.48298285      22.29208057        2      -0.05128132      -0.03667049       0.02847340
Pt       5.61442784       6.48298285      22.29208057        2       0.05739904      -0.02607318       0.02847266
Pt       8.42164176       6.48298285      22.29208057        2      -0.00463203      -0.07819270      -0.02902696
Pt       0.00000083      -0.00000016      24.58874966        1       0.00000261       0.00000220      -0.00018600
Pt       2.80454340       0.00668804      24.60592620        1       0.00698120      -0.01684445      -0.00247478
Pt       5.61907491       0.01090710      24.59462720        1       0.00539489       0.00066084       0.01184483
Pt       1.41073092       2.42164117      24.59462768        1      -0.00212933      -0.00500428       0.01184434
Pt       4.21082163       2.43111891      24.58900275        1       0.00000055      -0.00000084      -0.00093883
Pt       7.01358003       2.42546071      24.60592692        1       0.01109305       0.01446974      -0.00247408
Pt       2.81434149       4.86120772      24.60592653        1      -0.01808140       0.00237164      -0.00247298
Pt       5.60265860       4.86080785      24.59462723        1      -0.00327136       0.00434260       0.01184532
Pt       8.42164035       4.86223683      24.65974527        1      -0.00000374      -0.00000091       0.03702366
N        8.42163687       4.86223589      26.72996756        0       0.00021279       0.00001211      -0.04319662
H        7.93811200       4.01818119      27.04813702        0       0.00421862       0.00498899       0.00144653
H        7.93243122       5.70301192      27.04813488        0       0.00220972      -0.00616071       0.00144842
H        9.39437933       4.86551621      27.04813014        0      -0.00662999       0.00116184       0.00140101
