31
Lattice="8.421641763931781 0.0 0.0 4.2108208819658905 7.293355709136913 0.0 0.0 0.0 44.584161137365626" Properties=species:S:1:pos:R:3:tags:I:1:forces:R:3 energy=-172.57716369628906 free_energy=-172.57716369628906 stress="0.010478967800736427 -6.591817758305751e-09 -3.362821798802429e-09 -6.591817758305751e-09 0.010478970594704151 -1.7820779296684464e-09 -3.362821798802429e-09 -1.7820779296684464e-09 -0.00018221288337372243" pbc="T T T"
Pt       1.40360696       0.81037286      20.00000000        3       0.00106713       0.00043577      -0.00487122
Pt       4.21082088       0.81037286      20.00000000        3      -0.00091094       0.00070292      -0.00487038
Pt       7.01803480       0.81037286      20.00000000        3      -0.00009057       0.00047737      -0.00420836
Pt       2.80721392       3.24149143      20.00000000        3      -0.00015186      -0.00114335      -0.00487182
Pt       5.61442784       3.24149143      20.00000000        3       0.00003940       0.00009009       0.00331923
Pt       8.42164176       3.24149143      20.00000000        3      -0.00009733      -0.00000869       0.00331724
Pt       4.21082088       5.67261000      20.00000000        3       0.00046164      -0.00016225      -0.00420776
Pt       7.01803480       5.67261000      20.00000000        3       0.00005493      -0.00007869       0.00331849
Pt       9.82524872       5.67261000      20.00000000        3      -0.00037231      -0.00031382      -0.00420871
Pt      -0.00000000       1.62074571      22.29208057        2      -0.02726807       0.03339190      -0.00388948
Pt       2.80721392       1.62074571      22.29208057        2       0.00000130      -0.00000110      -0.05327062
Pt       5.61442784       1.62074571      22.29208057        2       0.02598024       0.03246856      -0.00567626
Pt       1.40360696       4.05186428      22.29208057        2      -0.04111006       0.00626692      -0.00567468
Pt       4.21082088       4.05186428      22.29208057        2       0.04255662       0.00691869      -0.00389110
Pt       7.01803480       4.05186428      22.29208057        2      -0.00000326       0.00000018       0.05031779
Pt       2.80721392       6.48298285      22.29208057        2       0.00000007       0.00000150      -0.03515339
Pt       5.61442784       6.48298285      22.29208057        2       0.01512654      -0.03873571      -0.00567660
Pt       8.42164176       6.48298285      22.29208057        2      -0.01528386      -0.04030925      -0.00389093
Pt      -0.00188900      -0.00020536      24.57707653        1       0.00315344       0.00670928      -0.00708339
Pt       2.80770917       0.00689221      24.57902273        1       0.00323767      -0.01788560      -0.00410718
Pt       5.61554989      -0.00153367      24.57707653        1      -0.00738637      -0.00062519      -0.00708506
Pt       1.40932845       2.42724352      24.57902265        1      -0.01710911       0.00614022      -0.00410667
Pt       4.20460459       2.42810120      24.57902259        1       0.01386950       0.01174597      -0.00410739
Pt       7.01544306       2.41651326      24.58942617        1      -0.00550558       0.02317990       0.00538546
Pt       2.80798107       4.86397596      24.57707651        1       0.00423313      -0.00608521      -0.00708309
Pt       5.60307485       4.87178403      24.58942603        1       0.02282798      -0.00682044       0.00538465
Pt       8.43558596       4.86729583      24.58942632        1      -0.01732042      -0.01636019       0.00538574
N        7.01803445       4.05186422      27.59415629        0       0.00002486       0.00001764       0.00236383
H        6.54129216       4.86794426      27.19876086        0      -0.00865348      -0.03273360       0.03304802
H        7.96315184       4.05669548      27.19876069        0      -0.02402900       0.02385969       0.03305403
H        6.54966060       3.23095332      27.19876081        0       0.03265771       0.00885645       0.03303955
