31
Lattice="8.421641763931781 0.0 0.0 4.2108208819658905 7.293355709136913 0.0 0.0 0.0 44.584161137365626" Properties=species:S:1:pos:R:3:tags:I:1:forces:R:3 energy=-173.7162628173828 free_energy=-173.7162628173828 stress="0.010680291801691055 1.2941150373535493e-08 -1.221743683998966e-08 1.2941150373535493e-08 0.010680324397981167 4.468798220358394e-09 -1.221743683998966e-08 4.468798220358394e-09 -1.570681342855096e-05" pbc="T T T"
Pt       1.40360696       0.81037286      20.00000000        3       0.00577098       0.00239651      -0.00929213
Pt       4.21082088       0.81037286      20.00000000        3      -0.00075051       0.00289737      -0.00635216
Pt       7.01803480       0.81037286      20.00000000        3      -0.00496494       0.00379548      -0.00929338
Pt       2.80721392       3.24149143      20.00000000        3       0.00288774      -0.00079854      -0.00635442
Pt       5.61442784       3.24149143      20.00000000        3      -0.00213656      -0.00210041      -0.00635430
Pt       8.42164176       3.24149143      20.00000000        3      -0.00060252       0.00478930       0.01219130
Pt       4.21082088       5.67261000      20.00000000        3      -0.00080544      -0.00619551      -0.00929207
Pt       7.01803480       5.67261000      20.00000000        3       0.00444754      -0.00186907       0.01219180
Pt       9.82524872       5.67261000      20.00000000        3      -0.00384652      -0.00291530       0.01219273
Pt      -0.00000000       1.62074571      22.29208057        2      -0.00713953       0.06174743       0.03092334
Pt       2.80721392       1.62074571      22.29208057        2      -0.00198791      -0.01224648      -0.00118341
Pt       5.61442784       1.62074571      22.29208057        2       0.01159607       0.00439806      -0.00118626
Pt       1.40360696       4.05186428      22.29208057        2      -0.06417061       0.04298211      -0.03118097
Pt       4.21082088       4.05186428      22.29208057        2      -0.00961000       0.00784693      -0.00118174
Pt       7.01803480       4.05186428      22.29208057        2       0.06930656       0.03408583      -0.03118670
Pt       2.80721392       6.48298285      22.29208057        2      -0.04990310      -0.03706447       0.03092546
Pt       5.61442784       6.48298285      22.29208057        2       0.05704723      -0.02468555       0.03092529
Pt       8.42164176       6.48298285      22.29208057        2      -0.00513414      -0.07706160      -0.03118661
Pt       0.00000021       0.00000055      24.58873665        1       0.00000757      -0.00000897      -0.00027069
Pt       2.80618918       0.00546200      24.60725754        1      -0.00379834      -0.00685295      -0.00827996
Pt       5.61895301       0.01040271      24.59458256        1       0.01240154       0.00911438       0.01217929
Pt       1.41035458       2.42199925      24.59458208        1       0.00169001      -0.01529172       0.01217909
Pt       4.21082201       2.43111894      24.58841300        1      -0.00000158       0.00000107       0.00157994
Pt       7.01381975       2.42749939      24.60725657        1       0.00783208       0.00014711      -0.00826868
Pt       2.81245679       4.86039450      24.60725697        1      -0.00404235       0.00671398      -0.00828029
Pt       5.60315936       4.86095379      24.59458179        1      -0.01411351       0.00618973       0.01217848
Pt       8.42163908       4.86224043      24.66030675        1       0.00001486      -0.00000472       0.00921342
N        8.42163948       4.86223778      26.72772112        0      -0.00009319      -0.00006863      -0.01138467
H        7.93299198       5.70343383      27.04609285        0       0.00512945      -0.01120912       0.00126853
H        9.39446306       4.86481772      27.04608187        0      -0.01222883       0.00115756       0.00131003
H        7.93746115       4.01845400      27.04608014        0       0.00719798       0.01010989       0.00126959
