31
Lattice="8.421641763931781 0.0 0.0 4.2108208819658905 7.293355709136913 0.0 0.0 0.0 44.584161137365626" Properties=species:S:1:pos:R:3:tags:I:1:forces:R:3 energy=-172.57716369628906 free_energy=-172.57716369628906 stress="0.010478964075446129 -1.247369540990917e-09 2.5765309885628085e-09 -1.247369540990917e-09 0.010478977113962173 3.1859743732098877e-09 2.5765309885628085e-09 3.1859743732098877e-09 -0.00018221125355921686" pbc="T T T"
Pt       1.40360696       0.81037286      20.00000000        3      -0.00106550       0.00043556      -0.00487068
Pt       4.21082088       0.81037286      20.00000000        3       0.00008999       0.00047865      -0.00420764
Pt       7.01803480       0.81037286      20.00000000        3       0.00091060       0.00070175      -0.00487131
Pt       2.80721392       3.24149143      20.00000000        3       0.00010016      -0.00000924       0.00331897
Pt       5.61442784       3.24149143      20.00000000        3      -0.00004367       0.00008995       0.00331897
Pt       8.42164176       3.24149143      20.00000000        3       0.00015477      -0.00114193      -0.00487262
Pt       4.21082088       5.67261000      20.00000000        3      -0.00005488      -0.00007975       0.00331941
Pt       7.01803480       5.67261000      20.00000000        3      -0.00046175      -0.00016150      -0.00420913
Pt       9.82524872       5.67261000      20.00000000        3       0.00037047      -0.00031372      -0.00420922
Pt      -0.00000000       1.62074571      22.29208057        2       0.00000181      -0.00000244      -0.05326901
Pt       2.80721392       1.62074571      22.29208057        2       0.02727034       0.03339213      -0.00389028
Pt       5.61442784       1.62074571      22.29208057        2      -0.02598540       0.03246896      -0.00567527
Pt       1.40360696       4.05186428      22.29208057        2       0.04111334       0.00626702      -0.00567466
Pt       4.21082088       4.05186428      22.29208057        2       0.00000145      -0.00000011       0.05031550
Pt       7.01803480       4.05186428      22.29208057        2      -0.04255811       0.00691922      -0.00389006
Pt       2.80721392       6.48298285      22.29208057        2       0.01528589      -0.04031098      -0.00389124
Pt       5.61442784       6.48298285      22.29208057        2      -0.01512990      -0.03873556      -0.00567545
Pt       8.42164176       6.48298285      22.29208057        2       0.00000116       0.00000382      -0.03515327
Pt      -0.00049497       0.00689196      24.57902274        1      -0.00323605      -0.01788328      -0.00410762
Pt       2.80910327      -0.00020520      24.57707672        1      -0.00315167       0.00670742      -0.00708488
Pt       5.61330537      -0.00153364      24.57707660        1       0.00738439      -0.00062429      -0.00708431
Pt       1.39788595       2.42724360      24.57902272        1       0.01710737       0.00613768      -0.00410685
Pt       4.21341225       2.41651340      24.58942592        1       0.00550713       0.02317745       0.00538389
Pt       7.02425093       2.42810135      24.57902272        1      -0.01386947       0.01174473      -0.00410661
Pt       2.79326994       4.86729553      24.58942606        1       0.01731863      -0.01636067       0.00538510
Pt       5.62578062       4.87178392      24.58942596        1      -0.02282696      -0.00681716       0.00538459
Pt       8.42087452       4.86397603      24.57707672        1      -0.00423374      -0.00608368      -0.00708252
N        4.21082112       4.05186448      27.59415631        0      -0.00001068      -0.00001018       0.00236541
H        4.68756342       4.86794405      27.19876083        0       0.00865784      -0.03272066       0.03304313
H        4.67919518       3.23095334      27.19876066        0      -0.03266752       0.00887007       0.03304771
H        3.26570385       4.05669544      27.19876061        0       0.02402002       0.02386069       0.03304978
