31
Lattice="8.421641763931781 0.0 0.0 4.2108208819658905 7.293355709136913 0.0 0.0 0.0 44.584161137365626" Properties=species:S:1:pos:R:3:tags:I:1:forces:R:3 energy=-173.70556640625 free_energy=-173.70556640625 stress="0.010642966255545616 4.05351456720382e-05 5.30178913322743e-05 4.05351456720382e-05 0.01065767277032137 -0.00015368482854682952 5.30178913322743e-05 -0.00015368482854682952 1.5434305169037543e-05" pbc="T T T"
Pt       1.40360696       0.81037286      20.00000000        3      -0.00608931       0.00586957      -0.00743753
Pt       4.21082088       0.81037286      20.00000000        3       0.00465657       0.00448443      -0.01462975
Pt       7.01803480       0.81037286      20.00000000        3       0.00011845       0.00470820      -0.00996104
Pt       2.80721392       3.24149143      20.00000000        3      -0.00124926       0.00620462       0.01746485
Pt       5.61442784       3.24149143      20.00000000        3       0.00311843      -0.00033835      -0.00659534
Pt       8.42164176       3.24149143      20.00000000        3      -0.00177734      -0.00159806      -0.00503126
Pt       4.21082088       5.67261000      20.00000000        3      -0.00507998      -0.00055614       0.01687619
Pt       7.01803480       5.67261000      20.00000000        3      -0.00144669      -0.00499336      -0.00833741
Pt       9.82524872       5.67261000      20.00000000        3       0.00481565      -0.00161798       0.01122609
Pt      -0.00000000       1.62074571      22.29208057        2       0.03512510      -0.01350862       0.00047351
Pt       2.80721392       1.62074571      22.29208057        2      -0.01630982       0.05664594       0.01221860
Pt       5.61442784       1.62074571      22.29208057        2       0.00658479      -0.01323354      -0.03003829
Pt       1.40360696       4.05186428      22.29208057        2       0.07849122       0.02222812      -0.02069155
Pt       4.21082088       4.05186428      22.29208057        2      -0.05082286       0.02932314      -0.04195715
Pt       7.01803480       4.05186428      22.29208057        2      -0.00815777      -0.00026911       0.00762087
Pt       2.80721392       6.48298285      22.29208057        2       0.01613602      -0.13384935       0.00244001
Pt       5.61442784       6.48298285      22.29208057        2      -0.05817026      -0.06004725       0.03031261
Pt       8.42164176       6.48298285      22.29208057        2       0.05174276      -0.06273450       0.02132061
Pt       0.01203598      -0.01612838      24.59984284        1      -0.00612107       0.00476964      -0.01187736
Pt       2.81222546      -0.03045789      24.58407650        1      -0.00215724       0.00016642       0.01994154
Pt       5.62136363      -0.02163527      24.59326555        1      -0.00730239      -0.00872645       0.02392317
Pt       1.41323494       2.40017736      24.60993314        1      -0.01454352       0.01268725       0.00426280
Pt       4.23130629       2.38117228      24.59066626        1      -0.00244697       0.03239878       0.00722252
Pt       7.02991499       2.40256285      24.58427826        1      -0.00036932       0.02659319       0.01954946
Pt       2.80978112       4.83523718      24.67217330        1       0.00530096       0.02789691       0.01198262
Pt       5.62108543       4.83058408      24.61092194        1      -0.00446951       0.00823982      -0.00117540
Pt       8.41645971       4.83273488      24.59895432        1      -0.00471212       0.02583507      -0.00584574
N        2.97040853       4.54053947      26.72051117        0      -0.00802055       0.02524085       0.00343531
H        2.53610456       3.64021260      26.94318137        0      -0.03727089      -0.00488614      -0.00047915
H        2.50247993       5.30529881      27.21376674        0      -0.00085773      -0.00955158      -0.04420292
H        3.96678677       4.51265106      26.95412133        0       0.03128485       0.02261857      -0.00201084
