31
Lattice="8.421641763931781 0.0 0.0 4.2108208819658905 7.293355709136913 0.0 0.0 0.0 44.584161137365626" Properties=species:S:1:pos:R:3:tags:I:1:forces:R:3 energy=-172.80897521972656 free_energy=-172.80897521972656 stress="0.010249936021864414 2.938655779871624e-05 -1.2038657359880744e-06 2.938655779871624e-05 0.010283916257321835 6.959136840123392e-07 -1.2038657359880744e-06 6.959136840123392e-07 -5.0514372560428455e-06" pbc="T T T"
Pt       1.40360696       0.81037286      20.00000000        3      -0.00009882       0.00005410      -0.00896946
Pt       4.21082088       0.81037286      20.00000000        3      -0.00154268       0.00357638       0.00241196
Pt       7.01803480       0.81037286      20.00000000        3       0.00260608       0.00156719      -0.00206810
Pt       2.80721392       3.24149143      20.00000000        3       0.00173588      -0.00380873       0.00406384
Pt       5.61442784       3.24149143      20.00000000        3      -0.00104923       0.00060418       0.03430641
Pt       8.42164176       3.24149143      20.00000000        3      -0.00005401      -0.00304359      -0.00206977
Pt       4.21082088       5.67261000      20.00000000        3       0.00416754       0.00040404       0.00406450
Pt       7.01803480       5.67261000      20.00000000        3      -0.00387332      -0.00044918       0.00240985
Pt       9.82524872       5.67261000      20.00000000        3       0.00012688      -0.00007085      -0.01603642
Pt      -0.00000000       1.62074571      22.29208057        2      -0.10317048       0.05956382      -0.02880416
Pt       2.80721392       1.62074571      22.29208057        2       0.15789899       0.09304524       0.05009724
Pt       5.61442784       1.62074571      22.29208057        2      -0.04131589       0.12694561       0.03362879
Pt       1.40360696       4.05186428      22.29208057        2       0.00397281      -0.03556859      -0.07853510
Pt       4.21082088       4.05186428      22.29208057        2       0.11025004      -0.06365507       0.05075133
Pt       7.01803480       4.05186428      22.29208057        2      -0.13059866      -0.02769764       0.03362744
Pt       2.80721392       6.48298285      22.29208057        2       0.03278814       0.01434812      -0.07853718
Pt       5.61442784       6.48298285      22.29208057        2      -0.00163366      -0.18326159       0.05008662
Pt       8.42164176       6.48298285      22.29208057        2      -0.03574885       0.02064553      -0.07620035
Pt      -0.00235101       0.00811607      24.56456129        1       0.00497562      -0.01181712       0.00390598
Pt       2.80520741       0.00115667      24.56195692        1      -0.01675221       0.00969026       0.00477403
Pt       5.61078774      -0.00332859      24.56711293        1       0.00097198      -0.00223698       0.00480425
Pt       1.39540127       2.42909713      24.56456168        1       0.01273710       0.00159380       0.00390604
Pt       4.18171292       2.42001282      24.62122159        1       0.00169826       0.00020783      -0.00540734
Pt       7.03739858       2.41993910      24.60123027        1      -0.00206344       0.00118813       0.01020501
Pt       2.78943117       4.87250471      24.56471755        1      -0.00104567       0.00059886       0.01160975
Pt       5.60949171       4.89299981      24.62121980        1       0.00066739      -0.00159524      -0.00538749
Pt       8.42270383       4.86705421      24.56711405        1       0.00242963       0.00027651       0.00480646
N        5.41757060       3.35514769      26.92569435        0      -0.01960522       0.01130428       0.02497450
H        4.56705095       2.89489313      26.54854241        0       0.00539568      -0.00316800      -0.00567639
H        5.39089818       4.32184779      26.54854432        0       0.00548157      -0.00314099      -0.00569863
H        6.21095507       2.89708154      26.43662071        0       0.01064859      -0.00610025      -0.02104364
