31
Lattice="8.421641763931781 0.0 0.0 4.2108208819658905 7.293355709136913 0.0 0.0 0.0 44.584161137365626" Properties=species:S:1:pos:R:3:tags:I:1:forces:R:3 energy=-172.8059844970703 free_energy=-172.8059844970703 stress="0.01028026919811964 1.6022533300130704e-09 -2.2421009493456268e-09 1.6022533300130704e-09 0.010280286893248558 4.699380440342793e-09 -2.2421009493456268e-09 4.699380440342793e-09 -5.393909668782726e-05" pbc="T T T"
Pt       1.40360696       0.81037286      20.00000000        3      -0.00104929       0.00060387      -0.00947356
Pt       4.21082088       0.81037286      20.00000000        3       0.00000152       0.00276152      -0.00425085
Pt       7.01803480       0.81037286      20.00000000        3       0.00104745       0.00060427      -0.00947380
Pt       2.80721392       3.24149143      20.00000000        3       0.00059282       0.00034107       0.01770383
Pt       5.61442784       3.24149143      20.00000000        3      -0.00059347       0.00034125       0.01770452
Pt       8.42164176       3.24149143      20.00000000        3       0.00000123      -0.00121193      -0.00947472
Pt       4.21082088       5.67261000      20.00000000        3       0.00000195      -0.00068170       0.01770428
Pt       7.01803480       5.67261000      20.00000000        3      -0.00239490      -0.00137919      -0.00425377
Pt       9.82524872       5.67261000      20.00000000        3       0.00239191      -0.00137900      -0.00425288
Pt      -0.00000000       1.62074571      22.29208057        2       0.00000171      -0.00000214      -0.09937659
Pt       2.80721392       1.62074571      22.29208057        2       0.11651060       0.09124228       0.00165026
Pt       5.61442784       1.62074571      22.29208057        2      -0.11651122       0.09124191       0.00165069
Pt       1.40360696       4.05186428      22.29208057        2       0.13727269       0.05527942       0.00165312
Pt       4.21082088       4.05186428      22.29208057        2       0.00000176      -0.00000052       0.08201154
Pt       7.01803480       4.05186428      22.29208057        2      -0.13727471       0.05527991       0.00165321
Pt       2.80721392       6.48298285      22.29208057        2       0.02076480      -0.14652050       0.00165112
Pt       5.61442784       6.48298285      22.29208057        2      -0.02076619      -0.14652091       0.00165013
Pt       8.42164176       6.48298285      22.29208057        2       0.00000142       0.00000048      -0.07234870
Pt       0.00000023       0.00600150      24.56729922        1       0.00000020       0.04490055       0.00588216
Pt       2.80788468      -0.00038736      24.56074788        1       0.00382845      -0.00221102       0.01202273
Pt       5.61375709      -0.00038741      24.56074777        1      -0.00382900      -0.00221070       0.01202093
Pt       1.39840941       2.42811760      24.56729917        1      -0.03888362      -0.02244971       0.00588365
Pt       4.21082099       2.40924915      24.61409012        1      -0.00000105       0.00594318       0.00152944
Pt       7.02323237       2.42811764      24.56729901        1       0.03888439      -0.02245144       0.00588439
Pt       2.78827449       4.87317190      24.61408975        1       0.00514606      -0.00297258       0.00152925
Pt       5.63336728       4.87317179      24.61409023        1      -0.00514615      -0.00297057       0.00152916
Pt       8.42164173       4.86301135      24.56074843        1       0.00000108       0.00442293       0.01201276
N        4.21082083       4.05186479      26.95105818        0       0.00001028      -0.00003506       0.00445953
H        3.39091012       4.52523993      26.52528617        0      -0.02163833       0.01249393       0.00169877
H        5.03073152       4.52524012      26.52528579        0       0.02162768       0.01248799       0.00170450
H        4.21082068       3.10511241      26.52528563        0      -0.00000003      -0.02494732       0.00171516
