31
Lattice="8.421641763931781 0.0 0.0 4.2108208819658905 7.293355709136913 0.0 0.0 0.0 44.584161137365626" Properties=species:S:1:pos:R:3:tags:I:1:forces:R:3 energy=-172.80076599121094 free_energy=-172.80076599121094 stress="0.010380426421761513 3.031572992640008e-09 -4.5300149742466544e-10 3.031572992640008e-09 0.010380423627793789 1.7847986422125928e-09 -4.5300149742466544e-10 1.7847986422125928e-09 0.0001380981266265735" pbc="T T T"
Pt       1.40360696       0.81037286      20.00000000        3       0.00000085      -0.00000257      -0.00917235
Pt       4.21082088       0.81037286      20.00000000        3      -0.00175569       0.00301193       0.00178036
Pt       7.01803480       0.81037286      20.00000000        3       0.00208382       0.00282778       0.00179303
Pt       2.80721392       3.24149143      20.00000000        3       0.00140944      -0.00322236       0.00179219
Pt       5.61442784       3.24149143      20.00000000        3      -0.00000205      -0.00000054       0.03522864
Pt       8.42164176       3.24149143      20.00000000        3      -0.00172974      -0.00302841       0.00177839
Pt       4.21082088       5.67261000      20.00000000        3       0.00349048       0.00001671       0.00177976
Pt       7.01803480       5.67261000      20.00000000        3      -0.00349670       0.00039459       0.00179186
Pt       9.82524872       5.67261000      20.00000000        3      -0.00000100       0.00000234      -0.01458436
Pt      -0.00000000       1.62074571      22.29208057        2      -0.14292550       0.07743343       0.03906735
Pt       2.80721392       1.62074571      22.29208057        2       0.13852470       0.08505797       0.03906517
Pt       5.61442784       1.62074571      22.29208057        2      -0.00085061       0.12743612       0.05054232
Pt       1.40360696       4.05186428      22.29208057        2       0.00004203      -0.03188090      -0.06163941
Pt       4.21082088       4.05186428      22.29208057        2       0.11079064      -0.06298293       0.05054083
Pt       7.01803480       4.05186428      22.29208057        2      -0.10994147      -0.06445746       0.05054351
Pt       2.80721392       6.48298285      22.29208057        2       0.02758970       0.01597783      -0.06164078
Pt       5.61442784       6.48298285      22.29208057        2       0.00439956      -0.16249314       0.03906516
Pt       8.42164176       6.48298285      22.29208057        2      -0.02762795       0.01590790      -0.06164151
Pt       0.00294871      -0.00332069      24.56545311        1       0.00257984       0.02801080      -0.00533324
Pt       2.80861545       0.00421349      24.56545337        1      -0.02554854      -0.01177244      -0.00533283
Pt       5.61588376      -0.00628200      24.56941715        1       0.00358272      -0.02452381      -0.00742878
Pt       1.39925720       2.43022503      24.56545340        1       0.02296766      -0.01623791      -0.00533178
Pt       4.18525398       2.41956269      24.61814345        1       0.01124701      -0.01083582      -0.00880909
Pt       7.04082542       2.41475449      24.61814415        1       0.00376362       0.01515869      -0.00881832
Pt       2.80104613       4.86411719      24.56941791        1      -0.02303135       0.00915735      -0.00742772
Pt       5.61720380       4.89015591      24.61814394        1      -0.01500904      -0.00432079      -0.00880775
Pt       8.42635331       4.86663865      24.56941725        1       0.01944816       0.01536431      -0.00742671
N        5.61442744       3.24149159      26.94316115        0       0.00000500      -0.00002831      -0.00885108
H        4.88347866       2.63568135      26.52135929        0      -0.00884810       0.02319191      -0.01083713
H        5.45525592       4.17741688      26.52136017        0       0.02449402      -0.00390209      -0.01085136
H        6.50454911       2.91137666      26.52135927        0      -0.01565146      -0.01926019      -0.01083433
