31
Lattice="8.421641763931781 0.0 0.0 4.2108208819658905 7.293355709136913 0.0 0.0 0.0 44.584161137365626" Properties=species:S:1:pos:R:3:tags:I:1:forces:R:3 energy=-172.64501953125 free_energy=-172.64501953125 stress="0.010480822995305061 -3.704355711064977e-09 -4.7067212349816145e-09 -3.704355711064977e-09 0.010480837896466255 -1.0229943558925925e-09 -4.7067212349816145e-09 -1.0229943558925925e-09 5.028833584219683e-06" pbc="T T T"
Pt       1.40360696       0.81037286      20.00000000        3      -0.00206368       0.00118954      -0.00083402
Pt       4.21082088       0.81037286      20.00000000        3       0.00000202       0.00430218       0.00125575
Pt       7.01803480       0.81037286      20.00000000        3       0.00206217       0.00118983      -0.00083476
Pt       2.80721392       3.24149143      20.00000000        3       0.00083026       0.00047814       0.03291240
Pt       5.61442784       3.24149143      20.00000000        3      -0.00083052       0.00047817       0.03291187
Pt       8.42164176       3.24149143      20.00000000        3       0.00000080      -0.00238299      -0.00083560
Pt       4.21082088       5.67261000      20.00000000        3       0.00000169      -0.00095587       0.03291300
Pt       7.01803480       5.67261000      20.00000000        3      -0.00372888      -0.00214960       0.00125405
Pt       9.82524872       5.67261000      20.00000000        3       0.00372537      -0.00214936       0.00125471
Pt      -0.00000000       1.62074571      22.29208057        2       0.00000148      -0.00000224      -0.05686319
Pt       2.80721392       1.62074571      22.29208057        2       0.08613567       0.09567083      -0.01345735
Pt       5.61442784       1.62074571      22.29208057        2      -0.08613637       0.09567013      -0.01345754
Pt       1.40360696       4.05186428      22.29208057        2       0.12592347       0.02675843      -0.01345661
Pt       4.21082088       4.05186428      22.29208057        2       0.00000028      -0.00000074       0.03622523
Pt       7.01803480       4.05186428      22.29208057        2      -0.12592420       0.02675716      -0.01345769
Pt       2.80721392       6.48298285      22.29208057        2       0.03978743      -0.12242950      -0.01345738
Pt       5.61442784       6.48298285      22.29208057        2      -0.03978948      -0.12242758      -0.01346007
Pt       8.42164176       6.48298285      22.29208057        2       0.00000188       0.00000361      -0.08502202
Pt       0.00000028       0.00255814      24.58008572        1       0.00000017       0.02804134       0.00056846
Pt       2.80869384      -0.00085465      24.55778872        1       0.00109255      -0.00063040       0.03598787
Pt       5.61294808      -0.00085471      24.55778815        1      -0.00109191      -0.00063078       0.03598811
Pt       1.40139172       2.42983920      24.58008549        1      -0.02428485      -0.01401905       0.00056933
Pt       4.21082066       2.40505207      24.63193038        1       0.00000299       0.03446603      -0.01021230
Pt       7.02025022       2.42983943      24.58008604        1       0.02428227      -0.01402012       0.00056952
Pt       2.78464022       4.87527035      24.63193056        1       0.02984589      -0.01723342      -0.01021296
Pt       5.63700197       4.87527030      24.63193020        1      -0.02985036      -0.01723595      -0.01020315
Pt       8.42164103       4.86394568      24.55778953        1       0.00000301       0.00126244       0.03598925
N        4.21082088       4.05186411      26.87787112        0       0.00001647       0.00000405       0.01672201
H        5.00691386       3.59223940      26.36492356        0      -0.01376660       0.00795121      -0.00311673
H        3.41472826       3.59223978      26.36492399        0       0.01374865       0.00793833      -0.00312257
H        4.21082075       4.97111330      26.36492398        0       0.00000229      -0.01589374      -0.00311771
