31
Lattice="8.421641763931781 0.0 0.0 4.2108208819658905 7.293355709136913 0.0 0.0 0.0 44.584161137365626" Properties=species:S:1:pos:R:3:tags:I:1:forces:R:3 energy=-172.8055419921875 free_energy=-172.8055419921875 stress="0.010231140069663525 -2.079517798847519e-05 9.824025619309396e-05 -2.079517798847519e-05 0.010255110450088978 5.672085171681829e-05 9.824025619309396e-05 5.672085171681829e-05 -5.920177136431448e-05" pbc="T T T"
Pt       1.40360696       0.81037286      20.00000000        3      -0.00367032       0.00022197      -0.00474879
Pt       4.21082088       0.81037286      20.00000000        3       0.00073023       0.00307085       0.00427118
Pt       7.01803480       0.81037286      20.00000000        3      -0.00051897      -0.00029989      -0.00791132
Pt       2.80721392       3.24149143      20.00000000        3       0.00016038       0.00009179       0.03383100
Pt       5.61442784       3.24149143      20.00000000        3      -0.00297432      -0.00394636       0.00620368
Pt       8.42164176       3.24149143      20.00000000        3      -0.00164010      -0.00329021      -0.00474933
Pt       4.21082088       5.67261000      20.00000000        3      -0.00490164      -0.00060094       0.00620455
Pt       7.01803480       5.67261000      20.00000000        3      -0.00143342      -0.00082447      -0.01466084
Pt       9.82524872       5.67261000      20.00000000        3       0.00302315      -0.00090307       0.00427103
Pt      -0.00000000       1.62074571      22.29208057        2       0.10110187       0.05837027      -0.04284144
Pt       2.80721392       1.62074571      22.29208057        2       0.06774989       0.13291380       0.02002223
Pt       5.61442784       1.62074571      22.29208057        2      -0.14976013       0.10424555       0.05780480
Pt       1.40360696       4.05186428      22.29208057        2       0.14898266      -0.00778088       0.02002779
Pt       4.21082088       4.05186428      22.29208057        2      -0.08819991      -0.05091974       0.06141455
Pt       7.01803480       4.05186428      22.29208057        2       0.00215978      -0.01869262      -0.08239739
Pt       2.80721392       6.48298285      22.29208057        2       0.01539966      -0.18182316       0.05781613
Pt       5.61442784       6.48298285      22.29208057        2      -0.01510994       0.01121690      -0.08239976
Pt       8.42164176       6.48298285      22.29208057        2       0.05875832       0.03392217      -0.07098672
Pt       0.02618172       0.01409866      24.56334985        1      -0.03698877       0.00791786       0.01108083
Pt       2.83504986       0.01203148      24.56748938        1      -0.00526728      -0.01786449       0.00481486
Pt       5.64353724       0.01680790      24.56492306        1      -0.01649419      -0.00954450      -0.01170361
Pt       1.39736668       2.42751550      24.59225065        1      -0.00991354      -0.00572437       0.01752698
Pt       4.25819048       2.43372039      24.62335745        1       0.00758259      -0.01096408      -0.02258772
Pt       7.04333453       2.44674288      24.56335191        1      -0.01162177      -0.03599256       0.01107186
Pt       2.83315167       4.90195645      24.62335921        1      -0.00570368       0.01207785      -0.02261394
Pt       5.66130866       4.88930264      24.57053190        1      -0.03599319      -0.02077036      -0.01217860
Pt       8.44597818       4.88032763      24.56749115        1      -0.01809523       0.00437451       0.00480600
N        3.03972848       3.37573242      26.90603231        0      -0.01209096      -0.00699483       0.04635143
H        2.26262445       2.92707720      26.37849579        0       0.00046132       0.00021281       0.02803328
H        3.07803650       4.34700527      26.54187969        0      -0.00032790       0.01715817      -0.00787775
H        3.90003397       2.92327443      26.54188208        0       0.01459546      -0.00885809      -0.00789521
