31
Lattice="8.421641763931781 0.0 0.0 4.2108208819658905 7.293355709136913 0.0 0.0 0.0 44.584161137365626" Properties=species:S:1:pos:R:3:tags:I:1:forces:R:3 energy=-173.70556640625 free_energy=-173.70556640625 stress="0.010642774403095245 4.053666634717956e-05 5.288283136906102e-05 4.053666634717956e-05 0.010657552629709244 -0.00015358404198195785 5.288283136906102e-05 -0.00015358404198195785 1.5265773981809616e-05" pbc="T T T"
Pt       1.40360696       0.81037286      20.00000000        3      -0.00609033       0.00586794      -0.00743473
Pt       4.21082088       0.81037286      20.00000000        3       0.00465772       0.00448471      -0.01463461
Pt       7.01803480       0.81037286      20.00000000        3       0.00012044       0.00470573      -0.00996172
Pt       2.80721392       3.24149143      20.00000000        3      -0.00124870       0.00620474       0.01746646
Pt       5.61442784       3.24149143      20.00000000        3       0.00312129      -0.00034127      -0.00660127
Pt       8.42164176       3.24149143      20.00000000        3      -0.00177794      -0.00159844      -0.00502974
Pt       4.21082088       5.67261000      20.00000000        3      -0.00507870      -0.00055709       0.01688227
Pt       7.01803480       5.67261000      20.00000000        3      -0.00144584      -0.00499713      -0.00833827
Pt       9.82524872       5.67261000      20.00000000        3       0.00481584      -0.00161996       0.01122692
Pt      -0.00000000       1.62074571      22.29208057        2       0.03513140      -0.01350382       0.00046508
Pt       2.80721392       1.62074571      22.29208057        2      -0.01632986       0.05666680       0.01224066
Pt       5.61442784       1.62074571      22.29208057        2       0.00655962      -0.01320717      -0.03004788
Pt       1.40360696       4.05186428      22.29208057        2       0.07847100       0.02224565      -0.02066132
Pt       4.21082088       4.05186428      22.29208057        2      -0.05084747       0.02935607      -0.04198922
Pt       7.01803480       4.05186428      22.29208057        2      -0.00815515      -0.00024605       0.00760916
Pt       2.80721392       6.48298285      22.29208057        2       0.01614100      -0.13384141       0.00245285
Pt       5.61442784       6.48298285      22.29208057        2      -0.05820750      -0.06002783       0.03031875
Pt       8.42164176       6.48298285      22.29208057        2       0.05173130      -0.06273227       0.02129660
Pt       0.01202028      -0.01609689      24.59985771        1      -0.00611615       0.00470722      -0.01194116
Pt       2.81220907      -0.03044731      24.58406754        1      -0.00216837       0.00029073       0.01997900
Pt       5.62133313      -0.02159240      24.59325228        1      -0.00726889      -0.00873254       0.02398613
Pt       1.41321263       2.40019539      24.60993501        1      -0.01446168       0.01275783       0.00425041
Pt       4.23128760       2.38123436      24.59066147        1      -0.00249599       0.03221489       0.00721706
Pt       7.02990453       2.40258681      24.58426973        1      -0.00038625       0.02659439       0.01958916
Pt       2.80975325       4.83528992      24.67218269        1       0.00527126       0.02780746       0.01171634
Pt       5.62106178       4.83059791      24.61092316        1      -0.00445408       0.00831033      -0.00117268
Pt       8.41642829       4.83276970      24.59896509        1      -0.00461297       0.02574508      -0.00588503
N        2.97039947       4.54056434      26.72048635        0      -0.00859347       0.02543634       0.00398242
H        3.96675708       4.51269060      26.95413754        0       0.03176928       0.02255447      -0.00202420
H        2.53608354       3.64025910      26.94321353        0      -0.03723155      -0.00504710      -0.00064920
H        2.50246534       5.30531398      27.21375674        0      -0.00081924      -0.00949833      -0.04430833
