31
Lattice="8.421641763931781 0.0 0.0 4.2108208819658905 7.293355709136913 0.0 0.0 0.0 44.584161137365626" Properties=species:S:1:pos:R:3:tags:I:1:forces:R:3 energy=-172.8036651611328 free_energy=-172.8036651611328 stress="0.01024372223764658 -4.373209594632499e-05 -6.09521048318129e-05 -4.373209594632499e-05 0.01029422227293253 -3.519335587043315e-05 -6.09521048318129e-05 -3.519335587043315e-05 -1.095204697776353e-05" pbc="T T T"
Pt       1.40360696       0.81037286      20.00000000        3      -0.00231867       0.00122348      -0.00127175
Pt       4.21082088       0.81037286      20.00000000        3       0.00197224       0.00391202       0.00331229
Pt       7.01803480       0.81037286      20.00000000        3       0.00083416       0.00048067      -0.00621176
Pt       2.80721392       3.24149143      20.00000000        3       0.00266130       0.00153535       0.03510553
Pt       5.61442784       3.24149143      20.00000000        3      -0.00048377      -0.00361403       0.00617695
Pt       8.42164176       3.24149143      20.00000000        3      -0.00009691      -0.00262123      -0.00127417
Pt       4.21082088       5.67261000      20.00000000        3      -0.00336841       0.00139050       0.00617674
Pt       7.01803480       5.67261000      20.00000000        3       0.00063779       0.00037169      -0.01569220
Pt       9.82524872       5.67261000      20.00000000        3       0.00437335      -0.00024746       0.00331116
Pt      -0.00000000       1.62074571      22.29208057        2       0.07066023       0.04079403      -0.03735041
Pt       2.80721392       1.62074571      22.29208057        2       0.04753191       0.11496124       0.03033411
Pt       5.61442784       1.62074571      22.29208057        2      -0.16864929       0.08359377       0.05839460
Pt       1.40360696       4.05186428      22.29208057        2       0.12332956      -0.01631794       0.03033738
Pt       4.21082088       4.05186428      22.29208057        2      -0.12040412      -0.06951473       0.04898122
Pt       7.01803480       4.05186428      22.29208057        2      -0.01789956      -0.05014122      -0.08589362
Pt       2.80721392       6.48298285      22.29208057        2      -0.01192969      -0.18785211       0.05840022
Pt       5.61442784       6.48298285      22.29208057        2      -0.05237004       0.00957303      -0.08589780
Pt       8.42164176       6.48298285      22.29208057        2       0.02277748       0.01315411      -0.07216001
Pt      -0.01231374       0.00197358      24.56839079        1      -0.00626247       0.01060327      -0.01237684
Pt       2.78902905      -0.01401430      24.56862790        1       0.04336047       0.02347760       0.00071760
Pt       5.59524602      -0.01107344      24.56182767        1       0.04229326       0.02440426       0.00093250
Pt       1.37721933       2.41588317      24.59719415        1      -0.00690138      -0.00397938       0.01624242
Pt       4.22836183       2.40594819      24.62284116        1       0.00362498       0.01726580      -0.00582911
Pt       7.01358614       2.41946583      24.56839129        1       0.00606008      -0.01071372      -0.01238486
Pt       2.79418672       4.89001247      24.62284292        1       0.01675811      -0.00548320      -0.00584304
Pt       5.62070431       4.86586132      24.56439422        1      -0.00973950      -0.00562792       0.01068577
Pt       8.40041184       4.85349586      24.56862715        1       0.04201728       0.02580935       0.00072981
N        3.10101843       3.41111918      26.90725837        0       0.00597259       0.00346085      -0.04219764
H        3.14642149       4.38342689      26.53904914        0      -0.01642717      -0.03746854       0.01655167
H        3.96576358       2.96428726      26.53904950        0      -0.04067060       0.00450134       0.01653965
H        2.33298448       2.96769607      26.35830994        0       0.02265660       0.01306900       0.04145366
