31
Lattice="8.421641763931781 0.0 0.0 4.2108208819658905 7.293355709136913 0.0 0.0 0.0 44.584161137365626" Properties=species:S:1:pos:R:3:tags:I:1:forces:R:3 energy=-172.8042755126953 free_energy=-172.8042755126953 stress="0.010287904180586338 4.897313457541408e-11 -2.1888268975089886e-09 4.897313457541408e-11 0.010287929326295853 -3.9178507660331263e-10 -2.1888268975089886e-09 -3.9178507660331263e-10 2.577461418695748e-05" pbc="T T T"
Pt       1.40360696       0.81037286      20.00000000        3       0.00000084      -0.00000243      -0.01219183
Pt       4.21082088       0.81037286      20.00000000        3      -0.00218469       0.00302589       0.00097820
Pt       7.01803480       0.81037286      20.00000000        3       0.00197815       0.00239035       0.00095326
Pt       2.80721392       3.24149143      20.00000000        3       0.00108287      -0.00291267       0.00095230
Pt       5.61442784       3.24149143      20.00000000        3      -0.00000217      -0.00000053       0.03240645
Pt       8.42164176       3.24149143      20.00000000        3      -0.00152734      -0.00340713       0.00097418
Pt       4.21082088       5.67261000      20.00000000        3       0.00371746       0.00038185       0.00097477
Pt       7.01803480       5.67261000      20.00000000        3      -0.00306488       0.00052176       0.00095269
Pt       9.82524872       5.67261000      20.00000000        3      -0.00000102       0.00000297      -0.01432937
Pt      -0.00000000       1.62074571      22.29208057        2      -0.14879040       0.08583473       0.01205140
Pt       2.80721392       1.62074571      22.29208057        2       0.14873499       0.08593222       0.01205248
Pt       5.61442784       1.62074571      22.29208057        2      -0.00261468       0.12158792       0.04921711
Pt       1.40360696       4.05186428      22.29208057        2       0.00523699      -0.02981789      -0.07348431
Pt       4.21082088       4.05186428      22.29208057        2       0.10661311      -0.05853412       0.04921579
Pt       7.01803480       4.05186428      22.29208057        2      -0.10400248      -0.06305796       0.04921758
Pt       2.80721392       6.48298285      22.29208057        2       0.02320258       0.01944808      -0.07348136
Pt       5.61442784       6.48298285      22.29208057        2       0.00005729      -0.17177427       0.01205221
Pt       8.42164176       6.48298285      22.29208057        2      -0.02843928       0.01038221      -0.07347928
Pt       0.00377195       0.00392323      24.56071319        1      -0.01567234      -0.02144739       0.02084064
Pt       2.80192964       0.00130402      24.56071465        1       0.02641404      -0.00284320       0.02082969
Pt       5.60582012      -0.01200274      24.56953960        1       0.02004883       0.02604747      -0.00908217
Pt       1.40511921       2.42588963      24.56071373        1      -0.01073886       0.02429580       0.02084039
Pt       4.18209356       2.42267709      24.61256524        1       0.02813169       0.00079508       0.01039204
Pt       7.03970798       2.41046050      24.61256682        1      -0.01475130       0.02396643       0.01038594
Pt       2.80112349       4.87569259      24.56953663        1       0.01253372      -0.03038826      -0.00906181
Pt       5.62148108       4.89133730      24.61256746        1      -0.01337872      -0.02476552       0.01037925
Pt       8.43633957       4.86078406      24.56953675        1      -0.03258258       0.00433924      -0.00906019
N        5.61442907       3.24149132      26.94051627        0       0.00000724       0.00001232      -0.04885918
H        6.38996962       2.69236921      26.52021664        0      -0.01084229       0.02134674       0.00245764
H        4.75110371       2.84441377      26.52021940        0       0.02389781      -0.00128610       0.00244606
H        5.70221073       4.18769156      26.52021852        0      -0.01306467      -0.02007356       0.00245929
