31
Lattice="8.421641763931781 0.0 0.0 4.2108208819658905 7.293355709136913 0.0 0.0 0.0 44.584161137365626" Properties=species:S:1:pos:R:3:tags:I:1:forces:R:3 energy=-172.80471801757812 free_energy=-172.80471801757812 stress="0.01028028316795826 -1.5528563990230282e-09 -1.9045107158000008e-10 -1.5528563990230282e-09 0.010280297137796879 -2.182025227170925e-09 -1.9045107158000008e-10 -2.182025227170925e-09 -4.932244337396696e-05" pbc="T T T"
Pt       1.40360696       0.81037286      20.00000000        3      -0.00149772       0.00067051      -0.01033518
Pt       4.21082088       0.81037286      20.00000000        3       0.00020816       0.00324939      -0.00453064
Pt       7.01803480       0.81037286      20.00000000        3       0.00132997       0.00095864      -0.01033610
Pt       2.80721392       3.24149143      20.00000000        3       0.00075219       0.00003570       0.01850021
Pt       5.61442784       3.24149143      20.00000000        3      -0.00040894       0.00063204       0.01850080
Pt       8.42164176       3.24149143      20.00000000        3       0.00016780      -0.00163383      -0.01033682
Pt       4.21082088       5.67261000      20.00000000        3      -0.00034154      -0.00066682       0.01850086
Pt       7.01803480       5.67261000      20.00000000        3      -0.00292104      -0.00144422      -0.00453165
Pt       9.82524872       5.67261000      20.00000000        3       0.00271119      -0.00180191      -0.00453198
Pt      -0.00000000       1.62074571      22.29208057        2       0.00000228      -0.00000216      -0.11661333
Pt       2.80721392       1.62074571      22.29208057        2       0.12144673       0.09948799      -0.00072747
Pt       5.61442784       1.62074571      22.29208057        2      -0.11681766       0.09317054       0.00259694
Pt       1.40360696       4.05186428      22.29208057        2       0.13909602       0.05457840       0.00259951
Pt       4.21082088       4.05186428      22.29208057        2       0.00000098      -0.00000060       0.08541630
Pt       7.01803480       4.05186428      22.29208057        2      -0.14688657       0.05543135      -0.00072697
Pt       2.80721392       6.48298285      22.29208057        2       0.02544061      -0.15492061      -0.00073135
Pt       5.61442784       6.48298285      22.29208057        2      -0.02228223      -0.14774840       0.00259934
Pt       8.42164176       6.48298285      22.29208057        2      -0.00000218       0.00000243      -0.07508003
Pt      -0.00007342       0.00955902      24.56697164        1       0.00300655       0.00652822       0.01115540
Pt       2.81020023       0.00562964      24.55886601        1       0.00108657      -0.02672239       0.02352001
Pt       5.61781020      -0.00540207      24.55886516        1      -0.02368642       0.01242308       0.02353142
Pt       1.39536506       2.42627498      24.56697156        1      -0.00715470      -0.00066200       0.01115590
Pt       4.21763831       2.41008356      24.61570362        1      -0.02012815       0.00544659       0.00402940
Pt       7.02634972       2.42640223      24.56697166        1       0.00415231      -0.00586677       0.01115659
Pt       2.78558858       4.86685052      24.61570328        1       0.01478142       0.01470348       0.00402901
Pt       5.62923491       4.87865783      24.61570452        1       0.00534710      -0.02015086       0.00403284
Pt       8.41527290       4.86200818      24.55886587        1       0.02259563       0.01430154       0.02352199
N        4.21081998       4.05186438      26.95922023        0      -0.00001277       0.00000744       0.01863557
H        3.42366783       4.58177206      26.53934328        0      -0.01410650      -0.00282083      -0.01499323
H        5.06331072       4.46860432      26.53934597        0       0.00463013       0.01364122      -0.01500539
H        4.14548435       3.10521619      26.53934451        0       0.00949070      -0.01082736      -0.01500205
