31
Lattice="8.421641763931781 0.0 0.0 4.2108208819658905 7.293355709136913 0.0 0.0 0.0 44.584161137365626" Properties=species:S:1:pos:R:3:tags:I:1:forces:R:3 energy=-172.80630493164062 free_energy=-172.80630493164062 stress="0.010269244201481342 -1.4864667274849808e-09 2.6312932388528054e-10 -1.4864667274849808e-09 0.010269258171319962 -3.732841147296995e-09 2.6312932388528054e-10 -3.732841147296995e-09 9.02172178030014e-06" pbc="T T T"
Pt       1.40360696       0.81037286      20.00000000        3       0.00000128      -0.00000244      -0.00880966
Pt       4.21082088       0.81037286      20.00000000        3      -0.00214217       0.00264063       0.00079599
Pt       7.01803480       0.81037286      20.00000000        3       0.00214094       0.00263997       0.00079492
Pt       2.80721392       3.24149143      20.00000000        3       0.00121810      -0.00317767       0.00079486
Pt       5.61442784       3.24149143      20.00000000        3      -0.00000211      -0.00000020       0.03264397
Pt       8.42164176       3.24149143      20.00000000        3      -0.00121518      -0.00317668       0.00079352
Pt       4.21082088       5.67261000      20.00000000        3       0.00336231       0.00053639       0.00079498
Pt       7.01803480       5.67261000      20.00000000        3      -0.00336221       0.00053799       0.00079468
Pt       9.82524872       5.67261000      20.00000000        3      -0.00000083       0.00000253      -0.01720354
Pt      -0.00000000       1.62074571      22.29208057        2      -0.13941249       0.08049027       0.02965306
Pt       2.80721392       1.62074571      22.29208057        2       0.13941562       0.08048949       0.02965472
Pt       5.61442784       1.62074571      22.29208057        2      -0.00000284       0.12739018       0.04132034
Pt       1.40360696       4.05186428      22.29208057        2       0.00000097      -0.04157403      -0.08074234
Pt       4.21082088       4.05186428      22.29208057        2       0.11032557      -0.06369670       0.04131973
Pt       7.01803480       4.05186428      22.29208057        2      -0.11032740      -0.06369577       0.04132175
Pt       2.80721392       6.48298285      22.29208057        2       0.03600319       0.02078710      -0.08074591
Pt       5.61442784       6.48298285      22.29208057        2       0.00000058      -0.16098081       0.02965035
Pt       8.42164176       6.48298285      22.29208057        2      -0.03600353       0.02079061      -0.08074395
Pt       0.00154708       0.00089247      24.56436806        1       0.00933296       0.00539082      -0.00225517
Pt       2.80566706       0.00089248      24.56436897        1      -0.00933164       0.00539257      -0.00226492
Pt       5.61442778      -0.01019388      24.56513549        1       0.00000000       0.01072044       0.01351413
Pt       1.40360714       2.42933246      24.56436917        1       0.00000017      -0.01077778      -0.00226468
Pt       4.18729656       2.41753711      24.61312658        1       0.00276337       0.00159163      -0.00095502
Pt       7.04155853       2.41753668      24.61312635        1      -0.00276323       0.00159465      -0.00095509
Pt       2.79838630       4.86733400      24.56513603        1       0.00928119      -0.00535958       0.01351452
Pt       5.61442783       4.88940083      24.61312619        1      -0.00000035      -0.00319334      -0.00095348
Pt       8.43046937       4.86733388      24.56513539        1      -0.00928228      -0.00536054       0.01351553
N        5.61442803       3.24149111      26.94056510        0      -0.00000020       0.00002617      -0.03252935
H        6.43456168       2.76798698      26.51488792        0       0.02601548      -0.01502191       0.00651198
H        4.79429434       2.76798711      26.51488793        0      -0.02601533      -0.01502170       0.00651186
H        5.61442784       4.18850023      26.51488831        0       0.00000004       0.03001782       0.00652224
