31
Lattice="8.421641763931781 0.0 0.0 4.2108208819658905 7.293355709136913 0.0 0.0 0.0 44.584161137365626" Properties=species:S:1:pos:R:3:tags:I:1:forces:R:3 energy=-172.8053741455078 free_energy=-172.8053741455078 stress="0.010277386754751205 -2.1626137822750024e-05 5.58127103431616e-05 -2.1626137822750024e-05 0.010302354581654072 3.2219209970207885e-05 5.58127103431616e-05 3.2219209970207885e-05 -1.5545911082881503e-05" pbc="T T T"
Pt       1.40360696       0.81037286      20.00000000        3      -0.00220920      -0.00020418      -0.00832921
Pt       4.21082088       0.81037286      20.00000000        3       0.00014078       0.00326070       0.00135791
Pt       7.01803480       0.81037286      20.00000000        3       0.00048493       0.00027947      -0.00643086
Pt       2.80721392       3.24149143      20.00000000        3       0.00143879       0.00082892       0.02707782
Pt       5.61442784       3.24149143      20.00000000        3      -0.00152734      -0.00298752       0.01605049
Pt       8.42164176       3.24149143      20.00000000        3      -0.00127858      -0.00181297      -0.00833097
Pt       4.21082088       5.67261000      20.00000000        3      -0.00334685       0.00017384       0.01605037
Pt       7.01803480       5.67261000      20.00000000        3      -0.00220630      -0.00126996      -0.00997069
Pt       9.82524872       5.67261000      20.00000000        3       0.00289305      -0.00150790       0.00135618
Pt      -0.00000000       1.62074571      22.29208057        2       0.01163430       0.00671355      -0.10786150
Pt       2.80721392       1.62074571      22.29208057        2       0.14085567       0.10647295       0.02284640
Pt       5.61442784       1.62074571      22.29208057        2      -0.13346770       0.10136393       0.03627524
Pt       1.40360696       4.05186428      22.29208057        2       0.16263638       0.06874758       0.02284859
Pt       4.21082088       4.05186428      22.29208057        2      -0.04051392      -0.02339170       0.07277171
Pt       7.01803480       4.05186428      22.29208057        2      -0.08325122       0.02112033      -0.03975272
Pt       2.80721392       6.48298285      22.29208057        2       0.02105280      -0.16626675       0.03627590
Pt       5.61442784       6.48298285      22.29208057        2      -0.02333673      -0.08265457      -0.03975618
Pt       8.42164176       6.48298285      22.29208057        2       0.03546642       0.02047741      -0.07370736
Pt       0.01865389       0.01549684      24.57008997        1      -0.02178205       0.00509765      -0.00071500
Pt       2.82482523      -0.00280109      24.56335317        1      -0.02947760       0.03632578       0.00770140
Pt       5.63445297       0.01156090      24.56371008        1      -0.01979721      -0.01142854      -0.00901268
Pt       1.40309556       2.43082382      24.56808335        1      -0.00994039      -0.00574291      -0.00642768
Pt       4.23176232       2.41393223      24.62682523        1      -0.03056059       0.00001758      -0.00761275
Pt       7.04078222       2.43952458      24.57008963        1      -0.00647878      -0.02141408      -0.00071326
Pt       2.80280122       4.88896533      24.62682548        1      -0.01526417      -0.02647250      -0.00761064
Pt       5.63874047       4.87627420      24.59456950        1       0.01487620       0.00858880       0.04192134
Pt       8.42802101       4.87888964      24.56335476        1       0.01672049      -0.04369071       0.00769299
N        3.94759311       3.89989062      26.93230310        0       0.00819281       0.00475363      -0.03411892
H        3.09030070       4.35127358      26.55475086        0       0.00031230      -0.02147347       0.01214853
H        4.71698251       4.34409674      26.38941633        0       0.02618040       0.01512187       0.02583499
H        3.90985599       2.93176309      26.55474993        0      -0.01844657       0.01097396       0.01214033
