31
Lattice="8.421641763931781 0.0 0.0 4.2108208819658905 7.293355709136913 0.0 0.0 0.0 44.584161137365626" Properties=species:S:1:pos:R:3:tags:I:1:forces:R:3 energy=-172.76077270507812 free_energy=-172.76077270507812 stress="0.010433997958898544 5.5531549151055515e-05 -6.430824578274041e-05 5.5531549151055515e-05 0.01033543050289154 0.00012289764708839357 -6.430824578274041e-05 0.00012289764708839357 0.00011397273192415014" pbc="T T T"
Pt       1.40360696       0.81037286      20.00000000        3      -0.00184117       0.00191379       0.00243098
Pt       4.21082088       0.81037286      20.00000000        3       0.00130339       0.00326630       0.00365889
Pt       7.01803480       0.81037286      20.00000000        3       0.00027764      -0.00058252      -0.00557992
Pt       2.80721392       3.24149143      20.00000000        3       0.00240649      -0.00058223       0.03803554
Pt       5.61442784       3.24149143      20.00000000        3      -0.00120644      -0.00307390       0.01904413
Pt       8.42164176       3.24149143      20.00000000        3       0.00102282      -0.00356162       0.00178677
Pt       4.21082088       5.67261000      20.00000000        3      -0.00232070      -0.00032955       0.01665199
Pt       7.01803480       5.67261000      20.00000000        3      -0.00209393      -0.00238013      -0.00506574
Pt       9.82524872       5.67261000      20.00000000        3       0.00342411      -0.00187616       0.00241432
Pt      -0.00000000       1.62074571      22.29208057        2       0.05290861       0.04726398      -0.06477037
Pt       2.80721392       1.62074571      22.29208057        2       0.08145425       0.11705068       0.03078553
Pt       5.61442784       1.62074571      22.29208057        2      -0.15736100       0.12325142       0.05174999
Pt       1.40360696       4.05186428      22.29208057        2       0.10646410       0.01139267      -0.00417418
Pt       4.21082088       4.05186428      22.29208057        2      -0.04700130      -0.05245801       0.03638000
Pt       7.01803480       4.05186428      22.29208057        2      -0.06485660      -0.00048998      -0.03371580
Pt       2.80721392       6.48298285      22.29208057        2       0.01159807      -0.14118907       0.02495638
Pt       5.61442784       6.48298285      22.29208057        2      -0.03644954      -0.02712763      -0.03812242
Pt       8.42164176       6.48298285      22.29208057        2       0.00854266       0.02035782      -0.05837160
Pt       0.00159691       0.03238861      24.57077763        1       0.00283324       0.00790676      -0.00210720
Pt       2.80145286       0.00780949      24.56933686        1      -0.01226005       0.00011151      -0.00237420
Pt       5.61396758       0.01498144      24.55989743        1       0.01102406      -0.02585018       0.00331691
Pt       1.39694948       2.45529871      24.60469611        1       0.01565074       0.01114208       0.00362065
Pt       4.23407168       2.41373642      24.62962559        1      -0.00356612       0.00262394       0.02443189
Pt       7.02731158       2.44510300      24.57114100        1       0.00707005       0.00574590      -0.00351290
Pt       2.79279823       4.90950098      24.62028411        1       0.00666558      -0.01134154       0.01261753
Pt       5.60677665       4.88539755      24.60377334        1      -0.01486898      -0.00685393       0.00150025
Pt       8.40493194       4.88241395      24.56952062        1      -0.00627914      -0.00474745      -0.00144538
N        3.49336966       3.66187950      26.89483419        0       0.01183365      -0.02340480      -0.01391843
H        2.60272490       3.56764638      26.35178349        0      -0.02688967      -0.01998810      -0.01944825
H        4.02008887       4.38596715      26.35085397        0       0.02916487       0.01384756      -0.01683366
H        3.99026981       2.80112346      26.58755524        0       0.02335040      -0.04003753      -0.00394147
