31
Lattice="8.421641763931781 0.0 0.0 4.2108208819658905 7.293355709136913 0.0 0.0 0.0 44.584161137365626" Properties=species:S:1:pos:R:3:tags:I:1:forces:R:3 energy=-172.80453491210938 free_energy=-172.80453491210938 stress="0.010308989323675632 4.874187276016073e-09 -2.7180089290368414e-09 4.874187276016073e-09 0.010309015400707722 8.932835804387196e-09 -2.7180089290368414e-09 8.932835804387196e-09 -2.4669796403031796e-05" pbc="T T T"
Pt       1.40360696       0.81037286      20.00000000        3      -0.00189645       0.00057107      -0.00842494
Pt       4.21082088       0.81037286      20.00000000        3      -0.00024277       0.00310551      -0.00555339
Pt       7.01803480       0.81037286      20.00000000        3       0.00144275       0.00135408      -0.00842586
Pt       2.80721392       3.24149143      20.00000000        3       0.00007663      -0.00009927       0.01854822
Pt       5.61442784       3.24149143      20.00000000        3       0.00004598       0.00011515       0.01854700
Pt       8.42164176       3.24149143      20.00000000        3       0.00045352      -0.00192917      -0.00842804
Pt       4.21082088       5.67261000      20.00000000        3      -0.00012164      -0.00001500       0.01854816
Pt       7.01803480       5.67261000      20.00000000        3      -0.00256994      -0.00176261      -0.00555611
Pt       9.82524872       5.67261000      20.00000000        3       0.00281234      -0.00133879      -0.00555500
Pt      -0.00000000       1.62074571      22.29208057        2       0.00000136      -0.00000315      -0.10864222
Pt       2.80721392       1.62074571      22.29208057        2       0.11438897       0.09611810       0.00601307
Pt       5.61442784       1.62074571      22.29208057        2      -0.10751516       0.10099304       0.00855178
Pt       1.40360696       4.05186428      22.29208057        2       0.14122656       0.04261095       0.00855463
Pt       4.21082088       4.05186428      22.29208057        2      -0.00000033       0.00000048       0.08440737
Pt       7.01803480       4.05186428      22.29208057        2      -0.14043997       0.05100249       0.00601193
Pt       2.80721392       6.48298285      22.29208057        2       0.02604765      -0.14712372       0.00601527
Pt       5.61442784       6.48298285      22.29208057        2      -0.03371122      -0.14360404       0.00855083
Pt       8.42164176       6.48298285      22.29208057        2       0.00000237       0.00000541      -0.08293468
Pt      -0.00956571       0.01234551      24.57146107        1       0.02427766      -0.01656489      -0.01094963
Pt       2.80763978      -0.00316091      24.55879061        1       0.00013298       0.01291932       0.02385733
Pt       5.61147724       0.00121147      24.55879001        1       0.01111968      -0.00657577       0.02385615
Pt       1.39769750       2.41666133      24.57146157        1       0.00221022       0.02930863      -0.01095003
Pt       4.21712213       2.40983313      24.61358881        1      -0.01066684       0.00378206       0.00526252
Pt       7.03350910       2.43322952      24.57146163        1      -0.02648535      -0.01274008      -0.01094994
Pt       2.78563027       4.86742236      24.61359072        1       0.00860381       0.00734678       0.00525145
Pt       5.62971136       4.87833720      24.61358927        1       0.00205576      -0.01113145       0.00526145
Pt       8.42416592       4.86418661      24.55878878        1      -0.01124842      -0.00634511       0.02386844
N        4.21082131       4.05186490      26.95091030        0       0.00002849      -0.00005067      -0.01178485
H        4.99061294       4.59232805      26.52764941        0      -0.00609522      -0.01647215       0.00234766
H        4.28898009       3.10631294      26.52764955        0      -0.01122381       0.01354121       0.00236394
H        3.35286995       4.45695182      26.52765130        0       0.01729025       0.00298158       0.00233763
