31
Lattice="8.421641763931781 0.0 0.0 4.2108208819658905 7.293355709136913 0.0 0.0 0.0 44.584161137365626" Properties=species:S:1:pos:R:3:tags:I:1:forces:R:3 energy=-172.5946807861328 free_energy=-172.5946807861328 stress="0.010531794279813766 6.742951086380344e-09 1.2699101326063555e-08 6.742951086380344e-09 0.010531801730394363 -8.8967860856215e-10 1.2699101326063555e-08 -8.8967860856215e-10 -0.00010166123684030026" pbc="T T T"
Pt       1.40360696       0.81037286      20.00000000        3      -0.00046374       0.00026552      -0.00699052
Pt       4.21082088       0.81037286      20.00000000        3       0.00000133       0.00081166      -0.00487369
Pt       7.01803480       0.81037286      20.00000000        3       0.00046234       0.00026560      -0.00699100
Pt       2.80721392       3.24149143      20.00000000        3       0.00043670       0.00025079      -0.00006574
Pt       5.61442784       3.24149143      20.00000000        3      -0.00043759       0.00025165      -0.00006548
Pt       8.42164176       3.24149143      20.00000000        3       0.00000163      -0.00053607      -0.00699195
Pt       4.21082088       5.67261000      20.00000000        3       0.00000189      -0.00050131      -0.00006557
Pt       7.01803480       5.67261000      20.00000000        3      -0.00070629      -0.00040405      -0.00487667
Pt       9.82524872       5.67261000      20.00000000        3       0.00070350      -0.00040370      -0.00487533
Pt      -0.00000000       1.62074571      22.29208057        2       0.00000183      -0.00000265      -0.05402491
Pt       2.80721392       1.62074571      22.29208057        2       0.02141170       0.02138752      -0.00027974
Pt       5.61442784       1.62074571      22.29208057        2      -0.02141204       0.02138723      -0.00027830
Pt       1.40360696       4.05186428      22.29208057        2       0.02922882       0.00784453      -0.00028087
Pt       4.21082088       4.05186428      22.29208057        2       0.00000210      -0.00000272       0.04413338
Pt       7.01803480       4.05186428      22.29208057        2      -0.02923020       0.00784471      -0.00027841
Pt       2.80721392       6.48298285      22.29208057        2       0.00781959      -0.02923262      -0.00028091
Pt       5.61442784       6.48298285      22.29208057        2      -0.00782049      -0.02923320      -0.00028272
Pt       8.42164176       6.48298285      22.29208057        2       0.00000097       0.00000351      -0.03138628
Pt       0.00000072       0.00768632      24.57860599        1      -0.00000408      -0.03944379       0.01256403
Pt       2.80961374      -0.00138602      24.57829540        1      -0.01536150       0.00887029       0.00745365
Pt       5.61202833      -0.00138650      24.57829554        1       0.01536564       0.00887301       0.00745317
Pt       1.39695066       2.42727433      24.57860613        1       0.03415787       0.01972272       0.01256531
Pt       4.21082102       2.42801302      24.59073955        1       0.00000138      -0.02196422       0.00538602
Pt       7.02469199       2.42727424      24.57860658        1      -0.03416032       0.01972225       0.01256493
Pt       2.80452487       4.86378922      24.59073883        1      -0.01901810       0.01098348       0.00539576
Pt       5.61711748       4.86378948      24.59073856        1       0.01902003       0.01097871       0.00539503
Pt       8.42164187       4.86500710      24.57829558        1      -0.00000336      -0.01773909       0.00745350
N        4.21082188       4.05186414      27.96139930        0      -0.00008752      -0.00001977       0.02144477
H        5.02465258       3.58199713      27.56270930        0       0.02243601      -0.01293805      -0.00632563
H        3.39698904       3.58199854      27.56270866        0      -0.02236764      -0.01292137      -0.00628310
H        4.21081955       4.99159643      27.56270947        0       0.00001971       0.02587955      -0.00631262
