31
Lattice="8.421641763931781 0.0 0.0 4.2108208819658905 7.293355709136913 0.0 0.0 0.0 44.584161137365626" Properties=species:S:1:pos:R:3:tags:I:1:forces:R:3 energy=-172.80628967285156 free_energy=-172.80628967285156 stress="0.010336623527109623 -2.373394814014773e-09 -4.0810943513491793e-10 -2.373394814014773e-09 0.010336631909012794 4.7367900712913524e-09 -4.0810943513491793e-10 4.7367900712913524e-09 2.1105679479660466e-05" pbc="T T T"
Pt       1.40360696       0.81037286      20.00000000        3      -0.00128965       0.00074236      -0.00833425
Pt       4.21082088       0.81037286      20.00000000        3       0.00000152       0.00278327      -0.00336120
Pt       7.01803480       0.81037286      20.00000000        3       0.00128799       0.00074242      -0.00833610
Pt       2.80721392       3.24149143      20.00000000        3       0.00012496       0.00007142       0.01724890
Pt       5.61442784       3.24149143      20.00000000        3      -0.00012572       0.00007179       0.01725036
Pt       8.42164176       3.24149143      20.00000000        3       0.00000169      -0.00148905      -0.00833678
Pt       4.21082088       5.67261000      20.00000000        3       0.00000166      -0.00014165       0.01725075
Pt       7.01803480       5.67261000      20.00000000        3      -0.00241372      -0.00139033      -0.00336307
Pt       9.82524872       5.67261000      20.00000000        3       0.00241123      -0.00138980      -0.00336197
Pt      -0.00000000       1.62074571      22.29208057        2      -0.00000074      -0.00000430      -0.11074153
Pt       2.80721392       1.62074571      22.29208057        2       0.11445982       0.08732466       0.01453195
Pt       5.61442784       1.62074571      22.29208057        2      -0.11445880       0.08732580       0.01453363
Pt       1.40360696       4.05186428      22.29208057        2       0.13285699       0.05546131       0.01453336
Pt       4.21082088       4.05186428      22.29208057        2       0.00000216       0.00000034       0.08593613
Pt       7.01803480       4.05186428      22.29208057        2      -0.13285987       0.05545916       0.01453555
Pt       2.80721392       6.48298285      22.29208057        2       0.01839968      -0.14278457       0.01453418
Pt       5.61442784       6.48298285      22.29208057        2      -0.01840093      -0.14278460       0.01453241
Pt       8.42164176       6.48298285      22.29208057        2       0.00000141       0.00000327      -0.05644627
Pt       0.00000027       0.01191114      24.57002385        1      -0.00000156      -0.01414403      -0.00317086
Pt       2.80842876      -0.00070147      24.56507452        1       0.00108004      -0.00062439      -0.00976302
Pt       5.61321299      -0.00070148      24.56507416        1      -0.00107950      -0.00062490      -0.00976273
Pt       1.39329141       2.42516264      24.57002346        1       0.01225023       0.00707362      -0.00315914
Pt       4.21082095       2.40978251      24.61315485        1      -0.00000050       0.00144879       0.00335293
Pt       7.02835029       2.42516273      24.57002372        1      -0.01224978       0.00707150      -0.00316873
Pt       2.78873656       4.87290500      24.61315506        1       0.00125367      -0.00072356       0.00335204
Pt       5.63290516       4.87290502      24.61315538        1      -0.00125296      -0.00072477       0.00335179
Pt       8.42164175       4.86363983      24.56507500        1       0.00000072       0.00124707      -0.00976120
N        4.21082122       4.05186455      26.94874425        0      -0.00000030      -0.00001903       0.04618469
H        5.03332362       4.52673622      26.53110490        0       0.01026453       0.00592939      -0.01335610
H        4.21082096       3.10212025      26.53110439        0      -0.00000010      -0.01184027      -0.01334927
H        3.38831849       4.52673611      26.53110532        0      -0.01026413       0.00592917      -0.01335635
