31
Lattice="8.421641763931781 0.0 0.0 4.2108208819658905 7.293355709136913 0.0 0.0 0.0 44.584161137365626" Properties=species:S:1:pos:R:3:tags:I:1:forces:R:3 energy=-173.71585083007812 free_energy=-173.71585083007812 stress="0.010695412755012512 2.9084599173501147e-09 1.1664448074100164e-08 2.9084599173501147e-09 0.010695390403270721 -3.060820930045338e-09 1.1664448074100164e-08 -3.060820930045338e-09 5.3992727771401405e-05" pbc="T T T"
Pt       1.40360696       0.81037286      20.00000000        3      -0.00232939      -0.00182264      -0.00573418
Pt       4.21082088       0.81037286      20.00000000        3       0.00044987       0.00437318       0.01247132
Pt       7.01803480       0.81037286      20.00000000        3       0.00273943      -0.00111026      -0.00573456
Pt       2.80721392       3.24149143      20.00000000        3       0.00356564      -0.00257612       0.01246905
Pt       5.61442784       3.24149143      20.00000000        3      -0.00401460      -0.00179880       0.01246974
Pt       8.42164176       3.24149143      20.00000000        3      -0.00056582      -0.00634748      -0.00905141
Pt       4.21082088       5.67261000      20.00000000        3      -0.00040935       0.00292955      -0.00573409
Pt       7.01803480       5.67261000      20.00000000        3      -0.00521601       0.00366831      -0.00905055
Pt       9.82524872       5.67261000      20.00000000        3       0.00578036       0.00268502      -0.00905013
Pt      -0.00000000       1.62074571      22.29208057        2      -0.00926704       0.00777663       0.00323657
Pt       2.80721392       1.62074571      22.29208057        2       0.06389838       0.03977145      -0.02262879
Pt       5.61442784       1.62074571      22.29208057        2      -0.06639603       0.03544817      -0.02262987
Pt       1.40360696       4.05186428      22.29208057        2       0.05656425      -0.03130858       0.03390403
Pt       4.21082088       4.05186428      22.29208057        2       0.00249760      -0.07522327      -0.02262910
Pt       7.01803480       4.05186428      22.29208057        2      -0.05539884      -0.03333075       0.03390388
Pt       2.80721392       6.48298285      22.29208057        2      -0.00210187      -0.01191515       0.00323543
Pt       5.61442784       6.48298285      22.29208057        2       0.01136951       0.00413838       0.00323515
Pt       8.42164176       6.48298285      22.29208057        2      -0.00116591       0.06464273       0.03390262
Pt       0.00000024      -0.00000019      24.58864061        1      -0.00000049       0.00000061       0.00205174
Pt       2.80792488       0.00285085      24.60570014        1      -0.00598036      -0.00342695       0.00132835
Pt       5.62577335      -0.01941002      24.60028325        1      -0.01051988       0.02521350      -0.01355447
Pt       1.38112496       2.43099783      24.60028333        1       0.02709597      -0.00349735      -0.01355377
Pt       4.21082104       2.43111847      24.65962109        1      -0.00000319       0.00000075       0.02953836
Pt       7.01521020       2.43030832      24.60570026        1       0.00596030      -0.00346503       0.00132935
Pt       2.80932769       4.86019604      24.60569998        1       0.00002086       0.00689257       0.00132920
Pt       5.62556473       4.88176753      24.60028330        1      -0.01657702      -0.02171770      -0.01355347
Pt       8.42164168       4.86223690      24.58918336        1       0.00000164       0.00000051      -0.00003880
N        4.21081949       2.43111889      26.72769320        0       0.00010547      -0.00003481       0.01213712
H        3.72457348       3.27090090      27.05203542        0      -0.01181132       0.01800554      -0.01451670
H        5.18121853       2.43232993      27.05203598        0       0.02138171       0.00122577      -0.01455380
H        3.72667147       1.59012453      27.05203584        0      -0.00967392      -0.01919761      -0.01452847
