31
Lattice="8.421641763931781 0.0 0.0 4.2108208819658905 7.293355709136913 0.0 0.0 0.0 44.584161137365626" Properties=species:S:1:pos:R:3:tags:I:1:forces:R:3 energy=-172.57716369628906 free_energy=-172.57716369628906 stress="0.010478955693542957 -5.131126190605073e-09 4.924520791149689e-10 -5.131126190605073e-09 0.010478965938091278 -5.74073943937492e-09 4.924520791149689e-10 -5.74073943937492e-09 -0.0001822228223318234" pbc="T T T"
Pt       1.40360696       0.81037286      20.00000000        3      -0.00091210       0.00070167      -0.00487068
Pt       4.21082088       0.81037286      20.00000000        3      -0.00008670       0.00047802      -0.00420728
Pt       7.01803480       0.81037286      20.00000000        3       0.00106367       0.00043604      -0.00487196
Pt       2.80721392       3.24149143      20.00000000        3       0.00004305       0.00008924       0.00331879
Pt       5.61442784       3.24149143      20.00000000        3      -0.00010054      -0.00000901       0.00331905
Pt       8.42164176       3.24149143      20.00000000        3      -0.00015228      -0.00114229      -0.00487241
Pt       4.21082088       5.67261000      20.00000000        3       0.00005976      -0.00007973       0.00331914
Pt       7.01803480       5.67261000      20.00000000        3      -0.00037341      -0.00031363      -0.00420916
Pt       9.82524872       5.67261000      20.00000000        3       0.00045869      -0.00016073      -0.00420821
Pt      -0.00000000       1.62074571      22.29208057        2       0.00000174      -0.00000015      -0.05327244
Pt       2.80721392       1.62074571      22.29208057        2       0.02598452       0.03246945      -0.00567579
Pt       5.61442784       1.62074571      22.29208057        2      -0.02727211       0.03339294      -0.00389153
Pt       1.40360696       4.05186428      22.29208057        2       0.04255672       0.00691869      -0.00389115
Pt       4.21082088       4.05186428      22.29208057        2       0.00000161      -0.00000122       0.05031648
Pt       7.01803480       4.05186428      22.29208057        2      -0.04111489       0.00626685      -0.00567380
Pt       2.80721392       6.48298285      22.29208057        2       0.01512746      -0.03873696      -0.00567778
Pt       5.61442784       6.48298285      22.29208057        2      -0.01528500      -0.04031280      -0.00389421
Pt       8.42164176       6.48298285      22.29208057        2       0.00000057       0.00000336      -0.03515442
Pt       0.00049535       0.00689224      24.57902236        1       0.00323625      -0.01788715      -0.00409758
Pt       2.80833629      -0.00153376      24.57707624        1      -0.00738568      -0.00062392      -0.00708407
Pt       5.61253836      -0.00020512      24.57707621        1       0.00315289       0.00670791      -0.00708470
Pt       1.39739047       2.42810111      24.57902262        1       0.01387365       0.01174704      -0.00410697
Pt       4.20822960       2.41651286      24.58942612        1      -0.00550863       0.02318229       0.00538465
Pt       7.02375600       2.42724351      24.57902267        1      -0.01710955       0.00614157      -0.00410643
Pt       2.79586086       4.87178428      24.58942626        1       0.02283026      -0.00682151       0.00538494
Pt       5.62837239       4.86729581      24.58942609        1      -0.01732096      -0.01636178       0.00538407
Pt       8.42240864       4.86397609      24.57707645        1       0.00423127      -0.00608452      -0.00708228
N        4.21082083       4.05186402      27.59415628        0       0.00000148       0.00002940       0.00236878
H        3.73407800       4.86794409      27.19876095        0      -0.00864686      -0.03274001       0.03305227
H        5.15593784       4.05669567      27.19876096        0      -0.02401160       0.02386029       0.03304613
H        3.74244674       3.23095357      27.19876105        0       0.03265674       0.00885074       0.03303874
