31
Lattice="8.421641763931781 0.0 0.0 4.2108208819658905 7.293355709136913 0.0 0.0 0.0 44.584161137365626" Properties=species:S:1:pos:R:3:tags:I:1:forces:R:3 energy=-172.59942626953125 free_energy=-172.59942626953125 stress="0.01052538026124239 -7.168535542945165e-09 7.11944192488545e-09 -7.168535542945165e-09 0.010525385849177837 -1.197121013429836e-10 7.11944192488545e-09 -1.197121013429836e-10 1.6061501355579821e-06" pbc="T T T"
Pt       1.40360696       0.81037286      20.00000000        3      -0.00089291       0.00051351      -0.00636744
Pt       4.21082088       0.81037286      20.00000000        3       0.00000209       0.00103852      -0.00327447
Pt       7.01803480       0.81037286      20.00000000        3       0.00089131       0.00051359      -0.00636786
Pt       2.80721392       3.24149143      20.00000000        3       0.00061444       0.00035352       0.00581136
Pt       5.61442784       3.24149143      20.00000000        3      -0.00061482       0.00035372       0.00581139
Pt       8.42164176       3.24149143      20.00000000        3       0.00000124      -0.00103147      -0.00636917
Pt       4.21082088       5.67261000      20.00000000        3       0.00000205      -0.00070628       0.00581175
Pt       7.01803480       5.67261000      20.00000000        3      -0.00090248      -0.00051753      -0.00327611
Pt       9.82524872       5.67261000      20.00000000        3       0.00089923      -0.00051704      -0.00327650
Pt      -0.00000000       1.62074571      22.29208057        2       0.00000188      -0.00000234      -0.05875538
Pt       2.80721392       1.62074571      22.29208057        2       0.03870241       0.04042577       0.00523384
Pt       5.61442784       1.62074571      22.29208057        2      -0.03870383       0.04042557       0.00523241
Pt       1.40360696       4.05186428      22.29208057        2       0.05436355       0.01330275       0.00523485
Pt       4.21082088       4.05186428      22.29208057        2       0.00000121      -0.00000031       0.06418608
Pt       7.01803480       4.05186428      22.29208057        2      -0.05436459       0.01330287       0.00523298
Pt       2.80721392       6.48298285      22.29208057        2       0.01566096      -0.05372898       0.00523421
Pt       5.61442784       6.48298285      22.29208057        2      -0.01566241      -0.05372847       0.00523309
Pt       8.42164176       6.48298285      22.29208057        2       0.00000147       0.00000307      -0.03006228
Pt       0.00000022       0.00735049      24.57767255        1       0.00000019      -0.01971516      -0.00594932
Pt       2.80860780      -0.00080477      24.57666910        1      -0.00477812       0.00275860      -0.00865483
Pt       5.61303382      -0.00080473      24.57666900        1       0.00477798       0.00275758      -0.00865591
Pt       1.39724125       2.42744315      24.57767276        1       0.01707449       0.00985737      -0.00594902
Pt       4.21082094       2.41886770      24.59704324        1      -0.00000108       0.01958288       0.02003947
Pt       7.02440046       2.42744326      24.57767260        1      -0.01707311       0.00985691      -0.00594759
Pt       2.79660446       4.86836252      24.59704341        1       0.01695824      -0.00979077       0.02004078
Pt       5.62503737       4.86836257      24.59704330        1      -0.01695932      -0.00978985       0.02003947
Pt       8.42164172       4.86384682      24.57666928        1       0.00000072      -0.00551748      -0.00865373
N        4.21082136       4.05186424      27.59093157        0      -0.00004467       0.00001040      -0.03129378
H        3.39213906       4.52453041      27.19264415        0       0.02519408      -0.01454491       0.00658239
H        5.02950210       4.52453008      27.19264432        0      -0.02515134      -0.01452175       0.00656165
H        4.21082087       3.10653247      27.19264424        0       0.00000130       0.02905567       0.00656786
