31
Lattice="8.421641763931781 0.0 0.0 4.2108208819658905 7.293355709136913 0.0 0.0 0.0 44.584161137365626" Properties=species:S:1:pos:R:3:tags:I:1:forces:R:3 energy=-172.80076599121094 free_energy=-172.80076599121094 stress="0.010380446910858154 -7.539822100000038e-09 2.8145947794655513e-09 -7.539822100000038e-09 0.010380455292761326 2.0840789094478396e-09 2.8145947794655513e-09 2.0840789094478396e-09 0.0001381368492729962" pbc="T T T"
Pt       1.40360696       0.81037286      20.00000000        3       0.00000112      -0.00000244      -0.00917083
Pt       4.21082088       0.81037286      20.00000000        3      -0.00208521       0.00282879       0.00179443
Pt       7.01803480       0.81037286      20.00000000        3       0.00175440       0.00301211       0.00177988
Pt       2.80721392       3.24149143      20.00000000        3       0.00173286      -0.00302933       0.00177965
Pt       5.61442784       3.24149143      20.00000000        3      -0.00000188      -0.00000010       0.03523126
Pt       8.42164176       3.24149143      20.00000000        3      -0.00140640      -0.00322175       0.00179219
Pt       4.21082088       5.67261000      20.00000000        3       0.00349660       0.00039315       0.00179306
Pt       7.01803480       5.67261000      20.00000000        3      -0.00349099       0.00001720       0.00177974
Pt       9.82524872       5.67261000      20.00000000        3      -0.00000114       0.00000228      -0.01458314
Pt      -0.00000000       1.62074571      22.29208057        2      -0.13852483       0.08505847       0.03908489
Pt       2.80721392       1.62074571      22.29208057        2       0.14292912       0.07743529       0.03908385
Pt       5.61442784       1.62074571      22.29208057        2       0.00085091       0.12744156       0.05055415
Pt       1.40360696       4.05186428      22.29208057        2      -0.00003810      -0.03187996      -0.06163199
Pt       4.21082088       4.05186428      22.29208057        2       0.10994371      -0.06446062       0.05055483
Pt       7.01803480       4.05186428      22.29208057        2      -0.11079838      -0.06298240       0.05055584
Pt       2.80721392       6.48298285      22.29208057        2       0.02762952       0.01590669      -0.06163182
Pt       5.61442784       6.48298285      22.29208057        2      -0.00440307      -0.16249724       0.03908551
Pt       8.42164176       6.48298285      22.29208057        2      -0.02758800       0.01597754      -0.06163184
Pt      -0.00140351       0.00421309      24.56545406        1       0.02556384      -0.01175871      -0.00534290
Pt       2.80426728      -0.00332175      24.56545455        1      -0.00260260       0.02800841      -0.00534293
Pt       5.61297137      -0.00628020      24.56941905        1      -0.00357400      -0.02453360      -0.00743774
Pt       1.40795740       2.43022728      24.56545435        1      -0.02296121      -0.01625668      -0.00534177
Pt       4.18803199       2.41474991      24.61814896        1      -0.00378709       0.01516883      -0.00885409
Pt       7.04360482       2.41956656      24.61814879        1      -0.01124332      -0.01086060      -0.00885404
Pt       2.80250322       4.86663845      24.56941913        1      -0.01945812       0.01536043      -0.00743662
Pt       5.61164687       4.89015615      24.61814905        1       0.01503091      -0.00429857      -0.00885498
Pt       8.42780848       4.86411598      24.56941930        1       0.02303090       0.00917096      -0.00743566
N        5.61442839       3.24149172      26.94314750        0      -0.00002547      -0.00001950      -0.00859305
H        5.77358935       4.17742245      26.52136706        0      -0.02446467      -0.00381823      -0.01091611
H        6.34538544       2.63568651      26.52136441        0       0.00892636       0.02313852      -0.01091008
H        4.72430704       2.91136732      26.52136458        0       0.01556432      -0.01930051      -0.01089967
