31
Lattice="8.421641763931781 0.0 0.0 4.2108208819658905 7.293355709136913 0.0 0.0 0.0 44.584161137365626" Properties=species:S:1:pos:R:3:tags:I:1:forces:R:3 energy=-172.76075744628906 free_energy=-172.76075744628906 stress="0.010433976538479328 5.5519340094178915e-05 -6.431070505641401e-05 5.5519340094178915e-05 0.010335422120988369 0.0001229068438988179 -6.431070505641401e-05 0.0001229068438988179 0.0001139742016675882" pbc="T T T"
Pt       1.40360696       0.81037286      20.00000000        3      -0.00184140       0.00191381       0.00243187
Pt       4.21082088       0.81037286      20.00000000        3       0.00130332       0.00326614       0.00365916
Pt       7.01803480       0.81037286      20.00000000        3       0.00027791      -0.00058275      -0.00557962
Pt       2.80721392       3.24149143      20.00000000        3       0.00240627      -0.00058209       0.03803527
Pt       5.61442784       3.24149143      20.00000000        3      -0.00120612      -0.00307406       0.01904336
Pt       8.42164176       3.24149143      20.00000000        3       0.00102290      -0.00356173       0.00178638
Pt       4.21082088       5.67261000      20.00000000        3      -0.00232137      -0.00032917       0.01665264
Pt       7.01803480       5.67261000      20.00000000        3      -0.00209389      -0.00238023      -0.00506598
Pt       9.82524872       5.67261000      20.00000000        3       0.00342438      -0.00187585       0.00241345
Pt      -0.00000000       1.62074571      22.29208057        2       0.05290915       0.04726363      -0.06476944
Pt       2.80721392       1.62074571      22.29208057        2       0.08145174       0.11704688       0.03078606
Pt       5.61442784       1.62074571      22.29208057        2      -0.15735896       0.12324999       0.05174647
Pt       1.40360696       4.05186428      22.29208057        2       0.10646434       0.01139325      -0.00417372
Pt       4.21082088       4.05186428      22.29208057        2      -0.04700146      -0.05245582       0.03637948
Pt       7.01803480       4.05186428      22.29208057        2      -0.06485600      -0.00048863      -0.03371495
Pt       2.80721392       6.48298285      22.29208057        2       0.01159820      -0.14118916       0.02495607
Pt       5.61442784       6.48298285      22.29208057        2      -0.03644757      -0.02712619      -0.03812048
Pt       8.42164176       6.48298285      22.29208057        2       0.00854071       0.02035830      -0.05837072
Pt       0.00159665       0.03238871      24.57077813        1       0.00283454       0.00790762      -0.00210708
Pt       2.80145270       0.00780953      24.56933693        1      -0.01226112       0.00011203      -0.00238368
Pt       5.61396762       0.01498171      24.55989872        1       0.01102321      -0.02585282       0.00331742
Pt       1.39694933       2.45529886      24.60469657        1       0.01565000       0.01114133       0.00362098
Pt       4.23407193       2.41373620      24.62962430        1      -0.00357021       0.00263010       0.02444869
Pt       7.02731129       2.44510303      24.57114059        1       0.00707330       0.00574830      -0.00351375
Pt       2.79279823       4.90950142      24.62028486        1       0.00666574      -0.01134446       0.01261677
Pt       5.60677692       4.88539780      24.60377373        1      -0.01486888      -0.00685577       0.00149927
Pt       8.40493171       4.88241421      24.56952059        1      -0.00627908      -0.00474918      -0.00144431
N        3.49336993       3.66187964      26.89483492        0       0.01185711      -0.02346255      -0.01387694
H        3.99027051       2.80112247      26.58755726        0       0.02333850      -0.04001807      -0.00394100
H        2.60272515       3.56764553      26.35178483        0      -0.02692012      -0.01998640      -0.01947060
H        4.02008918       4.38596632      26.35085610        0       0.02918471       0.01388387      -0.01686132
