31
Lattice="8.421641763931781 0.0 0.0 4.2108208819658905 7.293355709136913 0.0 0.0 0.0 44.584161137365626" Properties=species:S:1:pos:R:3:tags:I:1:forces:R:3 energy=-173.71029663085938 free_energy=-173.71029663085938 stress="0.010712286457419395 1.0969650743319903e-09 3.558279226822947e-09 1.0969650743319903e-09 0.010712306015193462 2.0215020768432623e-09 3.558279226822947e-09 2.0215020768432623e-09 4.433154117577942e-06" pbc="T T T"
Pt       1.40360696       0.81037286      20.00000000        3      -0.00266633      -0.00154257      -0.00639078
Pt       4.21082088       0.81037286      20.00000000        3       0.00000185       0.00475248       0.01275331
Pt       7.01803480       0.81037286      20.00000000        3       0.00266463      -0.00154260      -0.00639182
Pt       2.80721392       3.24149143      20.00000000        3       0.00411861      -0.00237799       0.01275107
Pt       5.61442784       3.24149143      20.00000000        3      -0.00411945      -0.00237735       0.01275176
Pt       8.42164176       3.24149143      20.00000000        3       0.00000123      -0.00611696      -0.00948474
Pt       4.21082088       5.67261000      20.00000000        3       0.00000236       0.00308109      -0.00639135
Pt       7.01803480       5.67261000      20.00000000        3      -0.00529996       0.00306143      -0.00948384
Pt       9.82524872       5.67261000      20.00000000        3       0.00529709       0.00306158      -0.00948331
Pt      -0.00000000       1.62074571      22.29208057        2       0.00000222       0.00789910      -0.00154162
Pt       2.80721392       1.62074571      22.29208057        2       0.07011850       0.04048087      -0.02523512
Pt       5.61442784       1.62074571      22.29208057        2      -0.07011978       0.04048090      -0.02523626
Pt       1.40360696       4.05186428      22.29208057        2       0.05494184      -0.03172028       0.03027375
Pt       4.21082088       4.05186428      22.29208057        2       0.00000174      -0.08096493      -0.02523573
Pt       7.01803480       4.05186428      22.29208057        2      -0.05494327      -0.03171906       0.03027519
Pt       2.80721392       6.48298285      22.29208057        2      -0.00684138      -0.00394973      -0.00154272
Pt       5.61442784       6.48298285      22.29208057        2       0.00684188      -0.00394929      -0.00154242
Pt       8.42164176       6.48298285      22.29208057        2       0.00000038       0.06344241       0.03027285
Pt       0.00000039      -0.00000013      24.58865144        1       0.00000017      -0.00000135       0.00399327
Pt       2.80209559      -0.00718398      24.60119135        1       0.00588081      -0.00190721      -0.00084965
Pt       5.61954666      -0.00718412      24.60119112        1      -0.00588208      -0.00190605      -0.00084935
Pt       1.39482650       2.43027732      24.60119100        1       0.00129191       0.00604471      -0.00084840
Pt       4.21082140       2.43111858      24.66375237        1      -0.00000402      -0.00000134       0.01511362
Pt       7.02681553       2.43027733      24.60119137        1      -0.00128820       0.00604652      -0.00084792
Pt       2.80355223       4.87026166      24.60119090        1      -0.00459004      -0.00413921      -0.00084893
Pt       5.61808980       4.87026183      24.60119141        1       0.00459304      -0.00413717      -0.00084947
Pt       8.42164188       4.86223685      24.58850429        1      -0.00000441       0.00000097       0.00131413
N        4.21082075       2.43111814      26.73316096        0       0.00001132       0.00004146      -0.02632862
H        5.05319224       1.94477523      27.05193524        0      -0.02554734       0.01474884       0.00329722
H        3.36844966       1.94477508      27.05193467        0       0.02553849       0.01474606       0.00329975
H        4.21082093       3.40380574      27.05193559        0      -0.00000194      -0.02953525       0.00328606
