31
Lattice="8.421641763931781 0.0 0.0 4.2108208819658905 7.293355709136913 0.0 0.0 0.0 44.584161137365626" Properties=species:S:1:pos:R:3:tags:I:1:forces:R:3 energy=-172.80612182617188 free_energy=-172.80612182617188 stress="0.01021502260118723 -7.321099282364685e-10 2.4008739440972704e-09 -7.321099282364685e-10 0.010215001180768013 1.4664732539415581e-08 2.4008739440972704e-09 1.4664732539415581e-08 -7.90358753874898e-05" pbc="T T T"
Pt       1.40360696       0.81037286      20.00000000        3       0.00000083      -0.00000230      -0.01100308
Pt       4.21082088       0.81037286      20.00000000        3      -0.00200896       0.00319069       0.00015005
Pt       7.01803480       0.81037286      20.00000000        3       0.00200802       0.00318999       0.00014856
Pt       2.80721392       3.24149143      20.00000000        3       0.00176014      -0.00333849       0.00014880
Pt       5.61442784       3.24149143      20.00000000        3      -0.00000195      -0.00000021       0.03285959
Pt       8.42164176       3.24149143      20.00000000        3      -0.00175768      -0.00333727       0.00014770
Pt       4.21082088       5.67261000      20.00000000        3       0.00377185       0.00014689       0.00014904
Pt       7.01803480       5.67261000      20.00000000        3      -0.00377182       0.00014836       0.00014800
Pt       9.82524872       5.67261000      20.00000000        3      -0.00000089       0.00000258      -0.01574731
Pt      -0.00000000       1.62074571      22.29208057        2      -0.14542304       0.08395897       0.01005685
Pt       2.80721392       1.62074571      22.29208057        2       0.14542675       0.08396009       0.01005713
Pt       5.61442784       1.62074571      22.29208057        2      -0.00000302       0.12772736       0.03249395
Pt       1.40360696       4.05186428      22.29208057        2       0.00000118      -0.03007328      -0.07678556
Pt       4.21082088       4.05186428      22.29208057        2       0.11061746      -0.06386477       0.03249478
Pt       7.01803480       4.05186428      22.29208057        2      -0.11061893      -0.06386464       0.03249527
Pt       2.80721392       6.48298285      22.29208057        2       0.02604430       0.01503722      -0.07678623
Pt       5.61442784       6.48298285      22.29208057        2      -0.00000152      -0.16792032       0.01005571
Pt       8.42164176       6.48298285      22.29208057        2      -0.02604260       0.01503963      -0.07678670
Pt       0.00393413       0.00227105      24.56060027        1      -0.01717318      -0.00991651       0.01756860
Pt       2.80328024       0.00227121      24.56060030        1       0.01717297      -0.00991526       0.01756988
Pt       5.61442782      -0.00512069      24.56477964        1      -0.00000103      -0.03940628       0.01025133
Pt       1.40360707       2.42657597      24.56060073        1       0.00000186       0.01983067       0.01757064
Pt       4.18586870       2.41671213      24.61159905        1       0.00751216       0.00433788       0.00178399
Pt       7.04298692       2.41671210      24.61159962        1      -0.00751349       0.00433882       0.00178546
Pt       2.80277951       4.86479733      24.56477918        1      -0.03412526       0.01970328       0.01025186
Pt       5.61442774       4.89104967      24.61159867        1       0.00000047      -0.00867645       0.00178474
Pt       8.42607608       4.86479734      24.56477948        1       0.03412566       0.01970315       0.01025240
N        5.61442801       3.24149211      26.93137516        0      -0.00001678      -0.00008987       0.00367993
H        4.79294767       2.76720956      26.50980248        0      -0.02253522      -0.01300547       0.00108534
H        5.61442778       4.19005408      26.50980300        0       0.00000264       0.02610600       0.00104218
H        6.43590769       2.76720964      26.50980279        0       0.02254912      -0.01301053       0.00107728
