31
Lattice="8.421641763931781 0.0 0.0 4.2108208819658905 7.293355709136913 0.0 0.0 0.0 44.584161137365626" Properties=species:S:1:pos:R:3:tags:I:1:forces:R:3 energy=-172.64517211914062 free_energy=-172.64517211914062 stress="0.010424414649605751 -5.215293086280326e-09 -1.033741181544201e-08 -5.215293086280326e-09 0.010424422100186348 -1.360364820790494e-09 -1.033741181544201e-08 -1.360364820790494e-09 -8.762207471590955e-06" pbc="T T T"
Pt       1.40360696       0.81037286      20.00000000        3      -0.00203229       0.00117095       0.00089681
Pt       4.21082088       0.81037286      20.00000000        3       0.00000188       0.00398858       0.00066870
Pt       7.01803480       0.81037286      20.00000000        3       0.00203018       0.00117164       0.00089642
Pt       2.80721392       3.24149143      20.00000000        3       0.00027476       0.00015740       0.02934420
Pt       5.61442784       3.24149143      20.00000000        3      -0.00027514       0.00015747       0.02934465
Pt       8.42164176       3.24149143      20.00000000        3       0.00000143      -0.00234702       0.00089526
Pt       4.21082088       5.67261000      20.00000000        3       0.00000205      -0.00031454       0.02934498
Pt       7.01803480       5.67261000      20.00000000        3      -0.00345756      -0.00199277       0.00066733
Pt       9.82524872       5.67261000      20.00000000        3       0.00345464      -0.00199219       0.00066769
Pt      -0.00000000       1.62074571      22.29208057        2       0.00000163      -0.00000195      -0.06579354
Pt       2.80721392       1.62074571      22.29208057        2       0.07618695       0.08602938      -0.01590342
Pt       5.61442784       1.62074571      22.29208057        2      -0.07618809       0.08602928      -0.01590361
Pt       1.40360696       4.05186428      22.29208057        2       0.11259878       0.02296343      -0.01590221
Pt       4.21082088       4.05186428      22.29208057        2       0.00000105      -0.00000025       0.00991563
Pt       7.01803480       4.05186428      22.29208057        2      -0.11260130       0.02296374      -0.01590251
Pt       2.80721392       6.48298285      22.29208057        2       0.03641268      -0.10899341      -0.01590257
Pt       5.61442784       6.48298285      22.29208057        2      -0.03641362      -0.10899283      -0.01590374
Pt       8.42164176       6.48298285      22.29208057        2       0.00000121       0.00000307      -0.07842056
Pt       0.00000026       0.00666490      24.58204417        1      -0.00000071      -0.00462932      -0.00813292
Pt       2.80894237      -0.00099807      24.55968898        1       0.00141952      -0.00082047       0.02566740
Pt       5.61269934      -0.00099810      24.55968914        1      -0.00141996      -0.00082116       0.02566628
Pt       1.39783494       2.42778588      24.58204448        1       0.00400925       0.00231462      -0.00813225
Pt       4.21082087       2.40933271      24.62282364        1       0.00000077       0.01740585       0.04149508
Pt       7.02380680       2.42778584      24.58204446        1      -0.00400834       0.00231394      -0.00813176
Pt       2.78834705       4.87312990      24.62282342        1       0.01507242      -0.00870215       0.04149447
Pt       5.63329470       4.87312997      24.62282377        1      -0.01507406      -0.00870270       0.04149705
Pt       8.42164168       4.86423271      24.55968902        1       0.00000208       0.00164076       0.02566804
N        4.21082032       4.05186400      26.88201582        0       0.00004491       0.00000530      -0.01737531
H        3.41651729       3.59327279      26.36754975        0      -0.01716983      -0.00991087      -0.00758851
H        4.21082112       4.96904767      26.36755037        0      -0.00000330       0.01979673      -0.00757325
H        5.00512524       3.59327241      26.36755033        0       0.01712815      -0.00989064      -0.00756344
