31
Lattice="8.421641763931781 0.0 0.0 4.2108208819658905 7.293355709136913 0.0 0.0 0.0 44.584161137365626" Properties=species:S:1:pos:R:3:tags:I:1:forces:R:3 energy=-172.76148986816406 free_energy=-172.76148986816406 stress="0.010429884307086468 -6.296390347415581e-05 7.343065226450562e-05 -6.296390347415581e-05 0.010315758176147938 0.00012294448970351368 7.343065226450562e-05 0.00012294448970351368 3.076175562455319e-05" pbc="T T T"
Pt       1.40360696       0.81037286      20.00000000        3      -0.00047600      -0.00077005      -0.00353763
Pt       4.21082088       0.81037286      20.00000000        3      -0.00090887       0.00282851       0.00399941
Pt       7.01803480       0.81037286      20.00000000        3       0.00162664       0.00158383       0.00321832
Pt       2.80721392       3.24149143      20.00000000        3       0.00094695      -0.00318477       0.01940855
Pt       5.61442784       3.24149143      20.00000000        3      -0.00306241      -0.00048894       0.03659791
Pt       8.42164176       3.24149143      20.00000000        3      -0.00117380      -0.00337184       0.00237715
Pt       4.21082088       5.67261000      20.00000000        3       0.00232265       0.00035204       0.01590616
Pt       7.01803480       5.67261000      20.00000000        3      -0.00311097      -0.00222661       0.00172171
Pt       9.82524872       5.67261000      20.00000000        3       0.00204184      -0.00214494      -0.00485706
Pt      -0.00000000       1.62074571      22.29208057        2      -0.04896583       0.04778290      -0.05669890
Pt       2.80721392       1.62074571      22.29208057        2       0.15306529       0.12236014       0.06492534
Pt       5.61442784       1.62074571      22.29208057        2      -0.08330749       0.10966264       0.02739035
Pt       1.40360696       4.05186428      22.29208057        2       0.06686406      -0.00514688      -0.03392550
Pt       4.21082088       4.05186428      22.29208057        2       0.04418004      -0.05819385       0.02686769
Pt       7.01803480       4.05186428      22.29208057        2      -0.09625170       0.01339521      -0.01966856
Pt       2.80721392       6.48298285      22.29208057        2       0.03806684      -0.02117156      -0.04282255
Pt       5.61442784       6.48298285      22.29208057        2      -0.01367416      -0.12855199       0.01836622
Pt       8.42164176       6.48298285      22.29208057        2      -0.00248702       0.02219991      -0.05894642
Pt      -0.00262699       0.03571794      24.57289296        1       0.00850182       0.02079618      -0.01404722
Pt       2.80852582       0.00987546      24.55895352        1      -0.01008264       0.01002955       0.00540607
Pt       5.62511513       0.00596954      24.57091171        1       0.00031803       0.00412215      -0.01211898
Pt       1.39155222       2.44797555      24.57390690        1       0.00773062      -0.01387531      -0.02147542
Pt       4.18745753       2.40807013      24.62803419        1      -0.02204067      -0.00868612      -0.01593149
Pt       7.01851638       2.46369068      24.60179821        1       0.02623856      -0.03252480       0.00962238
Pt       2.82550679       4.88485044      24.60072248        1      -0.01981296      -0.00962429       0.01102248
Pt       5.63359109       4.91211429      24.61623064        1      -0.01561542       0.00424015       0.00466061
Pt       8.44499610       4.88317376      24.57063944        1       0.00721452      -0.00116369      -0.00685704
N        4.93078879       3.65243886      26.87165588        0      -0.01585654      -0.02780395       0.02699733
H        4.40298490       4.38029685      26.33079145        0       0.00546506      -0.02761193      -0.00592697
H        5.82203125       3.55235979      26.32759674        0      -0.02333432      -0.01027573       0.00017819
H        4.42821824       2.79163373      26.56867183        0      -0.00442196      -0.00253606       0.01814781
