31
Lattice="8.421641763931781 0.0 0.0 4.2108208819658905 7.293355709136913 0.0 0.0 0.0 44.584161137365626" Properties=species:S:1:pos:R:3:tags:I:1:forces:R:3 energy=-173.71034240722656 free_energy=-173.71034240722656 stress="0.010695261880755424 -2.0044444326572375e-08 1.0499635827443399e-08 -2.0044444326572375e-08 0.010695284232497215 3.4825338168786857e-09 1.0499635827443399e-08 3.4825338168786857e-09 3.031596861546859e-06" pbc="T T T"
Pt       1.40360696       0.81037286      20.00000000        3      -0.00281423      -0.00162787      -0.00614440
Pt       4.21082088       0.81037286      20.00000000        3       0.00000178       0.00467931       0.01237330
Pt       7.01803480       0.81037286      20.00000000        3       0.00281226      -0.00162715      -0.00614482
Pt       2.80721392       3.24149143      20.00000000        3       0.00405448      -0.00234018       0.01237279
Pt       5.61442784       3.24149143      20.00000000        3      -0.00405539      -0.00234048       0.01237270
Pt       8.42164176       3.24149143      20.00000000        3       0.00000153      -0.00599282      -0.00957966
Pt       4.21082088       5.67261000      20.00000000        3       0.00000193       0.00325146      -0.00614393
Pt       7.01803480       5.67261000      20.00000000        3      -0.00519260       0.00299889      -0.00957939
Pt       9.82524872       5.67261000      20.00000000        3       0.00518956       0.00299901      -0.00957868
Pt      -0.00000000       1.62074571      22.29208057        2       0.00000217       0.00510726      -0.00152478
Pt       2.80721392       1.62074571      22.29208057        2       0.06926586       0.03998859      -0.02598234
Pt       5.61442784       1.62074571      22.29208057        2      -0.06926740       0.03998984      -0.02598263
Pt       1.40360696       4.05186428      22.29208057        2       0.05423579      -0.03131195       0.02821783
Pt       4.21082088       4.05186428      22.29208057        2       0.00000251      -0.07998077      -0.02598202
Pt       7.01803480       4.05186428      22.29208057        2      -0.05423678      -0.03131153       0.02821868
Pt       2.80721392       6.48298285      22.29208057        2      -0.00442298      -0.00255416      -0.00152492
Pt       5.61442784       6.48298285      22.29208057        2       0.00442327      -0.00255379      -0.00152472
Pt       8.42164176       6.48298285      22.29208057        2       0.00000093       0.06262667       0.02821752
Pt       0.00000068       0.00000032      24.59012648        1       0.00000268      -0.00000300      -0.00373933
Pt       2.80236853      -0.00774541      24.60058556        1       0.00342295       0.00355885       0.00236546
Pt       5.61927443      -0.00774465      24.60058542        1      -0.00342770       0.00355735       0.00236547
Pt       1.39447677       2.43079472      24.60058595        1       0.00479655       0.00118293       0.00236619
Pt       4.21082050       2.43111790      24.66290836        1      -0.00000451      -0.00000040       0.02308360
Pt       7.02716521       2.43079467      24.60058590        1      -0.00479686       0.00118543       0.00236624
Pt       2.80293012       4.87030670      24.60058556        1       0.00137182      -0.00474495       0.00236547
Pt       5.61871302       4.87030597      24.60058562        1      -0.00137286      -0.00474278       0.00236507
Pt       8.42164188       4.86223716      24.58918451        1      -0.00000136       0.00000319      -0.00196588
N        4.21081765       2.43111736      26.73258745        0       0.00011587       0.00003822      -0.02151936
H        3.36932379       1.94528029      27.05342830        0       0.00944948       0.00545621      -0.00069476
H        4.21081954       3.40279474      27.05342406        0      -0.00000226      -0.01100689      -0.00071543
H        5.05231683       1.94527953      27.05342445        0      -0.00955661       0.00551535      -0.00072371
