31
Lattice="8.421641763931781 0.0 0.0 4.2108208819658905 7.293355709136913 0.0 0.0 0.0 44.584161137365626" Properties=species:S:1:pos:R:3:tags:I:1:forces:R:3 energy=-172.65194702148438 free_energy=-172.65194702148438 stress="0.010527057573199272 -1.4838029693819976e-09 3.7381524542468014e-09 -1.4838029693819976e-09 0.01052707340568304 5.387044588189838e-09 3.7381524542468014e-09 5.387044588189838e-09 0.00012937391875311732" pbc="T T T"
Pt       1.40360696       0.81037286      20.00000000        3       0.00000086      -0.00000246      -0.00398779
Pt       4.21082088       0.81037286      20.00000000        3      -0.00164517       0.00305821       0.01139057
Pt       7.01803480       0.81037286      20.00000000        3       0.00164438       0.00305754       0.01138929
Pt       2.80721392       3.24149143      20.00000000        3       0.00182757      -0.00295655       0.01138875
Pt       5.61442784       3.24149143      20.00000000        3      -0.00000199       0.00000008       0.04826519
Pt       8.42164176       3.24149143      20.00000000        3      -0.00182538      -0.00295560       0.01138812
Pt       4.21082088       5.67261000      20.00000000        3       0.00347585      -0.00010219       0.01139027
Pt       7.01803480       5.67261000      20.00000000        3      -0.00347557      -0.00010109       0.01138878
Pt       9.82524872       5.67261000      20.00000000        3      -0.00000078       0.00000277      -0.00338668
Pt      -0.00000000       1.62074571      22.29208057        2      -0.12622358       0.07287376       0.01767055
Pt       2.80721392       1.62074571      22.29208057        2       0.12622634       0.07287495       0.01767123
Pt       5.61442784       1.62074571      22.29208057        2      -0.00000288       0.09584604      -0.00172967
Pt       1.40360696       4.05186428      22.29208057        2       0.00000180      -0.01845310      -0.03356171
Pt       4.21082088       4.05186428      22.29208057        2       0.08300787      -0.04792443      -0.00172797
Pt       7.01803480       4.05186428      22.29208057        2      -0.08300968      -0.04792345      -0.00172892
Pt       2.80721392       6.48298285      22.29208057        2       0.01598170       0.00922698      -0.03356367
Pt       5.61442784       6.48298285      22.29208057        2      -0.00000192      -0.14575106       0.01767116
Pt       8.42164176       6.48298285      22.29208057        2      -0.01597929       0.00922949      -0.03356408
Pt       0.00357494       0.00206412      24.56716093        1      -0.00150734      -0.00087667      -0.00902650
Pt       2.80363915       0.00206358      24.56716122        1       0.00150843      -0.00087049      -0.00902686
Pt       5.61442795      -0.00256879      24.58162354        1      -0.00000254      -0.00450129      -0.00638348
Pt       1.40360691       2.42699035      24.56716109        1       0.00000292       0.00174504      -0.00902599
Pt       4.18471116       2.41604385      24.62652419        1       0.00349308       0.00201728      -0.00722955
Pt       7.04414460       2.41604372      24.62652442        1      -0.00349716       0.00201815      -0.00722463
Pt       2.80498938       4.86352161      24.58162306        1      -0.00389572       0.00224823      -0.00638296
Pt       5.61442797       4.89238595      24.62652439        1      -0.00000433      -0.00403148      -0.00723021
Pt       8.42386550       4.86352127      24.58162309        1       0.00390133       0.00225115      -0.00638117
N        5.61442822       3.24149174      26.85796655        0      -0.00002004      -0.00001781       0.01041208
H        4.81736039       3.70167881      26.34497134        0       0.02194962      -0.01267254       0.00038496
H        6.41149558       3.70167934      26.34497186        0      -0.02193508      -0.01267212       0.00036830
H        5.61442767       2.32111614      26.34497194        0       0.00000668       0.02536239       0.00038242
