31
Lattice="8.421641763931781 0.0 0.0 4.2108208819658905 7.293355709136913 0.0 0.0 0.0 44.584161137365626" Properties=species:S:1:pos:R:3:tags:I:1:forces:R:3 energy=-172.5946807861328 free_energy=-172.5946807861328 stress="0.010531798005104065 1.939904237246992e-09 3.797798520110973e-09 1.939904237246992e-09 0.010531850159168243 -1.6048904427634625e-08 3.797798520110973e-09 -1.6048904427634625e-08 -0.0001016307869576849" pbc="T T T"
Pt       1.40360696       0.81037286      20.00000000        3      -0.00046349       0.00026513      -0.00699055
Pt       4.21082088       0.81037286      20.00000000        3       0.00000165       0.00081133      -0.00487390
Pt       7.01803480       0.81037286      20.00000000        3       0.00046202       0.00026603      -0.00699124
Pt       2.80721392       3.24149143      20.00000000        3       0.00043655       0.00025104      -0.00006595
Pt       5.61442784       3.24149143      20.00000000        3      -0.00043740       0.00025150      -0.00006548
Pt       8.42164176       3.24149143      20.00000000        3       0.00000089      -0.00053590      -0.00699189
Pt       4.21082088       5.67261000      20.00000000        3       0.00000288      -0.00050139      -0.00006524
Pt       7.01803480       5.67261000      20.00000000        3      -0.00070638      -0.00040398      -0.00487569
Pt       9.82524872       5.67261000      20.00000000        3       0.00070298      -0.00040365      -0.00487548
Pt      -0.00000000       1.62074571      22.29208057        2       0.00000190      -0.00000033      -0.05401724
Pt       2.80721392       1.62074571      22.29208057        2       0.02140864       0.02138996      -0.00027621
Pt       5.61442784       1.62074571      22.29208057        2      -0.02140993       0.02138942      -0.00027679
Pt       1.40360696       4.05186428      22.29208057        2       0.02923007       0.00784302      -0.00027604
Pt       4.21082088       4.05186428      22.29208057        2       0.00000175      -0.00000120       0.04414029
Pt       7.01803480       4.05186428      22.29208057        2      -0.02923189       0.00784355      -0.00027271
Pt       2.80721392       6.48298285      22.29208057        2       0.00782115      -0.02923419      -0.00027852
Pt       5.61442784       6.48298285      22.29208057        2      -0.00782109      -0.02923497      -0.00027949
Pt       8.42164176       6.48298285      22.29208057        2       0.00000027       0.00000197      -0.03138787
Pt       0.00000116       0.00768585      24.57860649        1      -0.00000460      -0.03943698       0.01256400
Pt       2.80961389      -0.00138598      24.57829566        1      -0.01536679       0.00887197       0.00745407
Pt       5.61202786      -0.00138656      24.57829554        1       0.01537009       0.00887644       0.00745353
Pt       1.39695054       2.42727523      24.57860667        1       0.03415579       0.01971770       0.01255450
Pt       4.21082134       2.42801221      24.59073955        1       0.00000006      -0.02195481       0.00538674
Pt       7.02469153       2.42727452      24.57860663        1      -0.03415662       0.01972296       0.01255524
Pt       2.80452406       4.86379018      24.59073958        1      -0.01901227       0.01097621       0.00538753
Pt       5.61711676       4.86378983      24.59073976        1       0.01902064       0.01097463       0.00538608
Pt       8.42164194       4.86500776      24.57829556        1      -0.00000661      -0.01774577       0.00745481
N        4.21082104       4.05186389      27.96139839        0      -0.00003512       0.00009642       0.02143997
H        4.21082089       4.99159805      27.56270943        0       0.00000748       0.02578962      -0.00627824
H        5.02465170       3.58199741      27.56270892        0       0.02245043      -0.01294653      -0.00632754
H        3.39699007       3.58199801      27.56270876        0      -0.02242276      -0.01293930      -0.00631062
