31
Lattice="8.421641763931781 0.0 0.0 4.2108208819658905 7.293355709136913 0.0 0.0 0.0 44.584161137365626" Properties=species:S:1:pos:R:3:tags:I:1:forces:R:3 energy=-172.793212890625 free_energy=-172.793212890625 stress="0.010255727916955948 -1.0529224159228079e-09 -2.916622054982554e-09 -1.0529224159228079e-09 0.01025572419166565 7.345969943450825e-10 -2.916622054982554e-09 7.345969943450825e-10 -4.672848808695562e-05" pbc="T T T"
Pt       1.40360696       0.81037286      20.00000000        3       0.00000094      -0.00000299      -0.00486091
Pt       4.21082088       0.81037286      20.00000000        3      -0.00290400       0.00139656       0.00231531
Pt       7.01803480       0.81037286      20.00000000        3       0.00227633       0.00265981       0.00166693
Pt       2.80721392       3.24149143      20.00000000        3       0.00116692      -0.00330536       0.00166616
Pt       5.61442784       3.24149143      20.00000000        3      -0.00000211      -0.00000007       0.03026310
Pt       8.42164176       3.24149143      20.00000000        3       0.00024330      -0.00321443       0.00231227
Pt       4.21082088       5.67261000      20.00000000        3       0.00266588       0.00181899       0.00231418
Pt       7.01803480       5.67261000      20.00000000        3      -0.00344698       0.00064531       0.00166664
Pt       9.82524872       5.67261000      20.00000000        3      -0.00000113       0.00000275      -0.01544446
Pt      -0.00000000       1.62074571      22.29208057        2      -0.12471087       0.08350740       0.03022232
Pt       2.80721392       1.62074571      22.29208057        2       0.13467959       0.06624681       0.03022004
Pt       5.61442784       1.62074571      22.29208057        2       0.00400353       0.11404009       0.03494827
Pt       1.40360696       4.05186428      22.29208057        2      -0.00719740      -0.04540800      -0.07373539
Pt       4.21082088       4.05186428      22.29208057        2       0.09676229      -0.06049034       0.03494798
Pt       7.01803480       4.05186428      22.29208057        2      -0.10076889      -0.05355267       0.03494902
Pt       2.80721392       6.48298285      22.29208057        2       0.04292468       0.01647206      -0.07373691
Pt       5.61442784       6.48298285      22.29208057        2      -0.00996812      -0.14975749       0.03021923
Pt       8.42164176       6.48298285      22.29208057        2      -0.03572486       0.02894183      -0.07373744
Pt      -0.00313732       0.01189123      24.56865908        1       0.01777183      -0.02652487      -0.02491583
Pt       2.79848410      -0.00866313      24.56865854        1       0.01408865       0.02865320      -0.02491494
Pt       5.62493797      -0.01354344      24.56854414        1      -0.02909994       0.03359953      -0.00102399
Pt       1.41547495       2.42788991      24.56865849        1      -0.03186411      -0.00212726      -0.02491499
Pt       4.19313686       2.40105409      24.60715462        1      -0.01623215       0.01531082      -0.00092181
Pt       7.05291310       2.43083578      24.60715542        1      -0.00514176      -0.02171642      -0.00092084
Pt       2.79023025       4.85990655      24.56854420        1       0.04364546       0.00840111      -0.00102279
Pt       5.59723332       4.89258386      24.60715526        1       0.02137722       0.00640545      -0.00092215
Pt       8.42811468       4.87811075      24.56854495        1      -0.01454470      -0.04200114      -0.00102182
N        5.61442774       3.24149131      26.89807303        0       0.00001194      -0.00000351       0.02239922
H        4.93684872       2.58110722      26.46326687        0      -0.01295298       0.02591035       0.02065971
H        5.38130829       4.15848403      26.46326627        0       0.02891154      -0.00173306       0.02065989
H        6.52512678       2.98488299      26.46326682        0      -0.01597020      -0.02417429       0.02066374
