31
Lattice="8.421641763931781 0.0 0.0 4.2108208819658905 7.293355709136913 0.0 0.0 0.0 44.584161137365626" Properties=species:S:1:pos:R:3:tags:I:1:forces:R:3 energy=-173.70547485351562 free_energy=-173.70547485351562 stress="0.010704485699534416 1.067624270945089e-05 -0.00010893577564274892 1.067624270945089e-05 0.010628975927829742 0.0001249763008672744 -0.00010893577564274892 0.0001249763008672744 2.708655119931791e-05" pbc="T T T"
Pt       1.40360696       0.81037286      20.00000000        3      -0.00234306      -0.00083919      -0.00498769
Pt       4.21082088       0.81037286      20.00000000        3       0.00111360       0.00498387       0.01150328
Pt       7.01803480       0.81037286      20.00000000        3       0.00420029      -0.00231456      -0.00983366
Pt       2.80721392       3.24149143      20.00000000        3       0.00489518      -0.00441373       0.01770902
Pt       5.61442784       3.24149143      20.00000000        3      -0.00303352      -0.00426259       0.01721531
Pt       8.42164176       3.24149143      20.00000000        3       0.00201907      -0.00825653      -0.00743994
Pt       4.21082088       5.67261000      20.00000000        3       0.00135073       0.00297909      -0.00684950
Pt       7.01803480       5.67261000      20.00000000        3      -0.00498271       0.00118851      -0.00821841
Pt       9.82524872       5.67261000      20.00000000        3       0.00618912       0.00184683      -0.01462999
Pt      -0.00000000       1.62074571      22.29208057        2       0.00518371       0.03737719       0.00150895
Pt       2.80721392       1.62074571      22.29208057        2       0.05880992       0.05872342      -0.01796253
Pt       5.61442784       1.62074571      22.29208057        2      -0.10851946       0.08201166       0.00291122
Pt       1.40360696       4.05186428      22.29208057        2       0.04034998      -0.04209855       0.01527599
Pt       4.21082088       4.05186428      22.29208057        2      -0.00019567      -0.06068641      -0.03885136
Pt       7.01803480       4.05186428      22.29208057        2      -0.08150127      -0.01942453       0.03182419
Pt       2.80721392       6.48298285      22.29208057        2      -0.00915481       0.01427439      -0.02860720
Pt       5.61442784       6.48298285      22.29208057        2      -0.00440410      -0.00576385       0.00899688
Pt       8.42164176       6.48298285      22.29208057        2      -0.02866868       0.07680252       0.02216556
Pt      -0.01957443       0.02546830      24.58492985        1       0.02150677      -0.01350280       0.01670316
Pt       2.77843195       0.01172268      24.59947164        1       0.01782000      -0.01701726      -0.00715180
Pt       5.59788033       0.01846388      24.59392885        1      -0.00569660      -0.00757809       0.02208383
Pt       1.37977718       2.45573657      24.61022312        1       0.01231026      -0.01555426       0.00304453
Pt       4.18903913       2.44681461      24.67414144        1       0.01869886      -0.00259280      -0.00047627
Pt       7.00943765       2.45092443      24.60020050        1       0.00080427      -0.00776553      -0.01230735
Pt       2.77411829       4.90595792      24.59013659        1       0.02296730      -0.02297976       0.01048116
Pt       5.58947031       4.88541001      24.61132410        1       0.00536563      -0.01198941      -0.00266498
Pt       8.39663373       4.88357152      24.58468403        1       0.00322379      -0.00524614       0.01726535
N        4.01490035       2.73098486      26.72204817        0       0.01459926      -0.01933311       0.00983089
H        4.48872377       3.60776393      26.95592365        0       0.04066147       0.01557545      -0.00046095
H        4.44355348       1.94265309      27.21415230        0      -0.01143959       0.01030442      -0.04525797
H        3.01836287       2.80582397      26.94600442        0      -0.02212991      -0.03444821      -0.00281984
