31
Lattice="8.421641763931781 0.0 0.0 4.2108208819658905 7.293355709136913 0.0 0.0 0.0 44.584161137365626" Properties=species:S:1:pos:R:3:tags:I:1:forces:R:3 energy=-172.8042755126953 free_energy=-172.8042755126953 stress="0.010287963785231113 -1.931718118797221e-09 2.3765573953227204e-09 -1.931718118797221e-09 0.010287984274327755 -4.559942645698811e-09 2.3765573953227204e-09 -4.559942645698811e-09 2.5825507691479288e-05" pbc="T T T"
Pt       1.40360696       0.81037286      20.00000000        3       0.00000120      -0.00000245      -0.01219022
Pt       4.21082088       0.81037286      20.00000000        3      -0.00218489       0.00302578       0.00097713
Pt       7.01803480       0.81037286      20.00000000        3       0.00197828       0.00239049       0.00095308
Pt       2.80721392       3.24149143      20.00000000        3       0.00108255      -0.00291230       0.00095385
Pt       5.61442784       3.24149143      20.00000000        3      -0.00000184       0.00000003       0.03240737
Pt       8.42164176       3.24149143      20.00000000        3      -0.00152687      -0.00340724       0.00097600
Pt       4.21082088       5.67261000      20.00000000        3       0.00371760       0.00038125       0.00097474
Pt       7.01803480       5.67261000      20.00000000        3      -0.00306423       0.00052146       0.00095296
Pt       9.82524872       5.67261000      20.00000000        3      -0.00000107       0.00000285      -0.01432964
Pt      -0.00000000       1.62074571      22.29208057        2      -0.14878844       0.08583940       0.01206273
Pt       2.80721392       1.62074571      22.29208057        2       0.14873178       0.08593638       0.01206400
Pt       5.61442784       1.62074571      22.29208057        2      -0.00261195       0.12159289       0.04922715
Pt       1.40360696       4.05186428      22.29208057        2       0.00523242      -0.02982346      -0.07347964
Pt       4.21082088       4.05186428      22.29208057        2       0.10661265      -0.05854040       0.04922166
Pt       7.01803480       4.05186428      22.29208057        2      -0.10399717      -0.06306211       0.04922686
Pt       2.80721392       6.48298285      22.29208057        2       0.02320203       0.01944926      -0.07348479
Pt       5.61442784       6.48298285      22.29208057        2       0.00005867      -0.17177030       0.01205713
Pt       8.42164176       6.48298285      22.29208057        2      -0.02844052       0.01037747      -0.07347886
Pt       0.00376951       0.00392252      24.56071369        1      -0.01565274      -0.02143740       0.02083960
Pt       2.80193125       0.00130346      24.56071474        1       0.02639416      -0.00283872       0.02083047
Pt       5.60581976      -0.01200388      24.56954008        1       0.02005098       0.02606519      -0.00908165
Pt       1.40511870       2.42589153      24.56071662        1      -0.01073290       0.02427691       0.02081992
Pt       4.18209327       2.42267554      24.61256784        1       0.02813286       0.00079919       0.01037540
Pt       7.03971031       2.41046014      24.61256952        1      -0.01476230       0.02396741       0.01036701
Pt       2.80112179       4.87569321      24.56953713        1       0.01254942      -0.03040082      -0.00905997
Pt       5.62148035       4.89133747      24.61256687        1      -0.01337756      -0.02476621       0.01038543
Pt       8.43634093       4.86078429      24.56953923        1      -0.03260131       0.00433486      -0.00907964
N        5.61442823       3.24149133      26.94051449        0      -0.00000231       0.00001615      -0.04888704
H        4.75110853       2.84439770      26.52021853        0       0.02394350      -0.00126702       0.00246517
H        5.70219372       4.18769497      26.52021865        0      -0.01306271      -0.02011587       0.00246717
H        6.38998110       2.69238177      26.52021818        0      -0.01087937       0.02136743       0.00246661
