31
Lattice="8.421641763931781 0.0 0.0 4.2108208819658905 7.293355709136913 0.0 0.0 0.0 44.584161137365626" Properties=species:S:1:pos:R:3:tags:I:1:forces:R:3 energy=-172.575439453125 free_energy=-172.575439453125 stress="0.010545414872467518 4.345353590906598e-05 7.295451268873876e-06 4.345353590906598e-05 0.010495012626051903 -1.0562884199316613e-05 7.295451268873876e-06 -1.0562884199316613e-05 -0.00012014750973321497" pbc="T T T"
Pt       1.40360696       0.81037286      20.00000000        3      -0.00102892       0.00054212      -0.00410870
Pt       4.21082088       0.81037286      20.00000000        3       0.00022529       0.00059638      -0.00393757
Pt       7.01803480       0.81037286      20.00000000        3       0.00065680       0.00040972      -0.00524154
Pt       2.80721392       3.24149143      20.00000000        3       0.00034320       0.00083829       0.00689587
Pt       5.61442784       3.24149143      20.00000000        3       0.00007245      -0.00056727       0.00005829
Pt       8.42164176       3.24149143      20.00000000        3      -0.00017137      -0.00118131      -0.00392860
Pt       4.21082088       5.67261000      20.00000000        3      -0.00103165      -0.00011566       0.00243399
Pt       7.01803480       5.67261000      20.00000000        3      -0.00030360      -0.00019603      -0.00613096
Pt       9.82524872       5.67261000      20.00000000        3       0.00118023      -0.00032085      -0.00139078
Pt      -0.00000000       1.62074571      22.29208057        2       0.00998528       0.00578749      -0.04594832
Pt       2.80721392       1.62074571      22.29208057        2       0.02262393       0.03895487       0.01556540
Pt       5.61442784       1.62074571      22.29208057        2      -0.03272673       0.02661956      -0.00911163
Pt       1.40360696       4.05186428      22.29208057        2       0.05502377       0.00939346       0.02674904
Pt       4.21082088       4.05186428      22.29208057        2      -0.03570004      -0.00426283       0.04390676
Pt       7.01803480       4.05186428      22.29208057        2      -0.01808063      -0.00805242      -0.02391844
Pt       2.80721392       6.48298285      22.29208057        2       0.00659463      -0.05766509       0.00318358
Pt       5.61442784       6.48298285      22.29208057        2      -0.01988977      -0.01516809      -0.02192844
Pt       8.42164176       6.48298285      22.29208057        2       0.01259564       0.00259233      -0.02985735
Pt       0.00109301       0.00568920      24.57886103        1       0.00254185      -0.00973541      -0.00327322
Pt       2.80633182      -0.00606537      24.57851450        1      -0.00249478       0.00638137      -0.00741115
Pt       5.61413542       0.00059435      24.57622511        1       0.00028338      -0.00024326      -0.00779513
Pt       1.39599173       2.42585530      24.58337346        1       0.02986924       0.01623582       0.00005075
Pt       4.21841392       2.41883794      24.58785889        1      -0.00745306       0.01322838       0.00253650
Pt       7.02402090       2.42867213      24.57873358        1      -0.00333431       0.00548338      -0.00410068
Pt       2.80000034       4.87573142      24.59781690        1       0.00562849      -0.01048974       0.02197313
Pt       5.62214950       4.86598244      24.58331957        1      -0.02801270      -0.01777181      -0.00193705
Pt       8.41642650       4.86389894      24.57863002        1       0.00835413      -0.00811029      -0.00653505
N        3.50871453       3.64700563      27.58833510        0      -0.01067949       0.01776645      -0.00559363
H        3.03611716       4.46571624      27.19136916        0       0.00980413      -0.01667452      -0.00837148
H        4.45647461       3.64812641      27.20180044        0      -0.02264468      -0.00906324       0.03899253
H        3.03379789       2.82696902      27.20167750        0       0.01776937       0.01478815       0.03817398
