31
Lattice="8.421641763931781 0.0 0.0 4.2108208819658905 7.293355709136913 0.0 0.0 0.0 44.584161137365626" Properties=species:S:1:pos:R:3:tags:I:1:forces:R:3 energy=-172.57716369628906 free_energy=-172.57716369628906 stress="0.010478965006768703 -1.6130525803959017e-09 4.761276789500002e-11 -1.6130525803959017e-09 0.010478978045284748 -8.080566771262454e-10 4.761276789500002e-11 -8.080566771262454e-10 -0.00018221099162474275" pbc="T T T"
Pt       1.40360696       0.81037286      20.00000000        3      -0.00106581       0.00043578      -0.00487119
Pt       4.21082088       0.81037286      20.00000000        3       0.00008997       0.00047818      -0.00420707
Pt       7.01803480       0.81037286      20.00000000        3       0.00091038       0.00070184      -0.00487161
Pt       2.80721392       3.24149143      20.00000000        3       0.00009990      -0.00000889       0.00331873
Pt       5.61442784       3.24149143      20.00000000        3      -0.00004353       0.00008951       0.00331905
Pt       8.42164176       3.24149143      20.00000000        3       0.00015500      -0.00114202      -0.00487229
Pt       4.21082088       5.67261000      20.00000000        3      -0.00005482      -0.00007978       0.00331932
Pt       7.01803480       5.67261000      20.00000000        3      -0.00046175      -0.00016123      -0.00420839
Pt       9.82524872       5.67261000      20.00000000        3       0.00037038      -0.00031376      -0.00420886
Pt      -0.00000000       1.62074571      22.29208057        2       0.00000163      -0.00000215      -0.05327008
Pt       2.80721392       1.62074571      22.29208057        2       0.02727053       0.03339273      -0.00389037
Pt       5.61442784       1.62074571      22.29208057        2      -0.02598555       0.03246880      -0.00567561
Pt       1.40360696       4.05186428      22.29208057        2       0.04111334       0.00626659      -0.00567461
Pt       4.21082088       4.05186428      22.29208057        2       0.00000164      -0.00000015       0.05031686
Pt       7.01803480       4.05186428      22.29208057        2      -0.04255806       0.00691924      -0.00389043
Pt       2.80721392       6.48298285      22.29208057        2       0.01528599      -0.04031183      -0.00389088
Pt       5.61442784       6.48298285      22.29208057        2      -0.01512989      -0.03873575      -0.00567643
Pt       8.42164176       6.48298285      22.29208057        2       0.00000097       0.00000369      -0.03515367
Pt      -0.00049491       0.00689213      24.57902261        1      -0.00323732      -0.01788626      -0.00410700
Pt       2.80910328      -0.00020520      24.57707636        1      -0.00315087       0.00670851      -0.00708485
Pt       5.61330539      -0.00153365      24.57707649        1       0.00738524      -0.00062470      -0.00708425
Pt       1.39788580       2.42724348      24.57902264        1       0.01710794       0.00614023      -0.00410667
Pt       4.21341228       2.41651310      24.58942600        1       0.00550767       0.02318007       0.00538398
Pt       7.02425109       2.42810128      24.57902275        1      -0.01387010       0.01174566      -0.00410646
Pt       2.79326970       4.86729561      24.58942616        1       0.01732045      -0.01636042       0.00538506
Pt       5.62578086       4.87178410      24.58942605        1      -0.02283056      -0.00682022       0.00538483
Pt       8.42087444       4.86397610      24.57707658        1      -0.00423295      -0.00608379      -0.00708300
N        4.21082089       4.05186409      27.59415628        0       0.00000314       0.00001110       0.00236809
H        3.26570366       4.05669578      27.19876089        0       0.02401249       0.02385529       0.03304505
H        4.68756338       4.86794372      27.19876082        0       0.00865351      -0.03272605       0.03304885
H        4.67919531       3.23095348      27.19876089        0      -0.03266903       0.00885972       0.03304370
