31
Lattice="8.421641763931781 0.0 0.0 4.2108208819658905 7.293355709136913 0.0 0.0 0.0 44.584161137365626" Properties=species:S:1:pos:R:3:tags:I:1:forces:R:3 energy=-172.65194702148438 free_energy=-172.65194702148438 stress="0.010527064092457294 -4.13492307060892e-09 -9.998681882450455e-10 -4.13492307060892e-09 0.010527071543037891 -3.732841147296995e-09 -9.998681882450455e-10 -3.732841147296995e-09 0.00012945508933626115" pbc="T T T"
Pt       1.40360696       0.81037286      20.00000000        3       0.00000037      -0.00000221      -0.00398642
Pt       4.21082088       0.81037286      20.00000000        3      -0.00164506       0.00305764       0.01139069
Pt       7.01803480       0.81037286      20.00000000        3       0.00164445       0.00305691       0.01138949
Pt       2.80721392       3.24149143      20.00000000        3       0.00182722      -0.00295621       0.01138881
Pt       5.61442784       3.24149143      20.00000000        3      -0.00000221      -0.00000052       0.04825968
Pt       8.42164176       3.24149143      20.00000000        3      -0.00182442      -0.00295505       0.01138744
Pt       4.21082088       5.67261000      20.00000000        3       0.00347474      -0.00010218       0.01138940
Pt       7.01803480       5.67261000      20.00000000        3      -0.00347413      -0.00010110       0.01138830
Pt       9.82524872       5.67261000      20.00000000        3      -0.00000128       0.00000233      -0.00338671
Pt      -0.00000000       1.62074571      22.29208057        2      -0.12621297       0.07286721       0.01768040
Pt       2.80721392       1.62074571      22.29208057        2       0.12621526       0.07286838       0.01768016
Pt       5.61442784       1.62074571      22.29208057        2      -0.00000230       0.09583573      -0.00172721
Pt       1.40360696       4.05186428      22.29208057        2       0.00000146      -0.01845950      -0.03355328
Pt       4.21082088       4.05186428      22.29208057        2       0.08299903      -0.04791932      -0.00172591
Pt       7.01803480       4.05186428      22.29208057        2      -0.08300186      -0.04791890      -0.00172623
Pt       2.80721392       6.48298285      22.29208057        2       0.01598739       0.00923087      -0.03355321
Pt       5.61442784       6.48298285      22.29208057        2      -0.00000250      -0.14573805       0.01768038
Pt       8.42164176       6.48298285      22.29208057        2      -0.01598511       0.00923316      -0.03355437
Pt       0.00357612       0.00206449      24.56716766        1      -0.00151793      -0.00087842      -0.00905216
Pt       2.80363804       0.00206443      24.56716791        1       0.00151796      -0.00087607      -0.00905076
Pt       5.61442776      -0.00257183      24.58162530        1       0.00000026      -0.00448310      -0.00639287
Pt       1.40360681       2.42698933      24.56716766        1       0.00000243       0.00175203      -0.00905076
Pt       4.18471238       2.41604450      24.62651977        1       0.00350464       0.00202595      -0.00718325
Pt       7.04414308       2.41604439      24.62652038        1      -0.00350763       0.00202442      -0.00718182
Pt       2.80498654       4.86352288      24.58162524        1      -0.00388064       0.00224067      -0.00639190
Pt       5.61442771       4.89238436      24.62651988        1      -0.00000132      -0.00404822      -0.00718170
Pt       8.42386863       4.86352259      24.58162521        1       0.00388345       0.00224306      -0.00639142
N        5.61442794       3.24149122      26.85798201        0      -0.00000577       0.00001253       0.01052487
H        5.61442826       2.32111490      26.34499967        0       0.00000068       0.02527896       0.00030658
H        4.81735817       3.70167953      26.34499916        0       0.02190967      -0.01264689       0.00031337
H        6.41149769       3.70167978      26.34499943        0      -0.02190387      -0.01264413       0.00031009
