31
Lattice="8.421641763931781 0.0 0.0 4.2108208819658905 7.293355709136913 0.0 0.0 0.0 44.584161137365626" Properties=species:S:1:pos:R:3:tags:I:1:forces:R:3 energy=-173.71633911132812 free_energy=-173.71633911132812 stress="0.01068334560841322 -1.3456558534130636e-08 -1.5246288675996311e-09 -1.3456558534130636e-08 0.010683350265026093 6.374669681008527e-09 -1.5246288675996311e-09 6.374669681008527e-09 -3.91260164178675e-06" pbc="T T T"
Pt       1.40360696       0.81037286      20.00000000        3      -0.00293484      -0.00088760      -0.00606725
Pt       4.21082088       0.81037286      20.00000000        3       0.00052832       0.00464584       0.01212797
Pt       7.01803480       0.81037286      20.00000000        3       0.00223096      -0.00210293      -0.00606778
Pt       2.80721392       3.24149143      20.00000000        3       0.00376293      -0.00278080       0.01212534
Pt       5.61442784       3.24149143      20.00000000        3      -0.00428982      -0.00186674       0.01212633
Pt       8.42164176       3.24149143      20.00000000        3       0.00076021      -0.00624109      -0.00914496
Pt       4.21082088       5.67261000      20.00000000        3       0.00070477       0.00298593      -0.00606725
Pt       7.01803480       5.67261000      20.00000000        3      -0.00578738       0.00246681      -0.00914389
Pt       9.82524872       5.67261000      20.00000000        3       0.00502462       0.00378117      -0.00914422
Pt      -0.00000000       1.62074571      22.29208057        2       0.00918650       0.00729795      -0.00012698
Pt       2.80721392       1.62074571      22.29208057        2       0.06351635       0.04181515      -0.02888007
Pt       5.61442784       1.62074571      22.29208057        2      -0.06797526       0.03409398      -0.02888085
Pt       1.40360696       4.05186428      22.29208057        2       0.05035952      -0.03659759       0.03253521
Pt       4.21082088       4.05186428      22.29208057        2       0.00445931      -0.07591502      -0.02888625
Pt       7.01803480       4.05186428      22.29208057        2      -0.05687493      -0.02531315       0.03252949
Pt       2.80721392       6.48298285      22.29208057        2      -0.01091584       0.00430585      -0.00012852
Pt       5.61442784       6.48298285      22.29208057        2       0.00172934      -0.01160119      -0.00013129
Pt       8.42164176       6.48298285      22.29208057        2       0.00651823       0.06191420       0.03252979
Pt       0.00000046      -0.00000091      24.58913189        1       0.00000050       0.00000602      -0.00107124
Pt       2.80002550      -0.01010718      24.59557653        1       0.00134230      -0.00807478       0.00798604
Pt       5.61872952      -0.00402727      24.60743654        1      -0.00989084       0.00583060      -0.00834751
Pt       1.39796905       2.42940518      24.60743704        1       0.00999340       0.00565764      -0.00834730
Pt       4.21082184       2.43112337      24.65948004        1      -0.00000435      -0.00001411       0.00719270
Pt       7.03038176       2.42994529      24.59557704        1       0.00633578       0.00520098       0.00798683
Pt       2.80205919       4.87351660      24.59557705        1      -0.00769342       0.00288427       0.00798666
Pt       5.61576582       4.86797651      24.60743664        1      -0.00010148      -0.01147578      -0.00834598
Pt       8.42164137       4.86223715      24.58941062        1       0.00001321      -0.00000287      -0.00292504
N        4.21081906       2.43111996      26.72623316        0      -0.00001523      -0.00005075      -0.00217283
H        4.69909808       3.27171697      27.04597547        0       0.00139357      -0.00000510      -0.00041833
H        4.69466062       1.58795289      27.04595746        0      -0.00072129      -0.00115150      -0.00040562
H        3.23869786       2.43367948      27.04596665        0      -0.00065503       0.00119472      -0.00042307
