31
Lattice="8.421641763931781 0.0 0.0 4.2108208819658905 7.293355709136913 0.0 0.0 0.0 44.584161137365626" Properties=species:S:1:pos:R:3:tags:I:1:forces:R:3 energy=-172.59942626953125 free_energy=-172.59942626953125 stress="0.010525384917855263 -1.4304549766919195e-09 1.9997362099566374e-10 -1.4304549766919195e-09 0.010525396093726158 3.7056337998109257e-09 1.9997362099566374e-10 3.7056337998109257e-09 1.6066289845184656e-06" pbc="T T T"
Pt       1.40360696       0.81037286      20.00000000        3      -0.00089246       0.00051348      -0.00636694
Pt       4.21082088       0.81037286      20.00000000        3       0.00000155       0.00103826      -0.00327489
Pt       7.01803480       0.81037286      20.00000000        3       0.00089104       0.00051337      -0.00636789
Pt       2.80721392       3.24149143      20.00000000        3       0.00061436       0.00035375       0.00581115
Pt       5.61442784       3.24149143      20.00000000        3      -0.00061483       0.00035440       0.00581115
Pt       8.42164176       3.24149143      20.00000000        3       0.00000122      -0.00103118      -0.00636914
Pt       4.21082088       5.67261000      20.00000000        3       0.00000240      -0.00070696       0.00581110
Pt       7.01803480       5.67261000      20.00000000        3      -0.00090274      -0.00051751      -0.00327602
Pt       9.82524872       5.67261000      20.00000000        3       0.00089913      -0.00051729      -0.00327617
Pt      -0.00000000       1.62074571      22.29208057        2       0.00000182      -0.00000273      -0.05875541
Pt       2.80721392       1.62074571      22.29208057        2       0.03870035       0.04042452       0.00523149
Pt       5.61442784       1.62074571      22.29208057        2      -0.03870169       0.04042429       0.00523074
Pt       1.40360696       4.05186428      22.29208057        2       0.05436067       0.01330139       0.00523167
Pt       4.21082088       4.05186428      22.29208057        2       0.00000203      -0.00000041       0.06417990
Pt       7.01803480       4.05186428      22.29208057        2      -0.05436239       0.01330260       0.00523340
Pt       2.80721392       6.48298285      22.29208057        2       0.01566095      -0.05372566       0.00523116
Pt       5.61442784       6.48298285      22.29208057        2      -0.01566143      -0.05372611       0.00523075
Pt       8.42164176       6.48298285      22.29208057        2       0.00000055       0.00000275      -0.03006241
Pt       0.00000021       0.00735019      24.57767281        1       0.00000046      -0.01971217      -0.00594902
Pt       2.80860777      -0.00080476      24.57666938        1      -0.00477666       0.00275772      -0.00865528
Pt       5.61303391      -0.00080472      24.57666929        1       0.00477773       0.00275821      -0.00865588
Pt       1.39724157       2.42744331      24.57767297        1       0.01707216       0.00985728      -0.00594848
Pt       4.21082094       2.41886814      24.59704276        1      -0.00000138       0.01957918       0.02004787
Pt       7.02440007       2.42744336      24.57767289        1      -0.01707161       0.00985871      -0.00594774
Pt       2.79660481       4.86836232      24.59704290        1       0.01695562      -0.00979048       0.02004915
Pt       5.62503690       4.86836234      24.59704278        1      -0.01695250      -0.00979058       0.02004734
Pt       8.42164183       4.86384681      24.57666955        1      -0.00000420      -0.00551844      -0.00865522
N        4.21082102       4.05186448      27.59093227        0      -0.00000605      -0.00002162      -0.03135434
H        5.02950272       4.52453049      27.19264415        0      -0.02519950      -0.01454848       0.00658492
H        4.21082081       3.10653195      27.19264398        0       0.00000262       0.02911748       0.00659500
H        3.39213918       4.52453032      27.19264396        0       0.02520300      -0.01454761       0.00658780
