31
Lattice="8.421641763931781 0.0 0.0 4.2108208819658905 7.293355709136913 0.0 0.0 0.0 44.584161137365626" Properties=species:S:1:pos:R:3:tags:I:1:forces:R:3 energy=-172.79193115234375 free_energy=-172.79193115234375 stress="0.01031012274324894 5.544846803928749e-09 -2.592855263827687e-09 5.544846803928749e-09 0.01031013485044241 2.7642612643319353e-09 -2.592855263827687e-09 2.7642612643319353e-09 -5.320260606822558e-05" pbc="T T T"
Pt       1.40360696       0.81037286      20.00000000        3      -0.00082101       0.00125758      -0.00642636
Pt       4.21082088       0.81037286      20.00000000        3      -0.00026644       0.00262415      -0.00197998
Pt       7.01803480       0.81037286      20.00000000        3       0.00149968       0.00007991      -0.00642800
Pt       2.80721392       3.24149143      20.00000000        3      -0.00056725       0.00048030       0.01711309
Pt       5.61442784       3.24149143      20.00000000        3      -0.00013434      -0.00073272       0.01711378
Pt       8.42164176       3.24149143      20.00000000        3      -0.00067914      -0.00134153      -0.00642890
Pt       4.21082088       5.67261000      20.00000000        3       0.00070321       0.00025303       0.01711395
Pt       7.01803480       5.67261000      20.00000000        3      -0.00214158      -0.00154212      -0.00198221
Pt       9.82524872       5.67261000      20.00000000        3       0.00240673      -0.00107788      -0.00198162
Pt      -0.00000000       1.62074571      22.29208057        2       0.00000241      -0.00000229      -0.12336057
Pt       2.80721392       1.62074571      22.29208057        2       0.10594023       0.07567583       0.01753129
Pt       5.61442784       1.62074571      22.29208057        2      -0.11871691       0.08205764       0.00725731
Pt       1.40360696       4.05186428      22.29208057        2       0.13042395       0.06178212       0.00726170
Pt       4.21082088       4.05186428      22.29208057        2       0.00000012       0.00000089       0.07267165
Pt       7.01803480       4.05186428      22.29208057        2      -0.11851212       0.05390770       0.01753329
Pt       2.80721392       6.48298285      22.29208057        2       0.01257085      -0.12958738       0.01753174
Pt       5.61442784       6.48298285      22.29208057        2      -0.01170784      -0.14383712       0.00725892
Pt       8.42164176       6.48298285      22.29208057        2      -0.00000031       0.00000210      -0.04818333
Pt       0.00871844       0.01462076      24.57019393        1      -0.02185346      -0.03447296      -0.00114727
Pt       2.80319953      -0.01182682      24.56825749        1       0.01274898       0.02477793      -0.02906726
Pt       5.60619323       0.00938960      24.56825702        1       0.01508379      -0.02342780      -0.02905615
Pt       1.38658588       2.43135783      24.57019407        1       0.04078162      -0.00168959      -0.00114594
Pt       4.19253675       2.40891820      24.60961033        1       0.02603488      -0.01961127      -0.00390811
Pt       7.02633792       2.41625784      24.57019443        1      -0.01892977       0.03616132      -0.00114602
Pt       2.79712993       4.88917173      24.60961088        1      -0.03000003      -0.01273985      -0.00391949
Pt       5.64279591       4.85750279      24.60961032        1       0.00396714       0.03235049      -0.00390891
Pt       8.43389108       4.86467356      24.56825838        1      -0.02783427      -0.00134778      -0.02906466
N        4.21082080       4.05186422      26.91368897        0       0.00000792      -0.00001226       0.03995031
H        3.97688541       3.13617206      26.47644936        0       0.03202157       0.00572520       0.02026736
H        3.53477616       4.71230379      26.47644982        0      -0.01106838      -0.03057704       0.02026500
H        5.12080058       4.30711682      26.47644922        0      -0.02096009       0.02486344       0.02026549
