31
Lattice="8.421641763931781 0.0 0.0 4.2108208819658905 7.293355709136913 0.0 0.0 0.0 44.584161137365626" Properties=species:S:1:pos:R:3:tags:I:1:forces:R:3 energy=-172.80653381347656 free_energy=-172.80653381347656 stress="0.010291832499206066 8.117118643902188e-10 -1.0927672100535801e-09 8.117118643902188e-10 0.010291836224496365 1.512725722463415e-09 -1.0927672100535801e-09 1.512725722463415e-09 2.5770545107661746e-05" pbc="T T T"
Pt       1.40360696       0.81037286      20.00000000        3       0.00000122      -0.00000257      -0.00860593
Pt       4.21082088       0.81037286      20.00000000        3      -0.00223147       0.00252728       0.00094831
Pt       7.01803480       0.81037286      20.00000000        3       0.00223069       0.00252638       0.00094652
Pt       2.80721392       3.24149143      20.00000000        3       0.00107371      -0.00319864       0.00094670
Pt       5.61442784       3.24149143      20.00000000        3      -0.00000201       0.00000021       0.03144509
Pt       8.42164176       3.24149143      20.00000000        3      -0.00107138      -0.00319764       0.00094607
Pt       4.21082088       5.67261000      20.00000000        3       0.00330829       0.00067182       0.00094816
Pt       7.01803480       5.67261000      20.00000000        3      -0.00330792       0.00067221       0.00094628
Pt       9.82524872       5.67261000      20.00000000        3      -0.00000094       0.00000212      -0.01521593
Pt      -0.00000000       1.62074571      22.29208057        2      -0.13821065       0.07979461       0.02789662
Pt       2.80721392       1.62074571      22.29208057        2       0.13821319       0.07979485       0.02789547
Pt       5.61442784       1.62074571      22.29208057        2      -0.00000207       0.12209958       0.04594202
Pt       1.40360696       4.05186428      22.29208057        2       0.00000100      -0.03577106      -0.07026532
Pt       4.21082088       4.05186428      22.29208057        2       0.10574448      -0.06105114       0.04594209
Pt       7.01803480       4.05186428      22.29208057        2      -0.10574567      -0.06105044       0.04594351
Pt       2.80721392       6.48298285      22.29208057        2       0.03097940       0.01788678      -0.07026540
Pt       5.61442784       6.48298285      22.29208057        2      -0.00000222      -0.15959191       0.02789470
Pt       8.42164176       6.48298285      22.29208057        2      -0.03097780       0.01788854      -0.07026619
Pt       0.00224071       0.00129339      24.56523463        1       0.00060759       0.00035123      -0.00526291
Pt       2.80497343       0.00129332      24.56523440        1      -0.00060780       0.00035160      -0.00526223
Pt       5.61442774      -0.01027221      24.56857285        1       0.00000090       0.00925280      -0.00448570
Pt       1.40360708       2.42853134      24.56523486        1      -0.00000091      -0.00070299      -0.00526163
Pt       4.18532984       2.41640108      24.61131493        1       0.01195432       0.00690148       0.00162368
Pt       7.04352576       2.41640112      24.61131548        1      -0.01195447       0.00690166       0.00162409
Pt       2.79831805       4.86737310      24.56857334        1       0.00801283      -0.00462535      -0.00448421
Pt       5.61442779       4.89167171      24.61131540        1       0.00000064      -0.01380447       0.00162400
Pt       8.43053739       4.86737322      24.56857335        1      -0.00801311      -0.00462648      -0.00448355
N        5.61442786       3.24149132      26.92948812        0       0.00000285      -0.00000110       0.03304639
H        6.43839830       2.76577195      26.51547708        0       0.00877607      -0.00506750      -0.01089935
H        4.79045775       2.76577204      26.51547673        0      -0.00877938      -0.00507025      -0.01090074
H        5.61442792       4.19293036      26.51547660        0       0.00000074       0.01013850      -0.01090071
