31
Lattice="8.421641763931781 0.0 0.0 4.2108208819658905 7.293355709136913 0.0 0.0 0.0 44.584161137365626" Properties=species:S:1:pos:R:3:tags:I:1:forces:R:3 energy=-172.57989501953125 free_energy=-172.57989501953125 stress="0.010525939054787159 4.7036366595420986e-05 5.855024210177362e-05 4.7036366595420986e-05 0.010471628047525883 3.381211354280822e-05 5.855024210177362e-05 3.381211354280822e-05 -0.0001354717242065817" pbc="T T T"
Pt       1.40360696       0.81037286      20.00000000        3      -0.00100198       0.00141465      -0.00500363
Pt       4.21082088       0.81037286      20.00000000        3      -0.00061287       0.00213131      -0.00299177
Pt       7.01803480       0.81037286      20.00000000        3       0.00014080       0.00008017      -0.00903305
Pt       2.80721392       3.24149143      20.00000000        3       0.00143659       0.00082832       0.01389867
Pt       5.61442784       3.24149143      20.00000000        3      -0.00164789      -0.00120233       0.00114846
Pt       8.42164176       3.24149143      20.00000000        3       0.00072739      -0.00157647      -0.00500503
Pt       4.21082088       5.67261000      20.00000000        3      -0.00186136      -0.00082282       0.00114954
Pt       7.01803480       5.67261000      20.00000000        3      -0.00060573      -0.00034600      -0.00966066
Pt       9.82524872       5.67261000      20.00000000        3       0.00153901      -0.00159599      -0.00299317
Pt      -0.00000000       1.62074571      22.29208057        2       0.03184355       0.01838164      -0.03857284
Pt       2.80721392       1.62074571      22.29208057        2       0.03827976       0.06413513       0.02288031
Pt       5.61442784       1.62074571      22.29208057        2      -0.05150785       0.04289782      -0.00485822
Pt       1.40360696       4.05186428      22.29208057        2       0.07468478       0.00108179       0.02288286
Pt       4.21082088       4.05186428      22.29208057        2      -0.04868610      -0.02811003       0.04125111
Pt       7.01803480       4.05186428      22.29208057        2      -0.01981318      -0.01047220      -0.03541793
Pt       2.80721392       6.48298285      22.29208057        2       0.01139935      -0.06605282      -0.00485934
Pt       5.61442784       6.48298285      22.29208057        2      -0.01897588      -0.01191792      -0.03542009
Pt       8.42164176       6.48298285      22.29208057        2       0.01025629       0.00592377      -0.04683182
Pt       0.00582044       0.01092676      24.57383872        1      -0.00109219       0.00844360       0.01765159
Pt       2.80566963      -0.00184386      24.57164946        1       0.00867215      -0.01877939       0.02614588
Pt       5.61441092      -0.00001003      24.56783176        1       0.00796726       0.00460176       0.03424028
Pt       1.41468293       2.43751297      24.59023786        1      -0.03296049      -0.01902665      -0.01324227
Pt       4.22699235       2.42112029      24.60467310        1       0.00120131      -0.00040266      -0.03185910
Pt       7.03040796       2.43069569      24.57383905        1       0.00676272      -0.00516964       0.01765302
Pt       2.80664122       4.88124158      24.60467354        1       0.00024785       0.00123612      -0.03186008
Pt       5.61450028       4.86227904      24.57686747        1       0.03598411       0.02077600       0.01432863
Pt       8.41927238       4.86182160      24.57164898        1      -0.01192421       0.01689817       0.02614644
N        3.50803411       3.64611058      27.59995716        0       0.00035721       0.00016448       0.01549125
H        4.31414035       3.16411572      27.19199369        0      -0.02359144      -0.00498021      -0.00789728
H        2.67473383       3.16500370      27.25215205        0      -0.00110531      -0.00063325       0.03855285
H        3.49366806       4.58521554      27.19199378        0      -0.01611347      -0.01790656      -0.00791475
