31
Lattice="8.421641763931781 0.0 0.0 4.2108208819658905 7.293355709136913 0.0 0.0 0.0 44.584161137365626" Properties=species:S:1:pos:R:3:tags:I:1:forces:R:3 energy=-172.80076599121094 free_energy=-172.80076599121094 stress="0.010380423627793789 -5.122453572425911e-09 -3.9926706385529087e-10 -5.122453572425911e-09 0.010380437597632408 -7.454799000328194e-10 -3.9926706385529087e-10 -7.454799000328194e-10 0.00013811214012093842" pbc="T T T"
Pt       1.40360696       0.81037286      20.00000000        3       0.00000146      -0.00000222      -0.00917119
Pt       4.21082088       0.81037286      20.00000000        3      -0.00175553       0.00301266       0.00178048
Pt       7.01803480       0.81037286      20.00000000        3       0.00208341       0.00282823       0.00179195
Pt       2.80721392       3.24149143      20.00000000        3       0.00140875      -0.00322322       0.00179225
Pt       5.61442784       3.24149143      20.00000000        3      -0.00000232      -0.00000070       0.03522712
Pt       8.42164176       3.24149143      20.00000000        3      -0.00172947      -0.00302862       0.00177777
Pt       4.21082088       5.67261000      20.00000000        3       0.00349104       0.00001672       0.00177857
Pt       7.01803480       5.67261000      20.00000000        3      -0.00349618       0.00039481       0.00179145
Pt       9.82524872       5.67261000      20.00000000        3      -0.00000153       0.00000278      -0.01458526
Pt      -0.00000000       1.62074571      22.29208057        2      -0.14291975       0.07743216       0.03906225
Pt       2.80721392       1.62074571      22.29208057        2       0.13851945       0.08505812       0.03905814
Pt       5.61442784       1.62074571      22.29208057        2      -0.00085068       0.12743361       0.05053659
Pt       1.40360696       4.05186428      22.29208057        2       0.00004124      -0.03188481      -0.06164043
Pt       4.21082088       4.05186428      22.29208057        2       0.11078797      -0.06298259       0.05053670
Pt       7.01803480       4.05186428      22.29208057        2      -0.10993853      -0.06445232       0.05053930
Pt       2.80721392       6.48298285      22.29208057        2       0.02759114       0.01598027      -0.06164458
Pt       5.61442784       6.48298285      22.29208057        2       0.00440066      -0.16249000       0.03905730
Pt       8.42164176       6.48298285      22.29208057        2      -0.02763142       0.01590591      -0.06164560
Pt       0.00295029      -0.00332052      24.56545297        1       0.00256463       0.02801250      -0.00533122
Pt       2.80861476       0.00421447      24.56545333        1      -0.02554425      -0.01178382      -0.00533018
Pt       5.61588259      -0.00628280      24.56941674        1       0.00359523      -0.02451630      -0.00741884
Pt       1.39925753       2.43022373      24.56545404        1       0.02296974      -0.01622523      -0.00534061
Pt       4.18525523       2.41956084      24.61814158        1       0.01125950      -0.01081781      -0.00878332
Pt       7.04082616       2.41475676      24.61814162        1       0.00374278       0.01515444      -0.00878364
Pt       2.80104592       4.86411803      24.56941695        1      -0.02302837       0.00914882      -0.00741732
Pt       5.61720207       4.89015597      24.61814139        1      -0.01500078      -0.00433641      -0.00878670
Pt       8.42635470       4.86663842      24.56941732        1       0.01944209       0.01536461      -0.00742632
N        5.61442770       3.24149235      26.94317437        0       0.00000067       0.00000880      -0.00901914
H        6.50454549       2.91137373      26.52136237        0      -0.01569442      -0.01923616      -0.01080360
H        4.88347850       2.63568497      26.52136144        0      -0.00881809       0.02321903      -0.01080494
H        5.45525869       4.17741629      26.52136112        0       0.02451149      -0.00399303      -0.01079653
