31
Lattice="8.421641763931781 0.0 0.0 4.2108208819658905 7.293355709136913 0.0 0.0 0.0 44.584161137365626" Properties=species:S:1:pos:R:3:tags:I:1:forces:R:3 energy=-172.60189819335938 free_energy=-172.60189819335938 stress="0.010518895462155342 8.20453927019571e-09 7.280672509324404e-09 8.20453927019571e-09 0.010518877767026424 1.3687991184951898e-08 7.280672509324404e-09 1.3687991184951898e-08 -1.580990465299692e-05" pbc="T T T"
Pt       1.40360696       0.81037286      20.00000000        3       0.00000090      -0.00000251      -0.00634757
Pt       4.21082088       0.81037286      20.00000000        3      -0.00067226       0.00123280      -0.00134280
Pt       7.01803480       0.81037286      20.00000000        3       0.00067165       0.00123197      -0.00134343
Pt       2.80721392       3.24149143      20.00000000        3       0.00073325      -0.00120131      -0.00134388
Pt       5.61442784       3.24149143      20.00000000        3      -0.00000208      -0.00000003       0.01187292
Pt       8.42164176       3.24149143      20.00000000        3      -0.00073109      -0.00120056      -0.00134552
Pt       4.21082088       5.67261000      20.00000000        3       0.00140842      -0.00003239      -0.00134400
Pt       7.01803480       5.67261000      20.00000000        3      -0.00140816      -0.00003119      -0.00134444
Pt       9.82524872       5.67261000      20.00000000        3      -0.00000094       0.00000260      -0.00859988
Pt      -0.00000000       1.62074571      22.29208057        2      -0.04278742       0.02470121      -0.01080687
Pt       2.80721392       1.62074571      22.29208057        2       0.04279013       0.02470298      -0.01080739
Pt       5.61442784       1.62074571      22.29208057        2      -0.00000244       0.05406239       0.04110495
Pt       1.40360696       4.05186428      22.29208057        2       0.00000153      -0.01914823      -0.03130628
Pt       4.21082088       4.05186428      22.29208057        2       0.04682222      -0.02703257       0.04110564
Pt       7.01803480       4.05186428      22.29208057        2      -0.04682414      -0.02703153       0.04110602
Pt       2.80721392       6.48298285      22.29208057        2       0.01658343       0.00957542      -0.03130730
Pt       5.61442784       6.48298285      22.29208057        2      -0.00000188      -0.04940663      -0.01080743
Pt       8.42164176       6.48298285      22.29208057        2      -0.01658193       0.00957786      -0.03130863
Pt       0.00154945       0.00089438      24.57688581        1      -0.00320245      -0.00185034      -0.00631061
Pt       2.80566462       0.00089443      24.57688580        1       0.00320257      -0.00184938      -0.00630972
Pt       5.61442776      -0.00688262      24.57748792        1       0.00000113       0.02061292      -0.00907686
Pt       1.40360712       2.42932946      24.57688605        1       0.00000048       0.00369909      -0.00630936
Pt       4.19942474       2.42453895      24.59691468        1       0.01709172       0.00986850       0.02064867
Pt       7.02943072       2.42453905      24.59691474        1      -0.01709197       0.00986713       0.02064931
Pt       2.80125350       4.86567847      24.57748784        1       0.01785105      -0.01030567      -0.00907636
Pt       5.61442781       4.87539627      24.59691478        1      -0.00000157      -0.01973467       0.02064770
Pt       8.42760213       4.86567859      24.57748803        1      -0.01785018      -0.01030760      -0.00907543
N        5.61442831       3.24149249      27.59226998        0      -0.00005493      -0.00008931      -0.02898297
H        4.79609719       2.76902791      27.19286747        0       0.02509324       0.01449217       0.00914551
H        5.61442791       4.18641690      27.19286791        0       0.00000146      -0.02886632       0.00909599
H        6.43275780       2.76902837      27.19286756        0      -0.02503979       0.01446306       0.00911968
