31
Lattice="8.421641763931781 0.0 0.0 4.2108208819658905 7.293355709136913 0.0 0.0 0.0 44.584161137365626" Properties=species:S:1:pos:R:3:tags:I:1:forces:R:3 energy=-172.793212890625 free_energy=-172.793212890625 stress="0.010255707427859306 -2.158899059523378e-09 3.78181397309163e-09 -2.158899059523378e-09 0.010255720466375351 -1.7086182468872835e-09 3.78181397309163e-09 -1.7086182468872835e-09 -4.673684452427551e-05" pbc="T T T"
Pt       1.40360696       0.81037286      20.00000000        3       0.00000086      -0.00000250      -0.00486070
Pt       4.21082088       0.81037286      20.00000000        3      -0.00290418       0.00139705       0.00231561
Pt       7.01803480       0.81037286      20.00000000        3       0.00227610       0.00265945       0.00166738
Pt       2.80721392       3.24149143      20.00000000        3       0.00116713      -0.00330562       0.00166687
Pt       5.61442784       3.24149143      20.00000000        3      -0.00000220      -0.00000066       0.03026363
Pt       8.42164176       3.24149143      20.00000000        3       0.00024356      -0.00321487       0.00231192
Pt       4.21082088       5.67261000      20.00000000        3       0.00266588       0.00181866       0.00231335
Pt       7.01803480       5.67261000      20.00000000        3      -0.00344673       0.00064541       0.00166619
Pt       9.82524872       5.67261000      20.00000000        3      -0.00000146       0.00000270      -0.01544479
Pt      -0.00000000       1.62074571      22.29208057        2      -0.12471017       0.08350705       0.03022149
Pt       2.80721392       1.62074571      22.29208057        2       0.13467859       0.06624761       0.03022014
Pt       5.61442784       1.62074571      22.29208057        2       0.00400371       0.11404069       0.03494762
Pt       1.40360696       4.05186428      22.29208057        2      -0.00719618      -0.04540991      -0.07373624
Pt       4.21082088       4.05186428      22.29208057        2       0.09676187      -0.06049009       0.03494916
Pt       7.01803480       4.05186428      22.29208057        2      -0.10076951      -0.05355216       0.03494993
Pt       2.80721392       6.48298285      22.29208057        2       0.04292584       0.01647278      -0.07373793
Pt       5.61442784       6.48298285      22.29208057        2      -0.00996806      -0.14975739       0.03021951
Pt       8.42164176       6.48298285      22.29208057        2      -0.03572540       0.02894194      -0.07373873
Pt      -0.00313729       0.01189137      24.56865902        1       0.01777154      -0.02652509      -0.02491535
Pt       2.79848436      -0.00866297      24.56865925        1       0.01408688       0.02865366      -0.02491391
Pt       5.62493777      -0.01354372      24.56854471        1      -0.02909731       0.03360277      -0.00102340
Pt       1.41547418       2.42788980      24.56865793        1      -0.03185777      -0.00212755      -0.02491477
Pt       4.19313711       2.40105428      24.60715535        1      -0.01623750       0.01531047      -0.00092112
Pt       7.05291305       2.43083552      24.60715574        1      -0.00514060      -0.02171446      -0.00092231
Pt       2.79022977       4.85990746      24.56854386        1       0.04364952       0.00839577      -0.00102267
Pt       5.59723340       4.89258401      24.60715488        1       0.02137770       0.00640502      -0.00092006
Pt       8.42811582       4.87811070      24.56854480        1      -0.01455275      -0.04200158      -0.00102140
N        5.61442828       3.24149162      26.89807403        0      -0.00003136       0.00000680       0.02243525
H        5.38130605       4.15848396      26.46326797        0       0.02892097      -0.00172743       0.02065199
H        6.52512688       2.98488378      26.46326865        0      -0.01592404      -0.02417867       0.02063996
H        4.93685018       2.58110639      26.46326790        0      -0.01296497       0.02590010       0.02065342
