31
Lattice="8.421641763931781 0.0 0.0 4.2108208819658905 7.293355709136913 0.0 0.0 0.0 44.584161137365626" Properties=species:S:1:pos:R:3:tags:I:1:forces:R:3 energy=-172.793212890625 free_energy=-172.793212890625 stress="0.010255726054310799 4.6674117903933166e-09 -7.781286726071812e-10 4.6674117903933166e-09 0.010255737230181694 -4.255221064397574e-09 -7.781286726071812e-10 -4.255221064397574e-09 -4.6712186303921044e-05" pbc="T T T"
Pt       1.40360696       0.81037286      20.00000000        3       0.00000088      -0.00000251      -0.00486052
Pt       4.21082088       0.81037286      20.00000000        3      -0.00227731       0.00266076       0.00166771
Pt       7.01803480       0.81037286      20.00000000        3       0.00290341       0.00139583       0.00231376
Pt       2.80721392       3.24149143      20.00000000        3      -0.00024062      -0.00321573       0.00231329
Pt       5.61442784       3.24149143      20.00000000        3      -0.00000218      -0.00000046       0.03026265
Pt       8.42164176       3.24149143      20.00000000        3      -0.00116471      -0.00330458       0.00166586
Pt       4.21082088       5.67261000      20.00000000        3       0.00344687       0.00064428       0.00166741
Pt       7.01803480       5.67261000      20.00000000        3      -0.00266614       0.00181982       0.00231197
Pt       9.82524872       5.67261000      20.00000000        3      -0.00000072       0.00000236      -0.01544484
Pt      -0.00000000       1.62074571      22.29208057        2      -0.13467872       0.06624767       0.03022433
Pt       2.80721392       1.62074571      22.29208057        2       0.12471254       0.08350878       0.03021893
Pt       5.61442784       1.62074571      22.29208057        2      -0.00400532       0.11404072       0.03495041
Pt       1.40360696       4.05186428      22.29208057        2       0.00720069      -0.04540828      -0.07373378
Pt       4.21082088       4.05186428      22.29208057        2       0.10076594      -0.05355166       0.03495118
Pt       7.01803480       4.05186428      22.29208057        2      -0.09676357      -0.06049198       0.03495203
Pt       2.80721392       6.48298285      22.29208057        2       0.03572704       0.02893788      -0.07373427
Pt       5.61442784       6.48298285      22.29208057        2       0.00996333      -0.14975709       0.03021890
Pt       8.42164176       6.48298285      22.29208057        2      -0.04292248       0.01647401      -0.07373718
Pt       0.00873007      -0.00866336      24.56865923        1      -0.01408968       0.02865663      -0.02491421
Pt       2.81035148       0.01189147      24.56865886        1      -0.01776951      -0.02652665      -0.02491450
Pt       5.60391790      -0.01354389      24.56854506        1       0.02909761       0.03360351      -0.00102302
Pt       1.39174018       2.42788976      24.56865888        1       0.03185370      -0.00212619      -0.02491260
Pt       4.17594242       2.43083535      24.60715559        1       0.00514707      -0.02171065      -0.00091405
Pt       7.03571831       2.40105451      24.60715582        1       0.01623546       0.01530930      -0.00092775
Pt       2.80073993       4.87811080      24.56854536        1       0.01455026      -0.04200178      -0.00103228
Pt       5.63162162       4.89258422      24.60715518        1      -0.02137608       0.00639822      -0.00091383
Pt       8.43862565       4.85990721      24.56854489        1      -0.04364674       0.00839736      -0.00102113
N        5.61442743       3.24149111      26.89807757        0      -0.00000783       0.00002164       0.02240092
H        4.70372740       2.98488702      26.46327047        0       0.01596741      -0.02417455       0.02065338
H        5.84755257       4.15848237      26.46327057        0      -0.02892589      -0.00173439       0.02065850
H        6.29200353       2.58110497      26.46327069        0       0.01296544       0.02588774       0.02065280
