31
Lattice="8.421641763931781 0.0 0.0 4.2108208819658905 7.293355709136913 0.0 0.0 0.0 44.584161137365626" Properties=species:S:1:pos:R:3:tags:I:1:forces:R:3 energy=-172.80630493164062 free_energy=-172.80630493164062 stress="0.010269255377352238 -8.424111408444901e-10 -3.180532948121595e-09 -8.424111408444901e-10 0.010269268415868282 2.3724762154841983e-09 -3.180532948121595e-09 2.3724762154841983e-09 9.031630725075956e-06" pbc="T T T"
Pt       1.40360696       0.81037286      20.00000000        3       0.00000107      -0.00000265      -0.00880897
Pt       4.21082088       0.81037286      20.00000000        3      -0.00214195       0.00264066       0.00079566
Pt       7.01803480       0.81037286      20.00000000        3       0.00214115       0.00264007       0.00079516
Pt       2.80721392       3.24149143      20.00000000        3       0.00121765      -0.00317775       0.00079435
Pt       5.61442784       3.24149143      20.00000000        3      -0.00000202      -0.00000006       0.03264374
Pt       8.42164176       3.24149143      20.00000000        3      -0.00121546      -0.00317702       0.00079376
Pt       4.21082088       5.67261000      20.00000000        3       0.00336247       0.00053645       0.00079545
Pt       7.01803480       5.67261000      20.00000000        3      -0.00336238       0.00053776       0.00079414
Pt       9.82524872       5.67261000      20.00000000        3      -0.00000146       0.00000260      -0.01720354
Pt      -0.00000000       1.62074571      22.29208057        2      -0.13941227       0.08048802       0.02965569
Pt       2.80721392       1.62074571      22.29208057        2       0.13941167       0.08048791       0.02965145
Pt       5.61442784       1.62074571      22.29208057        2       0.00000033       0.12738833       0.04131752
Pt       1.40360696       4.05186428      22.29208057        2       0.00000067      -0.04157493      -0.08074191
Pt       4.21082088       4.05186428      22.29208057        2       0.11032367      -0.06369470       0.04131629
Pt       7.01803480       4.05186428      22.29208057        2      -0.11032446      -0.06369671       0.04131970
Pt       2.80721392       6.48298285      22.29208057        2       0.03600495       0.02078912      -0.08074410
Pt       5.61442784       6.48298285      22.29208057        2      -0.00000172      -0.16097647       0.02965096
Pt       8.42164176       6.48298285      22.29208057        2      -0.03600277       0.02078945      -0.08074496
Pt       0.00154683       0.00089262      24.56436834        1       0.00933339       0.00539197      -0.00226530
Pt       2.80566749       0.00089270      24.56436918        1      -0.00933571       0.00538979      -0.00226414
Pt       5.61442750      -0.01019391      24.56513502        1       0.00000178       0.01071864       0.01351456
Pt       1.40360695       2.42933234      24.56436932        1      -0.00000109      -0.01077662      -0.00226420
Pt       4.18729687       2.41753679      24.61312572        1       0.00276437       0.00159685      -0.00094176
Pt       7.04155839       2.41753680      24.61312641        1      -0.00276086       0.00159557      -0.00095262
Pt       2.79838627       4.86733390      24.56513555        1       0.00927997      -0.00536015       0.01351500
Pt       5.61442778       4.88940068      24.61312579        1       0.00000167      -0.00319428      -0.00094177
Pt       8.43046947       4.86733386      24.56513532        1      -0.00928258      -0.00536234       0.01351525
N        5.61442746       3.24149168      26.94056677        0       0.00001674      -0.00001555      -0.03257620
H        5.61442814       4.18850056      26.51488937        0      -0.00000325       0.03001800       0.00652128
H        6.43456177       2.76798708      26.51488972        0       0.02598122      -0.01499894       0.00653592
H        4.79429416       2.76798681      26.51488924        0      -0.02599496      -0.01500305       0.00652360
