31
Lattice="8.421641763931781 0.0 0.0 4.2108208819658905 7.293355709136913 0.0 0.0 0.0 44.584161137365626" Properties=species:S:1:pos:R:3:tags:I:1:forces:R:3 energy=-172.57716369628906 free_energy=-172.57716369628906 stress="0.010478968732059002 5.829928539924367e-09 -4.165436884306928e-09 5.829928539924367e-09 0.010478970594704151 3.7790934825920885e-09 -4.165436884306928e-09 3.7790934825920885e-09 -0.0001822127669584006" pbc="T T T"
Pt       1.40360696       0.81037286      20.00000000        3      -0.00091243       0.00070174      -0.00487038
Pt       4.21082088       0.81037286      20.00000000        3      -0.00008660       0.00047833      -0.00420758
Pt       7.01803480       0.81037286      20.00000000        3       0.00106414       0.00043618      -0.00487205
Pt       2.80721392       3.24149143      20.00000000        3       0.00004279       0.00008947       0.00331923
Pt       5.61442784       3.24149143      20.00000000        3      -0.00010073      -0.00000883       0.00331938
Pt       8.42164176       3.24149143      20.00000000        3      -0.00015225      -0.00114241      -0.00487271
Pt       4.21082088       5.67261000      20.00000000        3       0.00006011      -0.00007961       0.00331998
Pt       7.01803480       5.67261000      20.00000000        3      -0.00037346      -0.00031364      -0.00420895
Pt       9.82524872       5.67261000      20.00000000        3       0.00045820      -0.00016118      -0.00420901
Pt      -0.00000000       1.62074571      22.29208057        2       0.00000238      -0.00000229      -0.05327113
Pt       2.80721392       1.62074571      22.29208057        2       0.02598350       0.03246864      -0.00567554
Pt       5.61442784       1.62074571      22.29208057        2      -0.02727173       0.03339273      -0.00389178
Pt       1.40360696       4.05186428      22.29208057        2       0.04255633       0.00691843      -0.00388967
Pt       4.21082088       4.05186428      22.29208057        2       0.00000125      -0.00000013       0.05031738
Pt       7.01803480       4.05186428      22.29208057        2      -0.04111518       0.00626691      -0.00567522
Pt       2.80721392       6.48298285      22.29208057        2       0.01512872      -0.03873704      -0.00567435
Pt       5.61442784       6.48298285      22.29208057        2      -0.01528651      -0.04031133      -0.00389202
Pt       8.42164176       6.48298285      22.29208057        2       0.00000078       0.00000333      -0.03515415
Pt       0.00049540       0.00689220      24.57902255        1       0.00323730      -0.01788728      -0.00410673
Pt       2.80833632      -0.00153366      24.57707623        1      -0.00738628      -0.00062462      -0.00708458
Pt       5.61253835      -0.00020508      24.57707622        1       0.00315231       0.00670641      -0.00708422
Pt       1.39739054       2.42810109      24.57902260        1       0.01387311       0.01174824      -0.00410670
Pt       4.20822960       2.41651289      24.58942608        1      -0.00550853       0.02318206       0.00538497
Pt       7.02375596       2.42724350      24.57902268        1      -0.01710935       0.00614020      -0.00410542
Pt       2.79586093       4.87178420      24.58942623        1       0.02282783      -0.00682123       0.00538443
Pt       5.62837230       4.86729575      24.58942606        1      -0.01732197      -0.01636027       0.00538440
Pt       8.42240856       4.86397607      24.57707653        1       0.00423684      -0.00608335      -0.00708207
N        4.21082064       4.05186473      27.59415651        0       0.00002563      -0.00002919       0.00236553
H        5.15593835       4.05669569      27.19876086        0      -0.02402996       0.02386086       0.03305345
H        3.74244639       3.23095312      27.19876075        0       0.03267016       0.00887392       0.03304965
H        3.73407835       4.86794353      27.19876100        0      -0.00866640      -0.03270520       0.03303598
