31
Lattice="8.421641763931781 0.0 0.0 4.2108208819658905 7.293355709136913 0.0 0.0 0.0 44.584161137365626" Properties=species:S:1:pos:R:3:tags:I:1:forces:R:3 energy=-172.793212890625 free_energy=-172.793212890625 stress="0.01025573443621397 2.96695557011617e-09 6.529750962158687e-09 2.96695557011617e-09 0.01025573629885912 2.895536477254268e-09 6.529750962158687e-09 2.895536477254268e-09 -4.6714536438230425e-05" pbc="T T T"
Pt       1.40360696       0.81037286      20.00000000        3       0.00000097      -0.00000259      -0.00486124
Pt       4.21082088       0.81037286      20.00000000        3      -0.00227718       0.00266034       0.00166804
Pt       7.01803480       0.81037286      20.00000000        3       0.00290358       0.00139609       0.00231433
Pt       2.80721392       3.24149143      20.00000000        3      -0.00024103      -0.00321541       0.00231320
Pt       5.61442784       3.24149143      20.00000000        3      -0.00000150       0.00000008       0.03026351
Pt       8.42164176       3.24149143      20.00000000        3      -0.00116465      -0.00330404       0.00166613
Pt       4.21082088       5.67261000      20.00000000        3       0.00344672       0.00064403       0.00166738
Pt       7.01803480       5.67261000      20.00000000        3      -0.00266578       0.00181995       0.00231338
Pt       9.82524872       5.67261000      20.00000000        3      -0.00000100       0.00000258      -0.01544473
Pt      -0.00000000       1.62074571      22.29208057        2      -0.13467993       0.06624768       0.03022448
Pt       2.80721392       1.62074571      22.29208057        2       0.12471288       0.08350876       0.03021790
Pt       5.61442784       1.62074571      22.29208057        2      -0.00400470       0.11404128       0.03495081
Pt       1.40360696       4.05186428      22.29208057        2       0.00719887      -0.04540996      -0.07373744
Pt       4.21082088       4.05186428      22.29208057        2       0.10076801      -0.05355304       0.03494930
Pt       7.01803480       4.05186428      22.29208057        2      -0.09676386      -0.06049173       0.03495368
Pt       2.80721392       6.48298285      22.29208057        2       0.03572763       0.02894087      -0.07373777
Pt       5.61442784       6.48298285      22.29208057        2       0.00996461      -0.14975724       0.03021736
Pt       8.42164176       6.48298285      22.29208057        2      -0.04292381       0.01647348      -0.07373931
Pt       0.00873033      -0.00866355      24.56865878        1      -0.01409193       0.02865887      -0.02491422
Pt       2.81035166       0.01189171      24.56865868        1      -0.01777090      -0.02652930      -0.02491307
Pt       5.60391757      -0.01354434      24.56854531        1       0.02910207       0.03360814      -0.00102194
Pt       1.39174007       2.42788988      24.56865845        1       0.03185595      -0.00212779      -0.02491315
Pt       4.17594245       2.43083536      24.60715544        1       0.00514878      -0.02170881      -0.00091221
Pt       7.03571882       2.40105395      24.60715646        1       0.01623137       0.01531212      -0.00092644
Pt       2.80073983       4.87811101      24.56854472        1       0.01455290      -0.04200336      -0.00102268
Pt       5.63162137       4.89258461      24.60715573        1      -0.02137025       0.00639377      -0.00091409
Pt       8.43862599       4.85990694      24.56854477        1      -0.04365727       0.00839559      -0.00102152
N        5.61442849       3.24149131      26.89807685        0      -0.00004141      -0.00000151       0.02238399
H        6.29200389       2.58110413      26.46327044        0       0.01295789       0.02590859       0.02065392
H        4.70372741       2.98488703      26.46327064        0       0.01599608      -0.02417047       0.02066856
H        5.84755180       4.15848319      26.46326976        0      -0.02891315      -0.00173712       0.02065426
