31
Lattice="8.421641763931781 0.0 0.0 4.2108208819658905 7.293355709136913 0.0 0.0 0.0 44.584161137365626" Properties=species:S:1:pos:R:3:tags:I:1:forces:R:3 energy=-173.71585083007812 free_energy=-173.71585083007812 stress="0.010695441626012325 -1.2148058115002414e-09 8.975686860424048e-09 -1.2148058115002414e-09 0.010695431381464005 4.176319845505816e-10 8.975686860424048e-09 4.176319845505816e-10 5.400354348239489e-05" pbc="T T T"
Pt       1.40360696       0.81037286      20.00000000        3      -0.00232932      -0.00182323      -0.00573367
Pt       4.21082088       0.81037286      20.00000000        3       0.00045085       0.00437286       0.01247111
Pt       7.01803480       0.81037286      20.00000000        3       0.00273897      -0.00110972      -0.00573382
Pt       2.80721392       3.24149143      20.00000000        3       0.00356540      -0.00257605       0.01246896
Pt       5.61442784       3.24149143      20.00000000        3      -0.00401396      -0.00179913       0.01247016
Pt       8.42164176       3.24149143      20.00000000        3      -0.00056637      -0.00634749      -0.00905132
Pt       4.21082088       5.67261000      20.00000000        3      -0.00040856       0.00292965      -0.00573432
Pt       7.01803480       5.67261000      20.00000000        3      -0.00521603       0.00366750      -0.00905016
Pt       9.82524872       5.67261000      20.00000000        3       0.00577973       0.00268559      -0.00905055
Pt      -0.00000000       1.62074571      22.29208057        2      -0.00926620       0.00777826       0.00324100
Pt       2.80721392       1.62074571      22.29208057        2       0.06389771       0.03977284      -0.02262846
Pt       5.61442784       1.62074571      22.29208057        2      -0.06639649       0.03544713      -0.02262948
Pt       1.40360696       4.05186428      22.29208057        2       0.05656351      -0.03130976       0.03390814
Pt       4.21082088       4.05186428      22.29208057        2       0.00249867      -0.07522416      -0.02262848
Pt       7.01803480       4.05186428      22.29208057        2      -0.05539919      -0.03332974       0.03390741
Pt       2.80721392       6.48298285      22.29208057        2      -0.00210360      -0.01191481       0.00324069
Pt       5.61442784       6.48298285      22.29208057        2       0.01136981       0.00413752       0.00323849
Pt       8.42164176       6.48298285      22.29208057        2      -0.00116480       0.06464256       0.03390581
Pt       0.00000030      -0.00000019      24.58864034        1      -0.00000164       0.00000040       0.00205165
Pt       2.80792505       0.00285197      24.60570016        1      -0.00598217      -0.00343713       0.00133006
Pt       5.62577316      -0.01940932      24.60028388        1      -0.01051602       0.02520553      -0.01356311
Pt       1.38112534       2.43099757      24.60028400        1       0.02708695      -0.00349513      -0.01356195
Pt       4.21082080       2.43111840      24.65962174        1      -0.00000089      -0.00000103       0.02951849
Pt       7.01520889       2.43030806      24.60570014        1       0.00596971      -0.00346370       0.00133017
Pt       2.80932867       4.86019513      24.60570025        1       0.00001274       0.00690109       0.00132975
Pt       5.62556388       4.88176695      24.60028389        1      -0.01657191      -0.02170999      -0.01356205
Pt       8.42164175       4.86223705      24.58918334        1       0.00000237      -0.00000010      -0.00003886
N        4.21082008       2.43111834      26.72769384        0       0.00008193       0.00001651       0.01218247
H        3.72667169       1.59012465      27.05203753        0      -0.00967462      -0.01920164      -0.01453165
H        3.72457350       3.27090110      27.05203727        0      -0.01178767       0.01796272      -0.01453710
H        5.18121848       2.43232981      27.05203739        0       0.02138121       0.00122283      -0.01455922
