31
Lattice="8.421641763931781 0.0 0.0 4.2108208819658905 7.293355709136913 0.0 0.0 0.0 44.584161137365626" Properties=species:S:1:pos:R:3:tags:I:1:forces:R:3 energy=-172.793212890625 free_energy=-172.793212890625 stress="0.010255701839923859 -2.610540006386941e-09 -1.7739156810137047e-09 -2.610540006386941e-09 0.010255701839923859 -3.747805121800951e-10 -1.7739156810137047e-09 -3.747805121800951e-10 -4.67419158667326e-05" pbc="T T T"
Pt       1.40360696       0.81037286      20.00000000        3       0.00000097      -0.00000248      -0.00486058
Pt       4.21082088       0.81037286      20.00000000        3      -0.00290396       0.00139680       0.00231472
Pt       7.01803480       0.81037286      20.00000000        3       0.00227608       0.00265981       0.00166732
Pt       2.80721392       3.24149143      20.00000000        3       0.00116712      -0.00330544       0.00166652
Pt       5.61442784       3.24149143      20.00000000        3      -0.00000213      -0.00000046       0.03026342
Pt       8.42164176       3.24149143      20.00000000        3       0.00024335      -0.00321455       0.00231284
Pt       4.21082088       5.67261000      20.00000000        3       0.00266547       0.00181810       0.00231338
Pt       7.01803480       5.67261000      20.00000000        3      -0.00344683       0.00064545       0.00166598
Pt       9.82524872       5.67261000      20.00000000        3      -0.00000137       0.00000291      -0.01544493
Pt      -0.00000000       1.62074571      22.29208057        2      -0.12471023       0.08350770       0.03022135
Pt       2.80721392       1.62074571      22.29208057        2       0.13467631       0.06624536       0.03021576
Pt       5.61442784       1.62074571      22.29208057        2       0.00400580       0.11403885       0.03494579
Pt       1.40360696       4.05186428      22.29208057        2      -0.00719765      -0.04540852      -0.07373653
Pt       4.21082088       4.05186428      22.29208057        2       0.09676015      -0.06048939       0.03494430
Pt       7.01803480       4.05186428      22.29208057        2      -0.10076653      -0.05355366       0.03494746
Pt       2.80721392       6.48298285      22.29208057        2       0.04292466       0.01647245      -0.07373769
Pt       5.61442784       6.48298285      22.29208057        2      -0.00996742      -0.14975439       0.03021542
Pt       8.42164176       6.48298285      22.29208057        2      -0.03572464       0.02894091      -0.07374017
Pt      -0.00313696       0.01189081      24.56865841        1       0.01776920      -0.02652266      -0.02491373
Pt       2.79848449      -0.00866307      24.56865904        1       0.01408600       0.02865547      -0.02491352
Pt       5.62493752      -0.01354387      24.56854375        1      -0.02909667       0.03360236      -0.00102302
Pt       1.41547481       2.42788978      24.56865864        1      -0.03186574      -0.00212710      -0.02491423
Pt       4.19313655       2.40105428      24.60715384        1      -0.01622850       0.01531175      -0.00090756
Pt       7.05291288       2.43083548      24.60715420        1      -0.00514004      -0.02171433      -0.00091831
Pt       2.79023000       4.85990691      24.56854460        1       0.04364755       0.00840048      -0.00102235
Pt       5.59723366       4.89258420      24.60715380        1       0.02137520       0.00639764      -0.00090628
Pt       8.42811512       4.87811099      24.56854484        1      -0.01454615      -0.04200428      -0.00102137
N        5.61442799       3.24149131      26.89807578        0      -0.00000006       0.00000281       0.02241623
H        6.52512698       2.98488500      26.46326864        0      -0.01594341      -0.02418139       0.02065242
H        4.93685041       2.58110685      26.46326791        0      -0.01297045       0.02588901       0.02064856
H        5.38130629       4.15848272      26.46326833        0       0.02891392      -0.00170940       0.02064888
