31
Lattice="8.421641763931781 0.0 0.0 4.2108208819658905 7.293355709136913 0.0 0.0 0.0 44.584161137365626" Properties=species:S:1:pos:R:3:tags:I:1:forces:R:3 energy=-172.80612182617188 free_energy=-172.80612182617188 stress="0.010317443870007992 9.572597159390739e-10 3.7029130872667793e-09 9.572597159390739e-10 0.010317466221749783 2.328944592733251e-09 3.7029130872667793e-09 2.328944592733251e-09 1.4709124116052408e-05" pbc="T T T"
Pt       1.40360696       0.81037286      20.00000000        3      -0.00118097       0.00067947      -0.00975463
Pt       4.21082088       0.81037286      20.00000000        3       0.00000169       0.00306434      -0.00310043
Pt       7.01803480       0.81037286      20.00000000        3       0.00117924       0.00068010      -0.00975621
Pt       2.80721392       3.24149143      20.00000000        3       0.00054386       0.00031250       0.01786736
Pt       5.61442784       3.24149143      20.00000000        3      -0.00054385       0.00031290       0.01786649
Pt       8.42164176       3.24149143      20.00000000        3       0.00000142      -0.00136408      -0.00975707
Pt       4.21082088       5.67261000      20.00000000        3       0.00000238      -0.00062466       0.01786819
Pt       7.01803480       5.67261000      20.00000000        3      -0.00265753      -0.00153024      -0.00310186
Pt       9.82524872       5.67261000      20.00000000        3       0.00265369      -0.00153051      -0.00310135
Pt      -0.00000000       1.62074571      22.29208057        2       0.00000289      -0.00000251      -0.12116197
Pt       2.80721392       1.62074571      22.29208057        2       0.12058013       0.08953831       0.01156580
Pt       5.61442784       1.62074571      22.29208057        2      -0.12058207       0.08953957       0.01156467
Pt       1.40360696       4.05186428      22.29208057        2       0.13783628       0.05965589       0.01156989
Pt       4.21082088       4.05186428      22.29208057        2      -0.00000012       0.00000082       0.08417799
Pt       7.01803480       4.05186428      22.29208057        2      -0.13783601       0.05965616       0.01156684
Pt       2.80721392       6.48298285      22.29208057        2       0.01725599      -0.14919721       0.01156807
Pt       5.61442784       6.48298285      22.29208057        2      -0.01725542      -0.14919320       0.01156535
Pt       8.42164176       6.48298285      22.29208057        2      -0.00000057       0.00000112      -0.05945190
Pt       0.00000051       0.01175069      24.56734094        1      -0.00000134      -0.01475496       0.01010545
Pt       2.80793657      -0.00041712      24.56338274        1       0.00592650      -0.00342357      -0.00191045
Pt       5.61370534      -0.00041735      24.56338203        1      -0.00592592      -0.00342496      -0.00190026
Pt       1.39343054       2.42524299      24.56734140        1       0.01277690       0.00737732       0.01010577
Pt       4.21082087       2.41191754      24.61556653        1       0.00000171      -0.00761110      -0.00048401
Pt       7.02821124       2.42524298      24.56734144        1      -0.01277819       0.00737719       0.01010621
Pt       2.79058579       4.87183736      24.61556728        1      -0.00659389       0.00380878      -0.00049111
Pt       5.63105618       4.87183744      24.61556638        1       0.00659054       0.00380478      -0.00048082
Pt       8.42164166       4.86307108      24.56338233        1       0.00000298       0.00684713      -0.00190836
N        4.21082102       4.05186435      26.96079508        0      -0.00001794      -0.00002686      -0.02613464
H        4.21082091       3.10656535      26.53156550        0       0.00000269      -0.03145723       0.00500738
H        3.39216822       4.52451394      26.53156588        0      -0.02725933       0.01573948       0.00500065
H        5.02947329       4.52451382      26.53156613        0       0.02727433       0.01574531       0.00498891
