31
Lattice="8.421641763931781 0.0 0.0 4.2108208819658905 7.293355709136913 0.0 0.0 0.0 44.584161137365626" Properties=species:S:1:pos:R:3:tags:I:1:forces:R:3 energy=-172.80596923828125 free_energy=-172.80596923828125 stress="0.010263779200613499 -4.4493175664683804e-05 -8.822602831060067e-05 -4.4493175664683804e-05 0.010315191932022572 -5.092600258649327e-05 -8.822602831060067e-05 -5.092600258649327e-05 -2.519293047953397e-05" pbc="T T T"
Pt       1.40360696       0.81037286      20.00000000        3      -0.00119362       0.00088898      -0.00833592
Pt       4.21082088       0.81037286      20.00000000        3       0.00177939       0.00456525       0.00073338
Pt       7.01803480       0.81037286      20.00000000        3       0.00235672       0.00135974      -0.00847211
Pt       2.80721392       3.24149143      20.00000000        3       0.00228199       0.00131649       0.02806669
Pt       5.61442784       3.24149143      20.00000000        3      -0.00033809      -0.00209177       0.01607436
Pt       8.42164176       3.24149143      20.00000000        3       0.00017550      -0.00147989      -0.00833720
Pt       4.21082088       5.67261000      20.00000000        3      -0.00197781       0.00075624       0.01607537
Pt       7.01803480       5.67261000      20.00000000        3      -0.00047302      -0.00026926      -0.01008806
Pt       9.82524872       5.67261000      20.00000000        3       0.00484267      -0.00074192       0.00073180
Pt      -0.00000000       1.62074571      22.29208057        2      -0.01717436      -0.00991565      -0.12073044
Pt       2.80721392       1.62074571      22.29208057        2       0.11912175       0.10260209       0.02591534
Pt       5.61442784       1.62074571      22.29208057        2      -0.16237202       0.08812378       0.02518618
Pt       1.40360696       4.05186428      22.29208057        2       0.14841889       0.05186217       0.02591871
Pt       4.21082088       4.05186428      22.29208057        2      -0.05769515      -0.03330802       0.08368676
Pt       7.01803480       4.05186428      22.29208057        2      -0.10972334       0.01324038      -0.04019630
Pt       2.80721392       6.48298285      22.29208057        2      -0.00486670      -0.18468258       0.02518681
Pt       5.61442784       6.48298285      22.29208057        2      -0.04339762      -0.10164283      -0.04020596
Pt       8.42164176       6.48298285      22.29208057        2       0.00832026       0.00480334      -0.06137791
Pt      -0.01871700      -0.00619169      24.56863102        1       0.01606256       0.01267499       0.00781189
Pt       2.79204284      -0.01109071      24.56279985        1       0.01352292      -0.00445289       0.00658584
Pt       5.60245662      -0.00691260      24.56256514        1      -0.01721137      -0.00993052      -0.00170591
Pt       1.36356236       2.40799869      24.56969634        1       0.03841733       0.02217756      -0.00401133
Pt       4.19419051       2.39675965      24.62805627        1       0.00596881       0.03319158      -0.00590996
Pt       7.00331336       2.41800485      24.56863189        1       0.01901037       0.00757674       0.00780211
Pt       2.76914224       4.86501346      24.62805878        1       0.03173739      -0.01142413      -0.00593157
Pt       5.62072586       4.86587361      24.59392319        1      -0.00276952      -0.00160569       0.02678998
Pt       8.40445321       4.85464399      24.56280101        1       0.00288957       0.01393357       0.00657564
N        3.95966474       3.90686080      26.93106598        0      -0.02167914      -0.01257950      -0.01033226
H        4.73014180       4.35169471      26.38980078        0      -0.00634466      -0.00365932       0.02858068
H        3.91707904       2.93583357      26.56361290        0       0.01472376       0.01186405      -0.00303725
H        3.09743908       4.35549326      26.56361282        0       0.01758650       0.00684702      -0.00304942
