31
Lattice="8.421641763931781 0.0 0.0 4.2108208819658905 7.293355709136913 0.0 0.0 0.0 44.584161137365626" Properties=species:S:1:pos:R:3:tags:I:1:forces:R:3 energy=-173.7158660888672 free_energy=-173.7158660888672 stress="0.010695400647819042 -5.373441136491408e-10 9.241638565526955e-09 -5.373441136491408e-10 0.010695436038076878 -5.10136821674223e-10 9.241638565526955e-09 -5.10136821674223e-10 5.402614988270216e-05" pbc="T T T"
Pt       1.40360696       0.81037286      20.00000000        3      -0.00274044      -0.00111058      -0.00573266
Pt       4.21082088       0.81037286      20.00000000        3      -0.00044681       0.00437290       0.01247090
Pt       7.01803480       0.81037286      20.00000000        3       0.00232764      -0.00182264      -0.00573415
Pt       2.80721392       3.24149143      20.00000000        3       0.00401404      -0.00179948       0.01246944
Pt       5.61442784       3.24149143      20.00000000        3      -0.00356629      -0.00257541       0.01246956
Pt       8.42164176       3.24149143      20.00000000        3       0.00056923      -0.00634729      -0.00905091
Pt       4.21082088       5.67261000      20.00000000        3       0.00041401       0.00292913      -0.00573325
Pt       7.01803480       5.67261000      20.00000000        3      -0.00578363       0.00268483      -0.00904918
Pt       9.82524872       5.67261000      20.00000000        3       0.00521241       0.00366857      -0.00905064
Pt      -0.00000000       1.62074571      22.29208057        2       0.00927397       0.00777760       0.00323818
Pt       2.80721392       1.62074571      22.29208057        2       0.06639171       0.03544611      -0.02262806
Pt       5.61442784       1.62074571      22.29208057        2      -0.06389842       0.03977262      -0.02263196
Pt       1.40360696       4.05186428      22.29208057        2       0.05539629      -0.03333231       0.03390842
Pt       4.21082088       4.05186428      22.29208057        2      -0.00249399      -0.07522091      -0.02262921
Pt       7.01803480       4.05186428      22.29208057        2      -0.05656597      -0.03130680       0.03390731
Pt       2.80721392       6.48298285      22.29208057        2      -0.01137002       0.00413940       0.00323589
Pt       5.61442784       6.48298285      22.29208057        2       0.00210242      -0.01191721       0.00323898
Pt       8.42164176       6.48298285      22.29208057        2       0.00116491       0.06464194       0.03390615
Pt       0.00000029      -0.00000023      24.58864043        1      -0.00000030      -0.00000062       0.00205195
Pt       2.79586697      -0.01941144      24.60028373        1       0.01052472       0.02521229      -0.01356311
Pt       5.61371612       0.00285351      24.60570044        1       0.00598141      -0.00344158       0.00132863
Pt       1.40643431       2.43030762      24.60570093        1      -0.00596930      -0.00345806       0.00132065
Pt       4.21082093       2.43111838      24.65961928        1      -0.00000382       0.00000006       0.02956679
Pt       7.04051868       2.43099703      24.60028351        1      -0.02709723      -0.00349180      -0.01355325
Pt       2.79607687       4.88176962      24.60028319        1       0.01657223      -0.02172279      -0.01355392
Pt       5.61231213       4.86019396      24.60570056        1      -0.00001157       0.00690211       0.00132009
Pt       8.42164160       4.86223700      24.58918331        1       0.00000091       0.00000012      -0.00003862
N        4.21082005       2.43111877      26.72769279        0       0.00008446      -0.00000396       0.01212126
H        4.69706891       3.27090211      27.05203667        0       0.01176848       0.01793865      -0.01454304
H        4.69497097       1.59012410      27.05203679        0       0.00964509      -0.01915863      -0.01454400
H        3.24042448       2.43233000      27.05203698        0      -0.02149613       0.00122390      -0.01451809
