31
Lattice="8.421641763931781 0.0 0.0 4.2108208819658905 7.293355709136913 0.0 0.0 0.0 44.584161137365626" Properties=species:S:1:pos:R:3:tags:I:1:forces:R:3 energy=-172.5789794921875 free_energy=-172.5789794921875 stress="0.010473106056451797 6.941261454507242e-10 -5.523081103575578e-09 6.941261454507242e-10 0.010473099537193775 2.8594868695108744e-09 -5.523081103575578e-09 2.8594868695108744e-09 -0.00020023131219204515" pbc="T T T"
Pt       1.40360696       0.81037286      20.00000000        3       0.00000097      -0.00000254      -0.00540119
Pt       4.21082088       0.81037286      20.00000000        3      -0.00079453       0.00067993      -0.00219902
Pt       7.01803480       0.81037286      20.00000000        3       0.00074391       0.00084648      -0.00204509
Pt       2.80721392       3.24149143      20.00000000        3       0.00036296      -0.00107124      -0.00204596
Pt       5.61442784       3.24149143      20.00000000        3      -0.00000216      -0.00000042       0.00783736
Pt       8.42164176       3.24149143      20.00000000        3      -0.00019048      -0.00102953      -0.00220221
Pt       4.21082088       5.67261000      20.00000000        3       0.00099015       0.00035035      -0.00219983
Pt       7.01803480       5.67261000      20.00000000        3      -0.00110978       0.00022487      -0.00204566
Pt       9.82524872       5.67261000      20.00000000        3      -0.00000113       0.00000238      -0.00681710
Pt      -0.00000000       1.62074571      22.29208057        2      -0.03218976       0.01882735      -0.02422066
Pt       2.80721392       1.62074571      22.29208057        2       0.03240382       0.01846314      -0.02422178
Pt       5.61442784       1.62074571      22.29208057        2       0.00152503       0.04198226       0.02925684
Pt       1.40360696       4.05186428      22.29208057        2       0.00078608      -0.01329018      -0.03097432
Pt       4.21082088       4.05186428      22.29208057        2       0.03559515      -0.02231357       0.02925967
Pt       7.01803480       4.05186428      22.29208057        2      -0.03712385      -0.01966801       0.02926156
Pt       2.80721392       6.48298285      22.29208057        2       0.01111974       0.00732461      -0.03097654
Pt       5.61442784       6.48298285      22.29208057        2      -0.00021350      -0.03729280      -0.02422228
Pt       8.42164176       6.48298285      22.29208057        2      -0.01190203       0.00596783      -0.03097725
Pt       0.00125018       0.00150237      24.57723225        1      -0.00713295      -0.00009528      -0.00424328
Pt       2.80528757       0.00033115      24.57723236        1       0.00364949      -0.00612921      -0.00424239
Pt       5.61499729      -0.00636813      24.57875341        1       0.00299158       0.01931873      -0.00732294
Pt       1.40428339       2.42928468      24.57723243        1       0.00348320       0.00622346      -0.00424176
Pt       4.19857765       2.42122468      24.58945419        1       0.02483087       0.00794641       0.00628388
Pt       7.03272463       2.42546254      24.58945420        1      -0.01929757       0.01753123       0.00628503
Pt       2.80141435       4.86492799      24.57875357        1       0.01523671      -0.01224922      -0.00733182
Pt       5.61198094       4.87778717      24.58945422        1      -0.00553323      -0.02547840       0.00628427
Pt       8.42687195       4.86591446      24.57875372        1      -0.01822887      -0.00706915      -0.00733116
N        5.61442762       3.24149148      27.59559760        0       0.00003784      -0.00000709       0.00371334
H        6.55914002       3.23643185      27.19906524        0      -0.02439494      -0.02474848       0.03570350
H        5.13769023       2.42587683      27.19906529        0      -0.00925159       0.03347410       0.03568998
H        5.14645368       4.06216560      27.19906529        0       0.03360898      -0.00871821       0.03568671
