31
Lattice="8.421641763931781 0.0 0.0 4.2108208819658905 7.293355709136913 0.0 0.0 0.0 44.584161137365626" Properties=species:S:1:pos:R:3:tags:I:1:forces:R:3 energy=-172.65090942382812 free_energy=-172.65090942382812 stress="0.010420474223792553 6.175179118050877e-11 -8.675314910888687e-10 6.175179118050877e-11 0.010420490987598896 1.0556431284669543e-09 -8.675314910888687e-10 1.0556431284669543e-09 -9.69031680142507e-06" pbc="T T T"
Pt       1.40360696       0.81037286      20.00000000        3       0.00000061      -0.00000272      -0.00922588
Pt       4.21082088       0.81037286      20.00000000        3      -0.00161669       0.00377603       0.01037911
Pt       7.01803480       0.81037286      20.00000000        3       0.00161630       0.00377490       0.01037809
Pt       2.80721392       3.24149143      20.00000000        3       0.00246382      -0.00329110       0.01037750
Pt       5.61442784       3.24149143      20.00000000        3      -0.00000173      -0.00000003       0.05188432
Pt       8.42164176       3.24149143      20.00000000        3      -0.00246088      -0.00329061       0.01037645
Pt       4.21082088       5.67261000      20.00000000        3       0.00408287      -0.00048489       0.01037860
Pt       7.01803480       5.67261000      20.00000000        3      -0.00408292      -0.00048436       0.01037738
Pt       9.82524872       5.67261000      20.00000000        3      -0.00000116       0.00000280      -0.00294730
Pt      -0.00000000       1.62074571      22.29208057        2      -0.14261767       0.08233893      -0.01449997
Pt       2.80721392       1.62074571      22.29208057        2       0.14262050       0.08233973      -0.01450217
Pt       5.61442784       1.62074571      22.29208057        2      -0.00000229       0.10560487      -0.00440217
Pt       1.40360696       4.05186428      22.29208057        2       0.00000182      -0.00523524      -0.04636956
Pt       4.21082088       4.05186428      22.29208057        2       0.09146000      -0.05280311      -0.00440132
Pt       7.01803480       4.05186428      22.29208057        2      -0.09146179      -0.05280343      -0.00440313
Pt       2.80721392       6.48298285      22.29208057        2       0.00453543       0.00261873      -0.04636995
Pt       5.61442784       6.48298285      22.29208057        2      -0.00000242      -0.16468136      -0.01450209
Pt       8.42164176       6.48298285      22.29208057        2      -0.00453232       0.00262070      -0.04637040
Pt       0.00520194       0.00300295      24.55814377        1      -0.02220131      -0.01281875       0.03848182
Pt       2.80201252       0.00300303      24.55814286        1       0.02220122      -0.01281842       0.03848229
Pt       5.61442784       0.00060275      24.57922970        1      -0.00000223      -0.02770094       0.00173284
Pt       1.40360740       2.42511234      24.55814356        1      -0.00000165       0.02563407       0.03848216
Pt       4.18051079       2.41361866      24.62834586        1       0.03289242       0.01899268      -0.01524487
Pt       7.04834456       2.41361941      24.62834619        1      -0.03289085       0.01898386      -0.01524422
Pt       2.80773570       4.86193559      24.57922991        1      -0.02398536       0.01385068       0.00173391
Pt       5.61442846       4.89723576      24.62834597        1      -0.00000763      -0.03797780      -0.01524463
Pt       8.42111878       4.86193534      24.57922997        1       0.02399368       0.01385452       0.00173487
N        5.61442755       3.24149166      26.85409048        0       0.00000872      -0.00000741       0.03310278
H        4.81739372       3.70165952      26.34143783        0       0.01376021      -0.00794543      -0.00472867
H        6.41146198       3.70165906      26.34143825        0      -0.01376498      -0.00794435      -0.00472322
H        5.61442824       2.32115589      26.34143872        0      -0.00000363       0.01589744      -0.00472251
