31
Lattice="8.421641763931781 0.0 0.0 4.2108208819658905 7.293355709136913 0.0 0.0 0.0 44.584161137365626" Properties=species:S:1:pos:R:3:tags:I:1:forces:R:3 energy=-172.5792236328125 free_energy=-172.5792236328125 stress="0.010523720644414425 4.323225948610343e-05 -5.4280586482491344e-05 4.323225948610343e-05 0.010473809204995632 -3.1335122912423685e-05 -5.4280586482491344e-05 -3.1335122912423685e-05 -0.0001397178421029821" pbc="T T T"
Pt       1.40360696       0.81037286      20.00000000        3      -0.00029391       0.00084190      -0.00785011
Pt       4.21082088       0.81037286      20.00000000        3      -0.00003992       0.00200014      -0.00325656
Pt       7.01803480       0.81037286      20.00000000        3       0.00087723       0.00050594      -0.00977793
Pt       2.80721392       3.24149143      20.00000000        3       0.00241902       0.00139568       0.01129717
Pt       5.61442784       3.24149143      20.00000000        3      -0.00144972      -0.00047958       0.00436395
Pt       8.42164176       3.24149143      20.00000000        3       0.00058491      -0.00067722      -0.00785205
Pt       4.21082088       5.67261000      20.00000000        3      -0.00113656      -0.00101263       0.00436446
Pt       7.01803480       5.67261000      20.00000000        3      -0.00098591      -0.00056571      -0.00677264
Pt       9.82524872       5.67261000      20.00000000        3       0.00171092      -0.00103409      -0.00325808
Pt      -0.00000000       1.62074571      22.29208057        2       0.01191248       0.00687174      -0.04704101
Pt       2.80721392       1.62074571      22.29208057        2       0.04504259       0.05127380       0.01217610
Pt       5.61442784       1.62074571      22.29208057        2      -0.05828790       0.04750836      -0.00507184
Pt       1.40360696       4.05186428      22.29208057        2       0.06692644       0.01337066       0.01217820
Pt       4.21082088       4.05186428      22.29208057        2      -0.03912047      -0.02258622       0.05191440
Pt       7.01803480       4.05186428      22.29208057        2      -0.04463468      -0.00174619      -0.02778767
Pt       2.80721392       6.48298285      22.29208057        2       0.01200590      -0.07422978      -0.00506753
Pt       5.61442784       6.48298285      22.29208057        2      -0.02383407      -0.03777801      -0.02778756
Pt       8.42164176       6.48298285      22.29208057        2       0.00456958       0.00263879      -0.04578966
Pt       0.00166862       0.00293625      24.57342314        1      -0.00923266       0.01790358       0.01954743
Pt       2.80116301      -0.00963682      24.57148176        1       0.00189711      -0.01141562       0.02710733
Pt       5.61487548       0.00025823      24.56720310        1      -0.00664931      -0.00383935       0.03755176
Pt       1.40299586       2.43076562      24.57805127        1      -0.03718586      -0.02147002       0.01029941
Pt       4.21240275       2.41301571      24.60530570        1       0.00087538      -0.00114987      -0.03417209
Pt       7.02141160       2.43109516      24.57342179        1       0.01089335      -0.01695292       0.01956040
Pt       2.79232686       4.87265821      24.60530645        1      -0.00055346       0.00133631      -0.03417018
Pt       5.60234962       4.85526291      24.58929127        1       0.03500208       0.02021545      -0.01082478
Pt       8.41027029       4.86181516      24.57148277        1      -0.00893805       0.00735201       0.02709755
N        3.50891447       3.64661851      27.60064131        0      -0.00151545      -0.00088479       0.01742882
H        3.52430617       2.70813192      27.19143319        0       0.01604916       0.01687950      -0.00894901
H        2.70385685       4.12919113      27.19143310        0       0.02264084       0.00546396      -0.00895303
H        4.34316338       4.12827197      27.25581232        0       0.00045109       0.00026405       0.03949487
