31
Lattice="8.421641763931781 0.0 0.0 4.2108208819658905 7.293355709136913 0.0 0.0 0.0 44.584161137365626" Properties=species:S:1:pos:R:3:tags:I:1:forces:R:3 energy=-172.76148986816406 free_energy=-172.76148986816406 stress="0.01042989082634449 6.296255014603958e-05 -7.341624586842954e-05 6.296255014603958e-05 0.010315760038793087 0.00012294581392779946 -7.341624586842954e-05 0.00012294581392779946 3.076326902373694e-05" pbc="T T T"
Pt       1.40360696       0.81037286      20.00000000        3      -0.00162868       0.00158348       0.00321889
Pt       4.21082088       0.81037286      20.00000000        3       0.00091255       0.00282848       0.00399852
Pt       7.01803480       0.81037286      20.00000000        3       0.00047399      -0.00076945      -0.00353792
Pt       2.80721392       3.24149143      20.00000000        3       0.00306181      -0.00048893       0.03659806
Pt       5.61442784       3.24149143      20.00000000        3      -0.00094734      -0.00318483       0.01940945
Pt       8.42164176       3.24149143      20.00000000        3       0.00117686      -0.00337180       0.00237834
Pt       4.21082088       5.67261000      20.00000000        3      -0.00231848       0.00035205       0.01590541
Pt       7.01803480       5.67261000      20.00000000        3      -0.00204409      -0.00214505      -0.00485685
Pt       9.82524872       5.67261000      20.00000000        3       0.00310770      -0.00222718       0.00172359
Pt      -0.00000000       1.62074571      22.29208057        2       0.04897092       0.04778545      -0.05669817
Pt       2.80721392       1.62074571      22.29208057        2       0.08330559       0.10966478       0.02739409
Pt       5.61442784       1.62074571      22.29208057        2      -0.15306690       0.12235926       0.06492587
Pt       1.40360696       4.05186428      22.29208057        2       0.09624773       0.01339406      -0.01966410
Pt       4.21082088       4.05186428      22.29208057        2      -0.04417795      -0.05819389       0.02686998
Pt       7.01803480       4.05186428      22.29208057        2      -0.06686327      -0.00514526      -0.03392401
Pt       2.80721392       6.48298285      22.29208057        2       0.01367158      -0.12855220       0.01836776
Pt       5.61442784       6.48298285      22.29208057        2      -0.03806735      -0.02117125      -0.04282343
Pt       8.42164176       6.48298285      22.29208057        2       0.00248926       0.02219732      -0.05894248
Pt       0.00262788       0.03571869      24.57289304        1      -0.00850601       0.02079250      -0.01404636
Pt       2.79652609       0.00596948      24.57091232        1      -0.00031380       0.00412276      -0.01211855
Pt       5.61311596       0.00987552      24.55895402        1       0.01008161       0.01002670       0.00540410
Pt       1.40312546       2.46369087      24.60180052        1      -0.02623889      -0.03252037       0.00961433
Pt       4.23418505       2.40806929      24.62803483        1       0.02203842      -0.00868595      -0.01594558
Pt       7.03008978       2.44797592      24.57390672        1      -0.00772986      -0.01387761      -0.02147341
Pt       2.78804993       4.91211518      24.61622915        1       0.01561499       0.00423681       0.00466263
Pt       5.59613466       4.88485010      24.60072333        1       0.01981131      -0.00962194       0.01102015
Pt       8.39828618       4.88317413      24.57064001        1      -0.00720733      -0.00116215      -0.00686821
N        3.49085549       3.65243598      26.87165435        0       0.01578861      -0.02781035       0.02703178
H        4.01865630       4.38029803      26.33079588        0      -0.00544068      -0.02759469      -0.00595447
H        3.99342472       2.79163152      26.56866853        0       0.00443235      -0.00254523       0.01814596
H        2.59960889       3.55236082      26.32760034        0       0.02336521      -0.01027556       0.00018504
