31
Lattice="8.421641763931781 0.0 0.0 4.2108208819658905 7.293355709136913 0.0 0.0 0.0 44.584161137365626" Properties=species:S:1:pos:R:3:tags:I:1:forces:R:3 energy=-172.8036651611328 free_energy=-172.8036651611328 stress="0.010243703611195087 -4.3730153265642e-05 -6.095308344811201e-05 -4.3730153265642e-05 0.01029419619590044 -3.51882517861668e-05 -6.095308344811201e-05 -3.51882517861668e-05 -1.0966336049023084e-05" pbc="T T T"
Pt       1.40360696       0.81037286      20.00000000        3      -0.00231875       0.00122263      -0.00127256
Pt       4.21082088       0.81037286      20.00000000        3       0.00197227       0.00391216       0.00331190
Pt       7.01803480       0.81037286      20.00000000        3       0.00083404       0.00048083      -0.00621128
Pt       2.80721392       3.24149143      20.00000000        3       0.00266161       0.00153550       0.03510398
Pt       5.61442784       3.24149143      20.00000000        3      -0.00048389      -0.00361356       0.00617778
Pt       8.42164176       3.24149143      20.00000000        3      -0.00009699      -0.00262113      -0.00127345
Pt       4.21082088       5.67261000      20.00000000        3      -0.00336785       0.00139054       0.00617647
Pt       7.01803480       5.67261000      20.00000000        3       0.00063704       0.00037146      -0.01569217
Pt       9.82524872       5.67261000      20.00000000        3       0.00437370      -0.00024755       0.00331050
Pt      -0.00000000       1.62074571      22.29208057        2       0.07065064       0.04078951      -0.03735995
Pt       2.80721392       1.62074571      22.29208057        2       0.04753866       0.11495630       0.03032944
Pt       5.61442784       1.62074571      22.29208057        2      -0.16864949       0.08359399       0.05839650
Pt       1.40360696       4.05186428      22.29208057        2       0.12332542      -0.01631090       0.03032957
Pt       4.21082088       4.05186428      22.29208057        2      -0.12040021      -0.06951496       0.04898007
Pt       7.01803480       4.05186428      22.29208057        2      -0.01789939      -0.05013919      -0.08589207
Pt       2.80721392       6.48298285      22.29208057        2      -0.01193058      -0.18785012       0.05839438
Pt       5.61442784       6.48298285      22.29208057        2      -0.05236882       0.00957118      -0.08589912
Pt       8.42164176       6.48298285      22.29208057        2       0.02277761       0.01315301      -0.07215934
Pt      -0.01231409       0.00197237      24.56839064        1      -0.00626034       0.01060675      -0.01237559
Pt       2.78902968      -0.01401530      24.56862825        1       0.04336090       0.02348294       0.00071907
Pt       5.59524732      -0.01107390      24.56182820        1       0.04228561       0.02441327       0.00093386
Pt       1.37721797       2.41588293      24.59718919        1      -0.00688812      -0.00397661       0.01627990
Pt       4.22835970       2.40594866      24.62284016        1       0.00363340       0.01726300      -0.00582872
Pt       7.01358594       2.41946646      24.56839142        1       0.00605350      -0.01071644      -0.01238549
Pt       2.79418617       4.89001136      24.62284154        1       0.01676360      -0.00548733      -0.00582974
Pt       5.62070451       4.86586166      24.56439327        1      -0.00974142      -0.00563338       0.01068544
Pt       8.40041212       4.85349659      24.56862817        1       0.04201185       0.02580702       0.00072046
N        3.10102100       3.41112155      26.90726092        0       0.00598633       0.00343039      -0.04219314
H        2.33298610       2.96769612      26.35831566        0       0.02265463       0.01307902       0.04144111
H        3.14642494       4.38342805      26.53905125        0      -0.01644047      -0.03744631       0.01653687
H        3.96576594       2.96428886      26.53905156        0      -0.04067459       0.00449780       0.01654536
