31
Lattice="8.421641763931781 0.0 0.0 4.2108208819658905 7.293355709136913 0.0 0.0 0.0 44.584161137365626" Properties=species:S:1:pos:R:3:tags:I:1:forces:R:3 energy=-172.575439453125 free_energy=-172.575439453125 stress="0.010545256547629833 4.355517739895731e-05 -5.488479018822545e-06 4.355517739895731e-05 0.010495186783373356 1.1600228390307166e-05 -5.488479018822545e-06 1.1600228390307166e-05 -0.00012014502863166854" pbc="T T T"
Pt       1.40360696       0.81037286      20.00000000        3      -0.00110891       0.00043890      -0.00392610
Pt       4.21082088       0.81037286      20.00000000        3       0.00031235       0.00118351      -0.00138965
Pt       7.01803480       0.81037286      20.00000000        3       0.00068443       0.00036263      -0.00524220
Pt       2.80721392       3.24149143      20.00000000        3       0.00089877      -0.00012360       0.00689575
Pt       5.61442784       3.24149143      20.00000000        3      -0.00062062      -0.00083724       0.00243369
Pt       8.42164176       3.24149143      20.00000000        3      -0.00004196      -0.00116421      -0.00411132
Pt       4.21082088       5.67261000      20.00000000        3      -0.00045142       0.00034957       0.00005877
Pt       7.01803480       5.67261000      20.00000000        3      -0.00032473      -0.00015939      -0.00613099
Pt       9.82524872       5.67261000      20.00000000        3       0.00062861      -0.00010241      -0.00393960
Pt      -0.00000000       1.62074571      22.29208057        2       0.01000820       0.00574828      -0.04594724
Pt       2.80721392       1.62074571      22.29208057        2       0.03564657       0.04295224       0.02674820
Pt       5.61442784       1.62074571      22.29208057        2      -0.04664616       0.03454260       0.00318335
Pt       1.40360696       4.05186428      22.29208057        2       0.04505003       0.00011421       0.01556622
Pt       4.21082088       4.05186428      22.29208057        2      -0.02154101      -0.02878652       0.04390620
Pt       7.01803480       4.05186428      22.29208057        2      -0.02308443      -0.00963861      -0.02192723
Pt       2.80721392       6.48298285      22.29208057        2       0.00669377      -0.04164972      -0.00911030
Pt       5.61442784       6.48298285      22.29208057        2      -0.01601511      -0.01162757      -0.02391958
Pt       8.42164176       6.48298285      22.29208057        2       0.00854009       0.00961588      -0.02985812
Pt       0.00087460       0.00640711      24.57873337        1       0.00308068      -0.00562902      -0.00410280
Pt       2.80604547      -0.00534720      24.57862981        1      -0.00284787       0.01129119      -0.00653586
Pt       5.61479634      -0.00055047      24.57622521        1      -0.00006603       0.00036772      -0.00779527
Pt       1.39524160       2.42715492      24.58337343        1       0.02899302       0.01774824       0.00005081
Pt       4.21890011       2.41812436      24.59781650        1      -0.00626726       0.01011756       0.02197286
Pt       7.02350805       2.42922036      24.57886134        1      -0.00716026       0.00706745      -0.00327229
Pt       2.80037531       4.87495297      24.58785892        1       0.00772960      -0.01306628       0.00253665
Pt       5.62153196       4.86705180      24.58331956        1      -0.02939674      -0.01537357      -0.00193733
Pt       8.41594805       4.86450611      24.57851492        1       0.00427911      -0.00535298      -0.00740871
N        3.50915073       3.64625177      27.58833531        0       0.00997443      -0.01811962      -0.00560093
H        3.98187529       2.82761504      27.19136926        0      -0.00952441       0.01681001      -0.00838147
H        2.56151839       3.64498020      27.20167699        0       0.02173826       0.00799250       0.03819547
H        3.98400030       4.46647546      27.20180028        0      -0.01916110      -0.01507178       0.03898869
