31
Lattice="8.421641763931781 0.0 0.0 4.2108208819658905 7.293355709136913 0.0 0.0 0.0 44.584161137365626" Properties=species:S:1:pos:R:3:tags:I:1:forces:R:3 energy=-172.76148986816406 free_energy=-172.76148986816406 stress="0.01039885077625513 -8.091017662081867e-05 -6.975267024245113e-05 -8.091017662081867e-05 0.010346869006752968 -0.0001250506757060066 -6.975267024245113e-05 -0.0001250506757060066 3.079499219893478e-05" pbc="T T T"
Pt       1.40360696       0.81037286      20.00000000        3       0.00042759       0.00079364      -0.00353724
Pt       4.21082088       0.81037286      20.00000000        3       0.00037792       0.00380564       0.00172463
Pt       7.01803480       0.81037286      20.00000000        3       0.00233019       0.00270116       0.00237849
Pt       2.80721392       3.24149143      20.00000000        3       0.00085773      -0.00218543       0.01590475
Pt       5.61442784       3.24149143      20.00000000        3      -0.00110922       0.00289446       0.03659764
Pt       8.42164176       3.24149143      20.00000000        3      -0.00055778      -0.00220289       0.00321677
Pt       4.21082088       5.67261000      20.00000000        3       0.00323234       0.00077492       0.01941004
Pt       7.01803480       5.67261000      20.00000000        3      -0.00290726      -0.00062358       0.00399816
Pt       9.82524872       5.67261000      20.00000000        3       0.00287971      -0.00069283      -0.00485650
Pt      -0.00000000       1.62074571      22.29208057        2      -0.06586573       0.01850982      -0.05669603
Pt       2.80721392       1.62074571      22.29208057        2       0.10449509       0.07611448       0.01836706
Pt       5.61442784       1.62074571      22.29208057        2      -0.05972668       0.07665394      -0.01966985
Pt       1.40360696       4.05186428      22.29208057        2       0.03736866      -0.02237802      -0.04281940
Pt       4.21082088       4.05186428      22.29208057        2       0.07248816      -0.00916196       0.02686903
Pt       7.01803480       4.05186428      22.29208057        2      -0.13662621       0.01731456       0.02739599
Pt       2.80721392       6.48298285      22.29208057        2       0.03789075      -0.05533007      -0.03392387
Pt       5.61442784       6.48298285      22.29208057        2      -0.02943847      -0.19373676       0.06492756
Pt       8.42164176       6.48298285      22.29208057        2      -0.02046605      -0.00894266      -0.05894258
Pt      -0.02062626       0.00201100      24.57390711        1       0.01588186       0.00024546      -0.02148594
Pt       2.79931733      -0.00607390      24.55895393        1      -0.01372387       0.00371711       0.00540496
Pt       5.60797334      -0.03069453      24.57063950        1       0.00461076      -0.00566539      -0.00685883
Pt       1.37136021       2.41553450      24.57289308        1      -0.01375765      -0.01776111      -0.01404557
Pt       4.17720742       2.38958326      24.61622946        1      -0.01147825       0.01140516       0.00466533
Pt       6.99006673       2.41441492      24.60179909        1       0.04128774      -0.00646092       0.00962475
Pt       2.79677730       4.83508812      24.60072254        1      -0.00157306       0.02196981       0.01102263
Pt       5.62270670       4.89399529      24.62803431        1      -0.00349744       0.02342884      -0.01594254
Pt       8.42181558       4.84999666      24.57091288        1      -0.00341355      -0.00233505      -0.01212850
N        4.91671877       3.62806939      26.87165556        0       0.01613954       0.02758247       0.02693781
H        5.44900931       2.90626524      26.32759845        0      -0.00279970       0.02540359       0.00020966
H        4.02247044       3.72122821      26.33079360        0       0.02669851       0.00907955      -0.00590351
H        5.41091301       4.49370993      26.56866822        0      -0.00002567       0.00508185       0.01815470
