31
Lattice="8.421641763931781 0.0 0.0 4.2108208819658905 7.293355709136913 0.0 0.0 0.0 44.584161137365626" Properties=species:S:1:pos:R:3:tags:I:1:forces:R:3 energy=-172.76077270507812 free_energy=-172.76077270507812 stress="0.010433996096253395 5.553615483222529e-05 -6.430044595617801e-05 5.553615483222529e-05 0.01033541839569807 0.0001228966866619885 -6.430044595617801e-05 0.0001228966866619885 0.0001139737360063009" pbc="T T T"
Pt       1.40360696       0.81037286      20.00000000        3      -0.00184141       0.00191362       0.00243157
Pt       4.21082088       0.81037286      20.00000000        3       0.00130317       0.00326638       0.00365958
Pt       7.01803480       0.81037286      20.00000000        3       0.00027799      -0.00058262      -0.00557968
Pt       2.80721392       3.24149143      20.00000000        3       0.00240617      -0.00058222       0.03803596
Pt       5.61442784       3.24149143      20.00000000        3      -0.00120673      -0.00307360       0.01904419
Pt       8.42164176       3.24149143      20.00000000        3       0.00102276      -0.00356158       0.00178620
Pt       4.21082088       5.67261000      20.00000000        3      -0.00232099      -0.00032972       0.01665235
Pt       7.01803480       5.67261000      20.00000000        3      -0.00209405      -0.00237998      -0.00506634
Pt       9.82524872       5.67261000      20.00000000        3       0.00342437      -0.00187583       0.00241342
Pt      -0.00000000       1.62074571      22.29208057        2       0.05290906       0.04726397      -0.06477079
Pt       2.80721392       1.62074571      22.29208057        2       0.08145465       0.11704744       0.03078846
Pt       5.61442784       1.62074571      22.29208057        2      -0.15736124       0.12325078       0.05174957
Pt       1.40360696       4.05186428      22.29208057        2       0.10646302       0.01139144      -0.00417392
Pt       4.21082088       4.05186428      22.29208057        2      -0.04700023      -0.05245934       0.03637943
Pt       7.01803480       4.05186428      22.29208057        2      -0.06485661      -0.00048968      -0.03371700
Pt       2.80721392       6.48298285      22.29208057        2       0.01159756      -0.14118655       0.02495465
Pt       5.61442784       6.48298285      22.29208057        2      -0.03644793      -0.02712628      -0.03812092
Pt       8.42164176       6.48298285      22.29208057        2       0.00854120       0.02035936      -0.05837052
Pt       0.00159710       0.03238875      24.57077872        1       0.00283505       0.00790695      -0.00210711
Pt       2.80145302       0.00780887      24.56933719        1      -0.01226225       0.00011666      -0.00238332
Pt       5.61396761       0.01498145      24.55989917        1       0.01102310      -0.02585055       0.00331624
Pt       1.39694992       2.45529839      24.60469552        1       0.01565053       0.01114270       0.00362033
Pt       4.23407208       2.41373554      24.62962448        1      -0.00356906       0.00262614       0.02443092
Pt       7.02731170       2.44510284      24.57114105        1       0.00707126       0.00574405      -0.00351284
Pt       2.79279824       4.90950135      24.62028309        1       0.00666304      -0.01134544       0.01262303
Pt       5.60677676       4.88539685      24.60377322        1      -0.01487116      -0.00685202       0.00149889
Pt       8.40493144       4.88241386      24.56952141        1      -0.00627169      -0.00474938      -0.00144446
N        3.49336951       3.66188106      26.89483173        0       0.01178204      -0.02338994      -0.01391551
H        4.02008822       4.38596863      26.35085280        0       0.02917270       0.01384952      -0.01683775
H        3.99026916       2.80112484      26.58755522        0       0.02336542      -0.04005796      -0.00395300
H        2.60272365       3.56764757      26.35178173        0      -0.02685979      -0.01998606      -0.01943159
