31
Lattice="8.421641763931781 0.0 0.0 4.2108208819658905 7.293355709136913 0.0 0.0 0.0 44.584161137365626" Properties=species:S:1:pos:R:3:tags:I:1:forces:R:3 energy=-172.80076599121094 free_energy=-172.80076599121094 stress="0.01038044411689043 -8.84373196896604e-09 -9.301494685587386e-09 -8.84373196896604e-09 0.010380474850535393 -4.325960145656893e-10 -9.301494685587386e-09 -4.325960145656893e-10 0.00013815052807331085" pbc="T T T"
Pt       1.40360696       0.81037286      20.00000000        3       0.00000115      -0.00000286      -0.00917143
Pt       4.21082088       0.81037286      20.00000000        3      -0.00208502       0.00282846       0.00179428
Pt       7.01803480       0.81037286      20.00000000        3       0.00175504       0.00301134       0.00177687
Pt       2.80721392       3.24149143      20.00000000        3       0.00173230      -0.00302908       0.00177753
Pt       5.61442784       3.24149143      20.00000000        3      -0.00000209      -0.00000009       0.03522417
Pt       8.42164176       3.24149143      20.00000000        3      -0.00140646      -0.00322161       0.00179183
Pt       4.21082088       5.67261000      20.00000000        3       0.00349645       0.00039331       0.00179270
Pt       7.01803480       5.67261000      20.00000000        3      -0.00349088       0.00001775       0.00177768
Pt       9.82524872       5.67261000      20.00000000        3      -0.00000129       0.00000235      -0.01458439
Pt      -0.00000000       1.62074571      22.29208057        2      -0.13851249       0.08505623       0.03904931
Pt       2.80721392       1.62074571      22.29208057        2       0.14291939       0.07742810       0.03905248
Pt       5.61442784       1.62074571      22.29208057        2       0.00084271       0.12742703       0.05053247
Pt       1.40360696       4.05186428      22.29208057        2      -0.00004508      -0.03188509      -0.06163907
Pt       4.21082088       4.05186428      22.29208057        2       0.10993510      -0.06444697       0.05053305
Pt       7.01803480       4.05186428      22.29208057        2      -0.11078064      -0.06298040       0.05053516
Pt       2.80721392       6.48298285      22.29208057        2       0.02763566       0.01590357      -0.06164453
Pt       5.61442784       6.48298285      22.29208057        2      -0.00440324      -0.16248555       0.03904953
Pt       8.42164176       6.48298285      22.29208057        2      -0.02759114       0.01598312      -0.06164097
Pt      -0.00139810       0.00421546      24.56545339        1       0.02552910      -0.01180565      -0.00533086
Pt       2.80426235      -0.00331893      24.56545370        1      -0.00254185       0.02800959      -0.00534126
Pt       5.61297427      -0.00628392      24.56941576        1      -0.00360585      -0.02450842      -0.00741881
Pt       1.40795649       2.43022130      24.56545363        1      -0.02297971      -0.01620453      -0.00534165
Pt       4.18802677       2.41476106      24.61813789        1      -0.00371338       0.01514765      -0.00875269
Pt       7.04359800       2.41955605      24.61813732        1      -0.01126709      -0.01078535      -0.00874656
Pt       2.80249884       4.86663777      24.56941673        1      -0.01942175       0.01537279      -0.00741744
Pt       5.61165941       4.89015567      24.61813781        1       0.01497029      -0.00435878      -0.00875120
Pt       8.42780929       4.86412010      24.56941702        1       0.02302961       0.00913352      -0.00742726
N        5.61442808       3.24149202      26.94319036        0       0.00004644       0.00000301      -0.00924146
H        6.34538115       2.63569290      26.52136243        0       0.00873888       0.02328962      -0.01073774
H        4.72431642       2.91136618      26.52136170        0       0.01573187      -0.01921751      -0.01075696
H        5.77358658       4.17741561      26.52136257        0      -0.02451597      -0.00407565      -0.01074241
