31
Lattice="8.421641763931781 0.0 0.0 4.2108208819658905 7.293355709136913 0.0 0.0 0.0 44.584161137365626" Properties=species:S:1:pos:R:3:tags:I:1:forces:R:3 energy=-172.5789794921875 free_energy=-172.5789794921875 stress="0.01047310046851635 -2.3995134768028947e-09 3.384587721200205e-09 -2.3995134768028947e-09 0.010473103262484074 4.55722215519927e-09 3.384587721200205e-09 4.55722215519927e-09 -0.0002002292312681675" pbc="T T T"
Pt       1.40360696       0.81037286      20.00000000        3       0.00000106      -0.00000289      -0.00540140
Pt       4.21082088       0.81037286      20.00000000        3      -0.00074507       0.00084748      -0.00204450
Pt       7.01803480       0.81037286      20.00000000        3       0.00079391       0.00067880      -0.00220051
Pt       2.80721392       3.24149143      20.00000000        3       0.00019342      -0.00103048      -0.00220075
Pt       5.61442784       3.24149143      20.00000000        3      -0.00000190      -0.00000032       0.00783759
Pt       8.42164176       3.24149143      20.00000000        3      -0.00036039      -0.00107056      -0.00204617
Pt       4.21082088       5.67261000      20.00000000        3       0.00110989       0.00022379      -0.00204411
Pt       7.01803480       5.67261000      20.00000000        3      -0.00099009       0.00035141      -0.00220099
Pt       9.82524872       5.67261000      20.00000000        3      -0.00000075       0.00000279      -0.00681767
Pt      -0.00000000       1.62074571      22.29208057        2      -0.03240085       0.01846177      -0.02422035
Pt       2.80721392       1.62074571      22.29208057        2       0.03219202       0.01882901      -0.02422152
Pt       5.61442784       1.62074571      22.29208057        2      -0.00152939       0.04198250       0.02925821
Pt       1.40360696       4.05186428      22.29208057        2      -0.00078317      -0.01329050      -0.03097389
Pt       4.21082088       4.05186428      22.29208057        2       0.03712215      -0.01966834       0.02926024
Pt       7.01803480       4.05186428      22.29208057        2      -0.03559693      -0.02231311       0.02926159
Pt       2.80721392       6.48298285      22.29208057        2       0.01190432       0.00596527      -0.03097678
Pt       5.61442784       6.48298285      22.29208057        2       0.00020982      -0.03729305      -0.02422232
Pt       8.42164176       6.48298285      22.29208057        2      -0.01111781       0.00732682      -0.03097724
Pt       0.00192651       0.00033097      24.57723222        1      -0.00364831      -0.00612833      -0.00424296
Pt       2.80596399       0.00150252      24.57723232        1       0.00713156      -0.00009516      -0.00424281
Pt       5.61385816      -0.00636831      24.57875338        1      -0.00299057       0.01932096      -0.00732288
Pt       1.40293081       2.42928459      24.57723246        1      -0.00348352       0.00622394      -0.00424263
Pt       4.19613074       2.42546250      24.58945429        1       0.01929942       0.01753146       0.00628392
Pt       7.03027801       2.42122462      24.58945448        1      -0.02483307       0.00794651       0.00628485
Pt       2.80198375       4.86591455      24.57875355        1       0.01822792      -0.00706920      -0.00733221
Pt       5.61687453       4.87778729      24.58945426        1       0.00553373      -0.02547873       0.00628373
Pt       8.42744138       4.86492821      24.57875361        1      -0.01523771      -0.01225175      -0.00733146
N        5.61442821       3.24149175      27.59559738        0      -0.00001644      -0.00002551       0.00371563
H        6.08240197       4.06216564      27.19906554        0      -0.03360651      -0.00871454       0.03568422
H        6.09116549       2.42587673      27.19906533        0       0.00924626       0.03348705       0.03569614
H        4.66971577       3.23643180      27.19906527        0       0.02437681      -0.02474716       0.03569695
