31
Lattice="8.421641763931781 0.0 0.0 4.2108208819658905 7.293355709136913 0.0 0.0 0.0 44.584161137365626" Properties=species:S:1:pos:R:3:tags:I:1:forces:R:3 energy=-172.80612182617188 free_energy=-172.80612182617188 stress="0.010215007700026035 -3.0023155073166663e-09 -2.2268162869210073e-09 -3.0023155073166663e-09 0.010215005837380886 4.679654885819673e-09 -2.2268162869210073e-09 4.679654885819673e-09 -7.903692312538624e-05" pbc="T T T"
Pt       1.40360696       0.81037286      20.00000000        3       0.00000113      -0.00000219      -0.01100361
Pt       4.21082088       0.81037286      20.00000000        3      -0.00200902       0.00319040       0.00014982
Pt       7.01803480       0.81037286      20.00000000        3       0.00200789       0.00318984       0.00014806
Pt       2.80721392       3.24149143      20.00000000        3       0.00176072      -0.00333824       0.00014848
Pt       5.61442784       3.24149143      20.00000000        3      -0.00000209       0.00000011       0.03285968
Pt       8.42164176       3.24149143      20.00000000        3      -0.00175745      -0.00333709       0.00014794
Pt       4.21082088       5.67261000      20.00000000        3       0.00377168       0.00014672       0.00014901
Pt       7.01803480       5.67261000      20.00000000        3      -0.00377188       0.00014800       0.00014776
Pt       9.82524872       5.67261000      20.00000000        3      -0.00000123       0.00000258      -0.01574677
Pt      -0.00000000       1.62074571      22.29208057        2      -0.14542243       0.08395883       0.01005586
Pt       2.80721392       1.62074571      22.29208057        2       0.14542590       0.08396018       0.01005584
Pt       5.61442784       1.62074571      22.29208057        2      -0.00000227       0.12772754       0.03249475
Pt       1.40360696       4.05186428      22.29208057        2       0.00000111      -0.03007326      -0.07678594
Pt       4.21082088       4.05186428      22.29208057        2       0.11061798      -0.06386472       0.03249438
Pt       7.01803480       4.05186428      22.29208057        2      -0.11061960      -0.06386446       0.03249535
Pt       2.80721392       6.48298285      22.29208057        2       0.02604453       0.01503745      -0.07678751
Pt       5.61442784       6.48298285      22.29208057        2      -0.00000170      -0.16792071       0.01005514
Pt       8.42164176       6.48298285      22.29208057        2      -0.02604236       0.01504026      -0.07678691
Pt       0.00393409       0.00227111      24.56060057        1      -0.01717297      -0.00991621       0.01756918
Pt       2.80328020       0.00227111      24.56060087        1       0.01717506      -0.00991561       0.01756956
Pt       5.61442782      -0.00512109      24.56477959        1      -0.00000272      -0.03940040       0.01025200
Pt       1.40360707       2.42657590      24.56060098        1       0.00000065       0.01983163       0.01757102
Pt       4.18586831       2.41671205      24.61159928        1       0.00751762       0.00433920       0.00178787
Pt       7.04298715       2.41671209      24.61159938        1      -0.00751876       0.00434062       0.00179029
Pt       2.80277947       4.86479753      24.56477997        1      -0.03412407       0.01969921       0.01025277
Pt       5.61442772       4.89104993      24.61159940        1      -0.00000000      -0.00867994       0.00178788
Pt       8.42607617       4.86479758      24.56478014        1       0.03412394       0.01970054       0.01025331
N        5.61442768       3.24149171      26.93137767        0       0.00002298      -0.00002625       0.00369373
H        6.43590795       2.76720974      26.50980565        0       0.02255797      -0.01302291       0.00106916
H        4.79294820       2.76720979      26.50980604        0      -0.02257815      -0.01303137       0.00105835
H        5.61442808       4.19005436      26.50980617        0      -0.00000272       0.02608034       0.00105383
