31
Lattice="8.421641763931781 0.0 0.0 4.2108208819658905 7.293355709136913 0.0 0.0 0.0 44.584161137365626" Properties=species:S:1:pos:R:3:tags:I:1:forces:R:3 energy=-172.79193115234375 free_energy=-172.79193115234375 stress="0.010310128331184387 -1.6569243754815943e-09 1.050201592356359e-09 -1.6569243754815943e-09 0.010310130193829536 -7.182726080579016e-10 1.050201592356359e-09 -7.182726080579016e-10 -5.320637137629092e-05" pbc="T T T"
Pt       1.40360696       0.81037286      20.00000000        3      -0.00150139       0.00007889      -0.00642651
Pt       4.21082088       0.81037286      20.00000000        3       0.00026999       0.00262439      -0.00198123
Pt       7.01803480       0.81037286      20.00000000        3       0.00081974       0.00125833      -0.00642717
Pt       2.80721392       3.24149143      20.00000000        3       0.00013374      -0.00073335       0.01711360
Pt       5.61442784       3.24149143      20.00000000        3       0.00056632       0.00048034       0.01711395
Pt       8.42164176       3.24149143      20.00000000        3       0.00068166      -0.00134097      -0.00642884
Pt       4.21082088       5.67261000      20.00000000        3      -0.00069802       0.00025348       0.01711354
Pt       7.01803480       5.67261000      20.00000000        3      -0.00241021      -0.00107840      -0.00198260
Pt       9.82524872       5.67261000      20.00000000        3       0.00213805      -0.00154214      -0.00198191
Pt      -0.00000000       1.62074571      22.29208057        2       0.00000117      -0.00000196      -0.12335840
Pt       2.80721392       1.62074571      22.29208057        2       0.11871459       0.08205845       0.00725623
Pt       5.61442784       1.62074571      22.29208057        2      -0.10594025       0.07567790       0.01752857
Pt       1.40360696       4.05186428      22.29208057        2       0.11850906       0.05390649       0.01753253
Pt       4.21082088       4.05186428      22.29208057        2       0.00000129      -0.00000060       0.07266960
Pt       7.01803480       4.05186428      22.29208057        2      -0.13042371       0.06178027       0.00725849
Pt       2.80721392       6.48298285      22.29208057        2       0.01170836      -0.14383861       0.00725654
Pt       5.61442784       6.48298285      22.29208057        2      -0.01257253      -0.12958410       0.01752827
Pt       8.42164176       6.48298285      22.29208057        2       0.00000081       0.00000063      -0.04818606
Pt      -0.00871794       0.01462028      24.57019431        1       0.02185394      -0.03446841      -0.00114737
Pt       2.81544888       0.00938995      24.56825716        1      -0.01508497      -0.02343053      -0.02905722
Pt       5.61844224      -0.01182692      24.56825722        1      -0.01274753       0.02477849      -0.02905674
Pt       1.39530428       2.41625770      24.57019407        1       0.01892337       0.03616280      -0.00114647
Pt       4.22910476       2.40891798      24.60960956        1      -0.02603217      -0.01960771      -0.00390578
Pt       7.03505550       2.43135809      24.57019420        1      -0.04077892      -0.00169259      -0.00114650
Pt       2.77884596       4.85750291      24.60960972        1      -0.00396594       0.03234897      -0.00390490
Pt       5.62451194       4.88917183      24.60960965        1       0.02999704      -0.01274152      -0.00390500
Pt       8.40939166       4.86467355      24.56825868        1       0.02783700      -0.00134832      -0.02906582
N        4.21082088       4.05186396      26.91368996        0      -0.00001216       0.00001010       0.03992012
H        4.44475668       3.13617324      26.47644971        0      -0.03202023       0.00571573       0.02026843
H        3.30084054       4.30711584      26.47644941        0       0.02098179       0.02486145       0.02027628
H        4.88686510       4.71230375      26.47644958        0       0.01105011      -0.03058769       0.02027255
