31
Lattice="8.421641763931781 0.0 0.0 4.2108208819658905 7.293355709136913 0.0 0.0 0.0 44.584161137365626" Properties=species:S:1:pos:R:3:tags:I:1:forces:R:3 energy=-172.575439453125 free_energy=-172.575439453125 stress="0.010545258410274982 4.3551208364078775e-05 -5.4894749155209865e-06 4.3551208364078775e-05 0.010495174676179886 1.1605759027588647e-05 -5.4894749155209865e-06 1.1605759027588647e-05 -0.00012014933599857613" pbc="T T T"
Pt       1.40360696       0.81037286      20.00000000        3      -0.00110874       0.00043879      -0.00392655
Pt       4.21082088       0.81037286      20.00000000        3       0.00031225       0.00118373      -0.00138944
Pt       7.01803480       0.81037286      20.00000000        3       0.00068447       0.00036280      -0.00524184
Pt       2.80721392       3.24149143      20.00000000        3       0.00089929      -0.00012353       0.00689629
Pt       5.61442784       3.24149143      20.00000000        3      -0.00062047      -0.00083744       0.00243333
Pt       8.42164176       3.24149143      20.00000000        3      -0.00004197      -0.00116392      -0.00411153
Pt       4.21082088       5.67261000      20.00000000        3      -0.00045137       0.00034937       0.00005883
Pt       7.01803480       5.67261000      20.00000000        3      -0.00032504      -0.00015956      -0.00613111
Pt       9.82524872       5.67261000      20.00000000        3       0.00062845      -0.00010202      -0.00393960
Pt      -0.00000000       1.62074571      22.29208057        2       0.01000826       0.00574867      -0.04594769
Pt       2.80721392       1.62074571      22.29208057        2       0.03564677       0.04295213       0.02674843
Pt       5.61442784       1.62074571      22.29208057        2      -0.04664629       0.03454282       0.00318350
Pt       1.40360696       4.05186428      22.29208057        2       0.04504975       0.00011352       0.01556668
Pt       4.21082088       4.05186428      22.29208057        2      -0.02154089      -0.02878763       0.04390702
Pt       7.01803480       4.05186428      22.29208057        2      -0.02308508      -0.00963844      -0.02192762
Pt       2.80721392       6.48298285      22.29208057        2       0.00669336      -0.04164859      -0.00911111
Pt       5.61442784       6.48298285      22.29208057        2      -0.01601470      -0.01162807      -0.02392005
Pt       8.42164176       6.48298285      22.29208057        2       0.00854028       0.00961670      -0.02985800
Pt       0.00087457       0.00640721      24.57873332        1       0.00308142      -0.00562988      -0.00410199
Pt       2.80604545      -0.00534730      24.57862971        1      -0.00284740       0.01129175      -0.00653607
Pt       5.61479629      -0.00055046      24.57622517        1      -0.00006713       0.00036868      -0.00779554
Pt       1.39524142       2.42715491      24.58337342        1       0.02899582       0.01774918       0.00005005
Pt       4.21890026       2.41812430      24.59781670        1      -0.00626871       0.01011964       0.02197286
Pt       7.02350821       2.42922029      24.57886130        1      -0.00716115       0.00706934      -0.00327232
Pt       2.80037521       4.87495306      24.58785893        1       0.00773064      -0.01307056       0.00253753
Pt       5.62153203       4.86705181      24.58331954        1      -0.02939763      -0.01537490      -0.00193681
Pt       8.41594801       4.86450612      24.57851480        1       0.00427797      -0.00535373      -0.00740844
N        3.50915074       3.64625208      27.58833535        0       0.00995967      -0.01816121      -0.00558883
H        3.98400038       4.46647541      27.20180051        0      -0.01914749      -0.01504189       0.03897265
H        3.98187519       2.82761522      27.19136909        0      -0.00952474       0.01681593      -0.00837799
H        2.56151839       3.64498011      27.20167708        0       0.02174072       0.00799850       0.03819536
