31
Lattice="8.421641763931781 0.0 0.0 4.2108208819658905 7.293355709136913 0.0 0.0 0.0 44.584161137365626" Properties=species:S:1:pos:R:3:tags:I:1:forces:R:3 energy=-172.65194702148438 free_energy=-172.65194702148438 stress="0.010527023114264011 -1.8114694189108604e-09 -3.2322267085049816e-09 -1.8114694189108604e-09 0.010527029633522034 1.496401336176234e-10 -3.2322267085049816e-09 1.496401336176234e-10 0.00012918243010062724" pbc="T T T"
Pt       1.40360696       0.81037286      20.00000000        3       0.00000062      -0.00000293      -0.00399175
Pt       4.21082088       0.81037286      20.00000000        3      -0.00164403       0.00305952       0.01138908
Pt       7.01803480       0.81037286      20.00000000        3       0.00164376       0.00305866       0.01138926
Pt       2.80721392       3.24149143      20.00000000        3       0.00182876      -0.00295633       0.01138797
Pt       5.61442784       3.24149143      20.00000000        3      -0.00000182      -0.00000020       0.04827207
Pt       8.42164176       3.24149143      20.00000000        3      -0.00182655      -0.00295561       0.01138750
Pt       4.21082088       5.67261000      20.00000000        3       0.00347642      -0.00010338       0.01138973
Pt       7.01803480       5.67261000      20.00000000        3      -0.00347606      -0.00010209       0.01138854
Pt       9.82524872       5.67261000      20.00000000        3      -0.00000113       0.00000275      -0.00338748
Pt      -0.00000000       1.62074571      22.29208057        2      -0.12624101       0.07288370       0.01765387
Pt       2.80721392       1.62074571      22.29208057        2       0.12624148       0.07288434       0.01765225
Pt       5.61442784       1.62074571      22.29208057        2      -0.00000056       0.09585990      -0.00173569
Pt       1.40360696       4.05186428      22.29208057        2       0.00000108      -0.01844034      -0.03357840
Pt       4.21082088       4.05186428      22.29208057        2       0.08301942      -0.04792866      -0.00173393
Pt       7.01803480       4.05186428      22.29208057        2      -0.08302104      -0.04792926      -0.00173163
Pt       2.80721392       6.48298285      22.29208057        2       0.01597224       0.00921958      -0.03357996
Pt       5.61442784       6.48298285      22.29208057        2      -0.00000189      -0.14577165       0.01765332
Pt       8.42164176       6.48298285      22.29208057        2      -0.01597005       0.00922137      -0.03358132
Pt       0.00357389       0.00206319      24.56715144        1      -0.00150107      -0.00086834      -0.00898156
Pt       2.80364029       0.00206303      24.56715150        1       0.00149985      -0.00086603      -0.00898105
Pt       5.61442774      -0.00256500      24.58162004        1       0.00000123      -0.00452138      -0.00636293
Pt       1.40360672       2.42699164      24.56715188        1       0.00000139       0.00173248      -0.00898099
Pt       4.18470938       2.41604272      24.62652862        1       0.00346732       0.00200318      -0.00729799
Pt       7.04414641       2.41604271      24.62652958        1      -0.00346851       0.00200112      -0.00730503
Pt       2.80499267       4.86351936      24.58162048        1      -0.00391433       0.00226176      -0.00637019
Pt       5.61442758       4.89238818      24.62652952        1      -0.00000070      -0.00400326      -0.00730626
Pt       8.42386258       4.86351936      24.58162036        1       0.00391543       0.00226076      -0.00636940
N        5.61442754       3.24149154      26.85794071        0       0.00001253      -0.00000263       0.01030947
H        6.41149477       3.70167791      26.34493022        0      -0.02202605      -0.01271446       0.00047228
H        5.61442826       2.32111810      26.34493056        0      -0.00000571       0.02543393       0.00046784
H        4.81736156       3.70167866      26.34492982        0       0.02201895      -0.01271662       0.00046304
