31
Lattice="8.421641763931781 0.0 0.0 4.2108208819658905 7.293355709136913 0.0 0.0 0.0 44.584161137365626" Properties=species:S:1:pos:R:3:tags:I:1:forces:R:3 energy=-172.80628967285156 free_energy=-172.80628967285156 stress="0.010336609557271004 8.241300003541951e-11 -6.108038075325339e-09 8.241300003541951e-11 0.010336612351238728 4.897313110596713e-10 -6.108038075325339e-09 4.897313110596713e-10 2.1099704099469818e-05" pbc="T T T"
Pt       1.40360696       0.81037286      20.00000000        3      -0.00128921       0.00074240      -0.00833434
Pt       4.21082088       0.81037286      20.00000000        3       0.00000116       0.00278335      -0.00336128
Pt       7.01803480       0.81037286      20.00000000        3       0.00128754       0.00074249      -0.00833571
Pt       2.80721392       3.24149143      20.00000000        3       0.00012541       0.00007140       0.01724908
Pt       5.61442784       3.24149143      20.00000000        3      -0.00012571       0.00007152       0.01724914
Pt       8.42164176       3.24149143      20.00000000        3       0.00000122      -0.00148917      -0.00833669
Pt       4.21082088       5.67261000      20.00000000        3       0.00000185      -0.00014156       0.01725015
Pt       7.01803480       5.67261000      20.00000000        3      -0.00241402      -0.00139017      -0.00336301
Pt       9.82524872       5.67261000      20.00000000        3       0.00241104      -0.00139005      -0.00336227
Pt      -0.00000000       1.62074571      22.29208057        2       0.00000196      -0.00000220      -0.11073561
Pt       2.80721392       1.62074571      22.29208057        2       0.11445435       0.08732487       0.01453122
Pt       5.61442784       1.62074571      22.29208057        2      -0.11445583       0.08732429       0.01453139
Pt       1.40360696       4.05186428      22.29208057        2       0.13285631       0.05545840       0.01453535
Pt       4.21082088       4.05186428      22.29208057        2      -0.00000021       0.00000063       0.08593284
Pt       7.01803480       4.05186428      22.29208057        2      -0.13285609       0.05545712       0.01453290
Pt       2.80721392       6.48298285      22.29208057        2       0.01839971      -0.14278370       0.01453415
Pt       5.61442784       6.48298285      22.29208057        2      -0.01840117      -0.14278103       0.01453093
Pt       8.42164176       6.48298285      22.29208057        2       0.00000197       0.00000288      -0.05644687
Pt       0.00000024       0.01191065      24.57002360        1      -0.00000135      -0.01413535      -0.00317062
Pt       2.80842867      -0.00070149      24.56507420        1       0.00107935      -0.00062404      -0.00976270
Pt       5.61321298      -0.00070150      24.56507408        1      -0.00107930      -0.00062488      -0.00976211
Pt       1.39329181       2.42516292      24.57002362        1       0.01224262       0.00706940      -0.00317059
Pt       4.21082089       2.40978243      24.61315422        1       0.00000190       0.00145098       0.00336333
Pt       7.02835001       2.42516297      24.57002379        1      -0.01224411       0.00706816      -0.00317024
Pt       2.78873659       4.87290509      24.61315442        1       0.00125331      -0.00072545       0.00335233
Pt       5.63290508       4.87290512      24.61315383        1      -0.00125341      -0.00072576       0.00336139
Pt       8.42164176       4.86363973      24.56507471        1       0.00000152       0.00124630      -0.00976048
N        4.21082076       4.05186433      26.94874392        0       0.00003807       0.00001165       0.04620367
H        4.21082094       3.10212008      26.53110602        0      -0.00000546      -0.01187074      -0.01336718
H        3.38831855       4.52673617      26.53110634        0      -0.01029126       0.00593564      -0.01336792
H        5.03332341       4.52673634      26.53110594        0       0.01025787       0.00592256      -0.01335007
