31
Lattice="8.421641763931781 0.0 0.0 4.2108208819658905 7.293355709136913 0.0 0.0 0.0 44.584161137365626" Properties=species:S:1:pos:R:3:tags:I:1:forces:R:3 energy=-172.76148986816406 free_energy=-172.76148986816406 stress="0.010429897345602512 -6.297115760389715e-05 7.342770550167188e-05 -6.297115760389715e-05 0.01031576655805111 0.00012294006592128426 7.342770550167188e-05 0.00012294006592128426 3.0777948268223554e-05" pbc="T T T"
Pt       1.40360696       0.81037286      20.00000000        3      -0.00047551      -0.00077014      -0.00353685
Pt       4.21082088       0.81037286      20.00000000        3      -0.00090900       0.00282828       0.00399929
Pt       7.01803480       0.81037286      20.00000000        3       0.00162684       0.00158381       0.00321862
Pt       2.80721392       3.24149143      20.00000000        3       0.00094619      -0.00318488       0.01940840
Pt       5.61442784       3.24149143      20.00000000        3      -0.00306233      -0.00048868       0.03659761
Pt       8.42164176       3.24149143      20.00000000        3      -0.00117399      -0.00337193       0.00237781
Pt       4.21082088       5.67261000      20.00000000        3       0.00232302       0.00035238       0.01590550
Pt       7.01803480       5.67261000      20.00000000        3      -0.00311080      -0.00222675       0.00172156
Pt       9.82524872       5.67261000      20.00000000        3       0.00204147      -0.00214475      -0.00485736
Pt      -0.00000000       1.62074571      22.29208057        2      -0.04896306       0.04778387      -0.05669739
Pt       2.80721392       1.62074571      22.29208057        2       0.15306181       0.12235943       0.06492694
Pt       5.61442784       1.62074571      22.29208057        2      -0.08330690       0.10966227       0.02738959
Pt       1.40360696       4.05186428      22.29208057        2       0.06686313      -0.00514990      -0.03392559
Pt       4.21082088       4.05186428      22.29208057        2       0.04418159      -0.05819357       0.02686579
Pt       7.01803480       4.05186428      22.29208057        2      -0.09625116       0.01339541      -0.01966825
Pt       2.80721392       6.48298285      22.29208057        2       0.03806689      -0.02116882      -0.04282613
Pt       5.61442784       6.48298285      22.29208057        2      -0.01367345      -0.12855034       0.01836477
Pt       8.42164176       6.48298285      22.29208057        2      -0.00248790       0.02219990      -0.05894610
Pt      -0.00262715       0.03571850      24.57289316        1       0.00850590       0.02079443      -0.01404676
Pt       2.80852556       0.00987503      24.55895346        1      -0.01008082       0.01003283       0.00540583
Pt       5.62511551       0.00596965      24.57091218        1       0.00031377       0.00412262      -0.01212026
Pt       1.39155191       2.44797601      24.57390694        1       0.00773192      -0.01387915      -0.02148584
Pt       4.18745737       2.40806986      24.62803345        1      -0.02204162      -0.00868467      -0.01592899
Pt       7.01851648       2.46369088      24.60179957        1       0.02623827      -0.03252104       0.00962488
Pt       2.82550717       4.88485035      24.60072210        1      -0.01981248      -0.00962622       0.01103316
Pt       5.63359154       4.91211471      24.61622977        1      -0.01561819       0.00423271       0.00467217
Pt       8.44499641       4.88317415      24.57063947        1       0.00721090      -0.00116265      -0.00685647
N        4.93078709       3.65243613      26.87165764        0      -0.01584487      -0.02779393       0.02693909
H        4.42821736       2.79163155      26.56866868        0      -0.00441329      -0.00251524       0.01816223
H        4.40298471       4.38029742      26.33079563        0       0.00548650      -0.02764529      -0.00591221
H        5.82203186       3.55236010      26.32760071        0      -0.02337296      -0.01027000       0.00019473
