31
Lattice="8.421641763931781 0.0 0.0 4.2108208819658905 7.293355709136913 0.0 0.0 0.0 44.584161137365626" Properties=species:S:1:pos:R:3:tags:I:1:forces:R:3 energy=-172.60189819335938 free_energy=-172.60189819335938 stress="0.01051889918744564 -4.370989792334967e-09 -3.616701160780167e-09 -4.370989792334967e-09 0.01051887683570385 1.8337717122562935e-08 -3.616701160780167e-09 1.8337717122562935e-08 -1.5801426343386993e-05" pbc="T T T"
Pt       1.40360696       0.81037286      20.00000000        3       0.00000129      -0.00000204      -0.00634706
Pt       4.21082088       0.81037286      20.00000000        3      -0.00067189       0.00123315      -0.00134271
Pt       7.01803480       0.81037286      20.00000000        3       0.00067158       0.00123210      -0.00134319
Pt       2.80721392       3.24149143      20.00000000        3       0.00073301      -0.00120137      -0.00134364
Pt       5.61442784       3.24149143      20.00000000        3      -0.00000162      -0.00000008       0.01187220
Pt       8.42164176       3.24149143      20.00000000        3      -0.00073058      -0.00120058      -0.00134403
Pt       4.21082088       5.67261000      20.00000000        3       0.00140788      -0.00003226      -0.00134310
Pt       7.01803480       5.67261000      20.00000000        3      -0.00140823      -0.00003114      -0.00134447
Pt       9.82524872       5.67261000      20.00000000        3      -0.00000108       0.00000258      -0.00859994
Pt      -0.00000000       1.62074571      22.29208057        2      -0.04278497       0.02470244      -0.01080300
Pt       2.80721392       1.62074571      22.29208057        2       0.04278731       0.02470386      -0.01080473
Pt       5.61442784       1.62074571      22.29208057        2      -0.00000228       0.05406206       0.04110317
Pt       1.40360696       4.05186428      22.29208057        2       0.00000112      -0.01915003      -0.03130443
Pt       4.21082088       4.05186428      22.29208057        2       0.04682141      -0.02703187       0.04110409
Pt       7.01803480       4.05186428      22.29208057        2      -0.04682241      -0.02703188       0.04110524
Pt       2.80721392       6.48298285      22.29208057        2       0.01658299       0.00957551      -0.03130662
Pt       5.61442784       6.48298285      22.29208057        2      -0.00000257      -0.04940570      -0.01080635
Pt       8.42164176       6.48298285      22.29208057        2      -0.01658116       0.00957718      -0.03130826
Pt       0.00154943       0.00089434      24.57688609        1      -0.00320112      -0.00184975      -0.00631142
Pt       2.80566466       0.00089441      24.57688612        1       0.00320030      -0.00184809      -0.00630990
Pt       5.61442778      -0.00688236      24.57748819        1       0.00000207       0.02060976      -0.00907671
Pt       1.40360715       2.42932952      24.57688630        1      -0.00000055       0.00369629      -0.00631949
Pt       4.19942515       2.42453917      24.59691405        1       0.01708607       0.00986670       0.02064924
Pt       7.02943024       2.42453919      24.59691425        1      -0.01708619       0.00986499       0.02064984
Pt       2.80125379       4.86567836      24.57748831        1       0.01784983      -0.01030474      -0.00907558
Pt       5.61442782       4.87539586      24.59691411        1      -0.00000253      -0.01972909       0.02064718
Pt       8.42760188       4.86567857      24.57748823        1      -0.01784792      -0.01030787      -0.00907522
N        5.61442748       3.24149267      27.59226963        0       0.00003208      -0.00011754      -0.02897698
H        6.43275854       2.76902790      27.19286754        0      -0.02508426       0.01448788       0.00914194
H        4.79609768       2.76902823      27.19286757        0       0.02505416       0.01447264       0.00912726
H        5.61442782       4.18641684      27.19286799        0      -0.00000191      -0.02884299       0.00908636
