31
Lattice="8.421641763931781 0.0 0.0 4.2108208819658905 7.293355709136913 0.0 0.0 0.0 44.584161137365626" Properties=species:S:1:pos:R:3:tags:I:1:forces:R:3 energy=-172.80535888671875 free_energy=-172.80535888671875 stress="0.010277380235493183 -2.1631052732118405e-05 5.580802098847926e-05 -2.1631052732118405e-05 0.01030237227678299 3.2224987080553547e-05 5.580802098847926e-05 3.2224987080553547e-05 -1.5544323105132207e-05" pbc="T T T"
Pt       1.40360696       0.81037286      20.00000000        3      -0.00220928      -0.00020410      -0.00832942
Pt       4.21082088       0.81037286      20.00000000        3       0.00014043       0.00326075       0.00135860
Pt       7.01803480       0.81037286      20.00000000        3       0.00048501       0.00027909      -0.00643200
Pt       2.80721392       3.24149143      20.00000000        3       0.00143800       0.00082934       0.02707893
Pt       5.61442784       3.24149143      20.00000000        3      -0.00152727      -0.00298757       0.01604915
Pt       8.42164176       3.24149143      20.00000000        3      -0.00127856      -0.00181291      -0.00833142
Pt       4.21082088       5.67261000      20.00000000        3      -0.00334724       0.00017438       0.01604912
Pt       7.01803480       5.67261000      20.00000000        3      -0.00220519      -0.00126955      -0.00997069
Pt       9.82524872       5.67261000      20.00000000        3       0.00289362      -0.00150835       0.00135672
Pt      -0.00000000       1.62074571      22.29208057        2       0.01163514       0.00671350      -0.10786474
Pt       2.80721392       1.62074571      22.29208057        2       0.14085469       0.10647129       0.02284981
Pt       5.61442784       1.62074571      22.29208057        2      -0.13347107       0.10136360       0.03627371
Pt       1.40360696       4.05186428      22.29208057        2       0.16263628       0.06874631       0.02284950
Pt       4.21082088       4.05186428      22.29208057        2      -0.04051694      -0.02339307       0.07277256
Pt       7.01803480       4.05186428      22.29208057        2      -0.08324985       0.02111844      -0.03975367
Pt       2.80721392       6.48298285      22.29208057        2       0.02105184      -0.16626778       0.03627378
Pt       5.61442784       6.48298285      22.29208057        2      -0.02333592      -0.08265056      -0.03975619
Pt       8.42164176       6.48298285      22.29208057        2       0.03546419       0.02047791      -0.07370483
Pt       0.01865207       0.01549714      24.57008920        1      -0.02177525       0.00508671      -0.00071348
Pt       2.82482416      -0.00280176      24.56335389        1      -0.02947576       0.03632905       0.00769168
Pt       5.63445189       0.01156054      24.56370888        1      -0.01980346      -0.01143131      -0.00901280
Pt       1.40309383       2.43082253      24.56808234        1      -0.00993134      -0.00573687      -0.00642718
Pt       4.23176141       2.41393165      24.62682496        1      -0.03056168       0.00002182      -0.00761297
Pt       7.04078115       2.43952217      24.57008961        1      -0.00648116      -0.02139982      -0.00071295
Pt       2.80279971       4.88896556      24.62682478        1      -0.01525809      -0.02647873      -0.00760798
Pt       5.63874057       4.87627413      24.59456887        1       0.01486707       0.00858238       0.04193332
Pt       8.42802054       4.87888859      24.56335428        1       0.01672190      -0.04369079       0.00769213
N        3.94759039       3.89988832      26.93230169        0       0.00818792       0.00470664      -0.03414419
H        4.71697745       4.34409479      26.38941463        0       0.02619710       0.01512275       0.02583238
H        3.90985369       2.93175936      26.55474911        0      -0.01845422       0.01103717       0.01216171
H        3.09029832       4.35127253      26.55474987        0       0.00030906      -0.02148983       0.01215126
