31
Lattice="8.421641763931781 0.0 0.0 4.2108208819658905 7.293355709136913 0.0 0.0 0.0 44.584161137365626" Properties=species:S:1:pos:R:3:tags:I:1:forces:R:3 energy=-172.80653381347656 free_energy=-172.80653381347656 stress="0.010291829705238342 -5.927605073452469e-09 -9.043705340161523e-09 -5.927605073452469e-09 0.010291832499206066 3.7382825723852875e-09 -9.043705340161523e-09 3.7382825723852875e-09 2.5771469154278748e-05" pbc="T T T"
Pt       1.40360696       0.81037286      20.00000000        3       0.00000093      -0.00000274      -0.00860608
Pt       4.21082088       0.81037286      20.00000000        3      -0.00223193       0.00252725       0.00094780
Pt       7.01803480       0.81037286      20.00000000        3       0.00223103       0.00252641       0.00094661
Pt       2.80721392       3.24149143      20.00000000        3       0.00107385      -0.00319853       0.00094721
Pt       5.61442784       3.24149143      20.00000000        3      -0.00000202      -0.00000035       0.03144515
Pt       8.42164176       3.24149143      20.00000000        3      -0.00107138      -0.00319763       0.00094599
Pt       4.21082088       5.67261000      20.00000000        3       0.00330850       0.00067143       0.00094804
Pt       7.01803480       5.67261000      20.00000000        3      -0.00330840       0.00067223       0.00094670
Pt       9.82524872       5.67261000      20.00000000        3      -0.00000102       0.00000232      -0.01521626
Pt      -0.00000000       1.62074571      22.29208057        2      -0.13821083       0.07979546       0.02789565
Pt       2.80721392       1.62074571      22.29208057        2       0.13821335       0.07979555       0.02789455
Pt       5.61442784       1.62074571      22.29208057        2      -0.00000225       0.12210029       0.04594308
Pt       1.40360696       4.05186428      22.29208057        2       0.00000115      -0.03577090      -0.07026486
Pt       4.21082088       4.05186428      22.29208057        2       0.10574470      -0.06105101       0.04594316
Pt       7.01803480       4.05186428      22.29208057        2      -0.10574661      -0.06105080       0.04594443
Pt       2.80721392       6.48298285      22.29208057        2       0.03097888       0.01788661      -0.07026558
Pt       5.61442784       6.48298285      22.29208057        2      -0.00000170      -0.15959245       0.02789393
Pt       8.42164176       6.48298285      22.29208057        2      -0.03097708       0.01788877      -0.07026539
Pt       0.00224095       0.00129354      24.56523477        1       0.00060577       0.00035085      -0.00526199
Pt       2.80497317       0.00129356      24.56523458        1      -0.00060408       0.00034802      -0.00526181
Pt       5.61442781      -0.01027188      24.56857335        1      -0.00000220       0.00925121      -0.00448640
Pt       1.40360709       2.42853108      24.56523483        1      -0.00000228      -0.00069943      -0.00526172
Pt       4.18532950       2.41640101      24.61131526        1       0.01195686       0.00690338       0.00162256
Pt       7.04352586       2.41640106      24.61131525        1      -0.01195458       0.00690283       0.00162536
Pt       2.79831841       4.86737296      24.56857324        1       0.00801168      -0.00462687      -0.00448428
Pt       5.61442780       4.89167194      24.61131499        1       0.00000119      -0.01380622       0.00162306
Pt       8.43053717       4.86737308      24.56857356        1      -0.00801211      -0.00462531      -0.00448424
N        5.61442720       3.24149155      26.92948685        0       0.00004922      -0.00001507       0.03304505
H        4.79045784       2.76577179      26.51547570        0      -0.00879663      -0.00507451      -0.01090913
H        5.61442785       4.19293032      26.51547562        0      -0.00000538       0.01014516      -0.01090386
H        6.43839813       2.76577185      26.51547558        0       0.00875339      -0.00505581      -0.01088677
