31
Lattice="8.421641763931781 0.0 0.0 4.2108208819658905 7.293355709136913 0.0 0.0 0.0 44.584161137365626" Properties=species:S:1:pos:R:3:tags:I:1:forces:R:3 energy=-172.80596923828125 free_energy=-172.80596923828125 stress="0.01026378758251667 -4.449054176802747e-05 -8.823053940432146e-05 -4.449054176802747e-05 0.010315175168216228 -5.093613435747102e-05 -8.823053940432146e-05 -5.093613435747102e-05 -2.519884037610609e-05" pbc="T T T"
Pt       1.40360696       0.81037286      20.00000000        3      -0.00119387       0.00088896      -0.00833544
Pt       4.21082088       0.81037286      20.00000000        3       0.00177980       0.00456530       0.00073293
Pt       7.01803480       0.81037286      20.00000000        3       0.00235655       0.00135918      -0.00847182
Pt       2.80721392       3.24149143      20.00000000        3       0.00228186       0.00131656       0.02806607
Pt       5.61442784       3.24149143      20.00000000        3      -0.00033830      -0.00209178       0.01607394
Pt       8.42164176       3.24149143      20.00000000        3       0.00017573      -0.00147917      -0.00833794
Pt       4.21082088       5.67261000      20.00000000        3      -0.00197750       0.00075611       0.01607606
Pt       7.01803480       5.67261000      20.00000000        3      -0.00047236      -0.00026946      -0.01008749
Pt       9.82524872       5.67261000      20.00000000        3       0.00484239      -0.00074191       0.00073206
Pt      -0.00000000       1.62074571      22.29208057        2      -0.01717492      -0.00992413      -0.12073185
Pt       2.80721392       1.62074571      22.29208057        2       0.11912144       0.10259897       0.02591279
Pt       5.61442784       1.62074571      22.29208057        2      -0.16237335       0.08812182       0.02518247
Pt       1.40360696       4.05186428      22.29208057        2       0.14841783       0.05186392       0.02591814
Pt       4.21082088       4.05186428      22.29208057        2      -0.05769433      -0.03330684       0.08368458
Pt       7.01803480       4.05186428      22.29208057        2      -0.10972489       0.01324250      -0.04020109
Pt       2.80721392       6.48298285      22.29208057        2      -0.00486235      -0.18467937       0.02519015
Pt       5.61442784       6.48298285      22.29208057        2      -0.04340158      -0.10164151      -0.04019967
Pt       8.42164176       6.48298285      22.29208057        2       0.00831891       0.00480285      -0.06137893
Pt      -0.01871757      -0.00619240      24.56863357        1       0.01606578       0.01267431       0.00779004
Pt       2.79204265      -0.01109097      24.56279978        1       0.01351738      -0.00445697       0.00658542
Pt       5.60245570      -0.00691253      24.56256477        1      -0.01720785      -0.00993490      -0.00170413
Pt       1.36356181       2.40799770      24.56969527        1       0.03841834       0.02218303      -0.00400178
Pt       4.19418947       2.39675915      24.62805594        1       0.00596915       0.03319095      -0.00591253
Pt       7.00331299       2.41800440      24.56863109        1       0.01901118       0.00757345       0.00781296
Pt       2.76914238       4.86501353      24.62805738        1       0.03172978      -0.01142630      -0.00592314
Pt       5.62072532       4.86587251      24.59392275        1      -0.00276968      -0.00159462       0.02678881
Pt       8.40445160       4.85464352      24.56280118        1       0.00290004       0.01393558       0.00657552
N        3.95966584       3.90686136      26.93106528        0      -0.02166363      -0.01254099      -0.01033065
H        3.09743914       4.35549374      26.56361279        0       0.01759852       0.00684926      -0.00305444
H        4.73014446       4.35169621      26.38980178        0      -0.00637800      -0.00367574       0.02859555
H        3.91707976       2.93583425      26.56361134        0       0.01472763       0.01184082      -0.00304671
