31
Lattice="8.421641763931781 0.0 0.0 4.2108208819658905 7.293355709136913 0.0 0.0 0.0 44.584161137365626" Properties=species:S:1:pos:R:3:tags:I:1:forces:R:3 energy=-172.80612182617188 free_energy=-172.80612182617188 stress="0.010317448526620865 -4.7653210266673796e-09 6.010314468340994e-09 -4.7653210266673796e-09 0.010317455045878887 -2.1575385922290025e-09 6.010314468340994e-09 -2.1575385922290025e-09 1.4715702491230331e-05" pbc="T T T"
Pt       1.40360696       0.81037286      20.00000000        3      -0.00118098       0.00067971      -0.00975442
Pt       4.21082088       0.81037286      20.00000000        3       0.00000176       0.00306489      -0.00309983
Pt       7.01803480       0.81037286      20.00000000        3       0.00117930       0.00068023      -0.00975484
Pt       2.80721392       3.24149143      20.00000000        3       0.00054355       0.00031242       0.01786757
Pt       5.61442784       3.24149143      20.00000000        3      -0.00054433       0.00031255       0.01786754
Pt       8.42164176       3.24149143      20.00000000        3       0.00000141      -0.00136433      -0.00975692
Pt       4.21082088       5.67261000      20.00000000        3       0.00000214      -0.00062424       0.01786801
Pt       7.01803480       5.67261000      20.00000000        3      -0.00265753      -0.00153062      -0.00310192
Pt       9.82524872       5.67261000      20.00000000        3       0.00265446      -0.00153038      -0.00310180
Pt      -0.00000000       1.62074571      22.29208057        2       0.00000209      -0.00000285      -0.12116300
Pt       2.80721392       1.62074571      22.29208057        2       0.12058286       0.08953848       0.01156866
Pt       5.61442784       1.62074571      22.29208057        2      -0.12058417       0.08953845       0.01156887
Pt       1.40360696       4.05186428      22.29208057        2       0.13783485       0.05965477       0.01156821
Pt       4.21082088       4.05186428      22.29208057        2       0.00000127      -0.00000228       0.08417803
Pt       7.01803480       4.05186428      22.29208057        2      -0.13783687       0.05965544       0.01156798
Pt       2.80721392       6.48298285      22.29208057        2       0.01725414      -0.14919320       0.01156664
Pt       5.61442784       6.48298285      22.29208057        2      -0.01725531      -0.14919324       0.01156583
Pt       8.42164176       6.48298285      22.29208057        2       0.00000111       0.00000419      -0.05945015
Pt       0.00000034       0.01175091      24.56734065        1      -0.00000012      -0.01475602       0.01010536
Pt       2.80793665      -0.00041728      24.56338221        1       0.00592668      -0.00342113      -0.00190958
Pt       5.61370529      -0.00041737      24.56338246        1      -0.00592614      -0.00342057      -0.00191069
Pt       1.39343051       2.42524274      24.56734089        1       0.01278010       0.00738028       0.01010600
Pt       4.21082092       2.41191767      24.61556725        1      -0.00000040      -0.00761496      -0.00049368
Pt       7.02821147       2.42524287      24.56734111        1      -0.01278105       0.00737729       0.01010658
Pt       2.79058543       4.87183751      24.61556643        1      -0.00659266       0.00380499      -0.00048055
Pt       5.63105608       4.87183753      24.61556663        1       0.00659162       0.00380576      -0.00048295
Pt       8.42164175       4.86307123      24.56338229        1       0.00000273       0.00684326      -0.00190884
N        4.21082124       4.05186407      26.96079425        0      -0.00003821       0.00001498      -0.02611080
H        3.39216784       4.52451385      26.53156593        0      -0.02725086       0.01573231       0.00500122
H        5.02947302       4.52451310      26.53156575        0       0.02728987       0.01575613       0.00498321
H        4.21082102       3.10656601      26.53156568        0      -0.00000128      -0.03150243       0.00499009
