31
Lattice="8.421641763931781 0.0 0.0 4.2108208819658905 7.293355709136913 0.0 0.0 0.0 44.584161137365626" Properties=species:S:1:pos:R:3:tags:I:1:forces:R:3 energy=-172.5950164794922 free_energy=-172.5950164794922 stress="0.01054079644382 -3.822305139067339e-09 -3.7054264101499257e-09 -3.822305139067339e-09 0.010540745221078396 -2.9623304698134234e-08 -3.7054264101499257e-09 -2.9623304698134234e-08 -0.00010158999793929979" pbc="T T T"
Pt       1.40360696       0.81037286      20.00000000        3       0.00000135      -0.00000289      -0.00804320
Pt       4.21082088       0.81037286      20.00000000        3      -0.00033389       0.00056185      -0.00361854
Pt       7.01803480       0.81037286      20.00000000        3       0.00033304       0.00056111      -0.00362071
Pt       2.80721392       3.24149143      20.00000000        3       0.00032146      -0.00057312      -0.00362095
Pt       5.61442784       3.24149143      20.00000000        3      -0.00000237       0.00000002       0.00280055
Pt       8.42164176       3.24149143      20.00000000        3      -0.00031864      -0.00057207      -0.00362164
Pt       4.21082088       5.67261000      20.00000000        3       0.00065814       0.00001038      -0.00361976
Pt       7.01803480       5.67261000      20.00000000        3      -0.00065778       0.00001170      -0.00362051
Pt       9.82524872       5.67261000      20.00000000        3      -0.00000144       0.00000261      -0.00901887
Pt      -0.00000000       1.62074571      22.29208057        2      -0.02764772       0.01596091      -0.01667567
Pt       2.80721392       1.62074571      22.29208057        2       0.02764908       0.01596103      -0.01668018
Pt       5.61442784       1.62074571      22.29208057        2      -0.00000109       0.02752650       0.02986732
Pt       1.40360696       4.05186428      22.29208057        2      -0.00000142      -0.01516383      -0.02844799
Pt       4.21082088       4.05186428      22.29208057        2       0.02384263      -0.01376479       0.02986470
Pt       7.01803480       4.05186428      22.29208057        2      -0.02384150      -0.01376368       0.02987063
Pt       2.80721392       6.48298285      22.29208057        2       0.01313337       0.00758469      -0.02844984
Pt       5.61442784       6.48298285      22.29208057        2      -0.00000093      -0.03192436      -0.01668136
Pt       8.42164176       6.48298285      22.29208057        2      -0.01313167       0.00758279      -0.02845332
Pt       0.00435943       0.00251482      24.57790508        1      -0.02783645      -0.01606096       0.01101252
Pt       2.80285646       0.00251566      24.57790498        1       0.02782539      -0.01606529       0.01101363
Pt       5.61442674      -0.00781491      24.57844240        1       0.00001045       0.04038965       0.01040009
Pt       1.40360761       2.42608589      24.57790480        1      -0.00000606       0.03213390       0.01101416
Pt       4.20815329       2.42957829      24.59062825        1      -0.02003142      -0.01156811       0.00457025
Pt       7.02070169       2.42957777      24.59062747        1       0.02003761      -0.01156695       0.00456966
Pt       2.80044764       4.86614342      24.57844195        1       0.03497044      -0.02018955       0.01040071
Pt       5.61442709       4.86531751      24.59062816        1       0.00000701       0.02313095       0.00456983
Pt       8.42840840       4.86614459      24.57844268        1      -0.03497782      -0.02020214       0.01039144
N        5.61442742       3.24148988      27.94718803        0       0.00001903       0.00020206      -0.00692478
H        4.79943742       3.71202659      27.54979806        0       0.00674430      -0.00390510       0.00360763
H        6.42941778       3.71202538      27.54979752        0      -0.00675187      -0.00389667       0.00361681
H        5.61442869       2.30042480      27.54979866        0      -0.00001102       0.00759928       0.00352731
