31
Lattice="8.421641763931781 0.0 0.0 4.2108208819658905 7.293355709136913 0.0 0.0 0.0 44.584161137365626" Properties=species:S:1:pos:R:3:tags:I:1:forces:R:3 energy=-172.79193115234375 free_energy=-172.79193115234375 stress="0.010310125537216663 2.620062611313756e-09 -5.846847894730445e-09 2.620062611313756e-09 0.010310136713087559 1.0066699557276237e-10 -5.846847894730445e-09 1.0066699557276237e-10 -5.320162745192647e-05" pbc="T T T"
Pt       1.40360696       0.81037286      20.00000000        3      -0.00150170       0.00007863      -0.00642648
Pt       4.21082088       0.81037286      20.00000000        3       0.00026967       0.00262420      -0.00198129
Pt       7.01803480       0.81037286      20.00000000        3       0.00081961       0.00125808      -0.00642741
Pt       2.80721392       3.24149143      20.00000000        3       0.00013382      -0.00073322       0.01711342
Pt       5.61442784       3.24149143      20.00000000        3       0.00056636       0.00048028       0.01711488
Pt       8.42164176       3.24149143      20.00000000        3       0.00068121      -0.00134178      -0.00642899
Pt       4.21082088       5.67261000      20.00000000        3      -0.00069777       0.00025374       0.01711476
Pt       7.01803480       5.67261000      20.00000000        3      -0.00241004      -0.00107812      -0.00198254
Pt       9.82524872       5.67261000      20.00000000        3       0.00213839      -0.00154220      -0.00198162
Pt      -0.00000000       1.62074571      22.29208057        2       0.00000159      -0.00000169      -0.12335946
Pt       2.80721392       1.62074571      22.29208057        2       0.11871710       0.08206017       0.00725963
Pt       5.61442784       1.62074571      22.29208057        2      -0.10594322       0.07567941       0.01753139
Pt       1.40360696       4.05186428      22.29208057        2       0.11851224       0.05390839       0.01753552
Pt       4.21082088       4.05186428      22.29208057        2      -0.00000032      -0.00000075       0.07267347
Pt       7.01803480       4.05186428      22.29208057        2      -0.13042459       0.06178056       0.00725917
Pt       2.80721392       6.48298285      22.29208057        2       0.01170891      -0.14384149       0.00725945
Pt       5.61442784       6.48298285      22.29208057        2      -0.01257315      -0.12958451       0.01752847
Pt       8.42164176       6.48298285      22.29208057        2       0.00000197       0.00000104      -0.04818468
Pt      -0.00871745       0.01462066      24.57019350        1       0.02185070      -0.03447207      -0.00114819
Pt       2.81544903       0.00938979      24.56825663        1      -0.01508262      -0.02342732      -0.02905734
Pt       5.61844248      -0.01182686      24.56825702        1      -0.01274916       0.02477610      -0.02905734
Pt       1.39530384       2.41625788      24.57019368        1       0.01892779       0.03616156      -0.00114606
Pt       4.22910525       2.40891792      24.60961125        1      -0.02603640      -0.01961216      -0.00391946
Pt       7.03505572       2.43135808      24.57019363        1      -0.04077868      -0.00169203      -0.00114639
Pt       2.77884560       4.85750254      24.60961107        1      -0.00396684       0.03235406      -0.00392006
Pt       5.62451212       4.88917188      24.60961037        1       0.02999639      -0.01274156      -0.00390727
Pt       8.40939167       4.86467344      24.56825793        1       0.02783799      -0.00134678      -0.02906561
N        4.21082035       4.05186468      26.91368951        0       0.00003336      -0.00000688       0.03995520
H        3.30084088       4.30711583      26.47644971        0       0.02093774       0.02487656       0.02025719
H        4.88686578       4.71230398      26.47645003        0       0.01104814      -0.03058853       0.02026764
H        4.44475595       3.13617283      26.47644928        0      -0.03201854       0.00571862       0.02027004
