31
Lattice="8.421641763931781 0.0 0.0 4.2108208819658905 7.293355709136913 0.0 0.0 0.0 44.584161137365626" Properties=species:S:1:pos:R:3:tags:I:1:forces:R:3 energy=-172.80897521972656 free_energy=-172.80897521972656 stress="0.010249973274767399 2.9395208912319504e-05 -1.20243737455894e-06 2.9395208912319504e-05 0.010283931158483028 6.983201501498115e-07 -1.20243737455894e-06 6.983201501498115e-07 -5.033997240388999e-06" pbc="T T T"
Pt       1.40360696       0.81037286      20.00000000        3      -0.00009829       0.00005470      -0.00896949
Pt       4.21082088       0.81037286      20.00000000        3      -0.00154244       0.00357670       0.00241214
Pt       7.01803480       0.81037286      20.00000000        3       0.00260623       0.00156732      -0.00206795
Pt       2.80721392       3.24149143      20.00000000        3       0.00173549      -0.00380888       0.00406429
Pt       5.61442784       3.24149143      20.00000000        3      -0.00104926       0.00060395       0.03430635
Pt       8.42164176       3.24149143      20.00000000        3      -0.00005375      -0.00304368      -0.00206932
Pt       4.21082088       5.67261000      20.00000000        3       0.00416753       0.00040417       0.00406536
Pt       7.01803480       5.67261000      20.00000000        3      -0.00387285      -0.00044865       0.00241029
Pt       9.82524872       5.67261000      20.00000000        3       0.00012749      -0.00007080      -0.01603699
Pt      -0.00000000       1.62074571      22.29208057        2      -0.10316945       0.05956282      -0.02879849
Pt       2.80721392       1.62074571      22.29208057        2       0.15789458       0.09304696       0.05009683
Pt       5.61442784       1.62074571      22.29208057        2      -0.04131548       0.12694782       0.03362798
Pt       1.40360696       4.05186428      22.29208057        2       0.00397214      -0.03557258      -0.07853397
Pt       4.21082088       4.05186428      22.29208057        2       0.11025114      -0.06365303       0.05075551
Pt       7.01803480       4.05186428      22.29208057        2      -0.13060094      -0.02769604       0.03363021
Pt       2.80721392       6.48298285      22.29208057        2       0.03279184       0.01434882      -0.07853438
Pt       5.61442784       6.48298285      22.29208057        2      -0.00163781      -0.18326247       0.05009658
Pt       8.42164176       6.48298285      22.29208057        2      -0.03574999       0.02064437      -0.07620251
Pt      -0.00235249       0.00811703      24.56456352        1       0.00498420      -0.01182214       0.00389591
Pt       2.80520838       0.00115778      24.56195667        1      -0.01676770       0.00968039       0.00477539
Pt       5.61078635      -0.00332850      24.56711325        1       0.00097826      -0.00223541       0.00480540
Pt       1.39540091       2.42909682      24.56456306        1       0.01272881       0.00159630       0.00389671
Pt       4.18171183       2.42001223      24.62122102        1       0.00170477       0.00021723      -0.00540468
Pt       7.03739666       2.41993977      24.60122984        1      -0.00205582       0.00118790       0.01020555
Pt       2.78942937       4.87250513      24.56471834        1      -0.00103737       0.00059693       0.01161073
Pt       5.60949138       4.89299966      24.62122101        1       0.00066604      -0.00158529      -0.00540480
Pt       8.42270334       4.86705448      24.56711402        1       0.00242351       0.00027003       0.00480792
N        5.41756879       3.35514824      26.92569401        0      -0.01963665       0.01131463       0.02497193
H        5.39089753       4.32184780      26.54854239        0       0.00547271      -0.00312895      -0.00568406
H        6.21095532       2.89708450      26.43662209        0       0.01063935      -0.00612912      -0.02105384
H        4.56704734       2.89489499      26.54854230        0       0.00544398      -0.00316400      -0.00567436
