31
Lattice="8.421641763931781 0.0 0.0 4.2108208819658905 7.293355709136913 0.0 0.0 0.0 44.584161137365626" Properties=species:S:1:pos:R:3:tags:I:1:forces:R:3 energy=-172.76075744628906 free_energy=-172.76075744628906 stress="0.010408141650259495 7.045136590022594e-05 7.427973469020799e-05 7.045136590022594e-05 0.010361267253756523 -0.00011714227730408311 7.427973469020799e-05 -0.00011714227730408311 0.00011396710760891438" pbc="T T T"
Pt       1.40360696       0.81037286      20.00000000        3      -0.00257324       0.00266307       0.00178951
Pt       4.21082088       0.81037286      20.00000000        3       0.00008755       0.00390438       0.00241470
Pt       7.01803480       0.81037286      20.00000000        3      -0.00036467       0.00053105      -0.00557938
Pt       2.80721392       3.24149143      20.00000000        3       0.00069945       0.00237293       0.03803602
Pt       5.61442784       3.24149143      20.00000000        3      -0.00145013      -0.00184710       0.01665190
Pt       8.42164176       3.24149143      20.00000000        3       0.00073988      -0.00255287       0.00242954
Pt       4.21082088       5.67261000      20.00000000        3      -0.00326236       0.00049470       0.01904449
Pt       7.01803480       5.67261000      20.00000000        3      -0.00311150      -0.00061830      -0.00506568
Pt       9.82524872       5.67261000      20.00000000        3       0.00347962      -0.00050438       0.00365829
Pt      -0.00000000       1.62074571      22.29208057        2       0.06738941       0.02217979      -0.06476823
Pt       2.80721392       1.62074571      22.29208057        2       0.06309637       0.08650038      -0.00417591
Pt       5.61442784       1.62074571      22.29208057        2      -0.11647607       0.08063526       0.02495471
Pt       1.40360696       4.05186428      22.29208057        2       0.14209569       0.01201648       0.03078930
Pt       4.21082088       4.05186428      22.29208057        2      -0.06892969      -0.01447444       0.03637967
Pt       7.01803480       4.05186428      22.29208057        2      -0.04171919      -0.01799894      -0.03812019
Pt       2.80721392       6.48298285      22.29208057        2       0.02806340      -0.19790125       0.05175242
Pt       5.61442784       6.48298285      22.29208057        2      -0.03285516      -0.05591552      -0.03371545
Pt       8.42164176       6.48298285      22.29208057        2       0.02190043      -0.00277882      -0.05837037
Pt       0.01674943       0.00104165      24.57114145        1       0.00851291       0.00325129      -0.00352493
Pt       2.81633256      -0.02455985      24.56952121        1      -0.00725032      -0.00305830      -0.00144607
Pt       5.62717235      -0.00788958      24.55989907        1      -0.01687561       0.02247091       0.00331688
Pt       1.42121873       2.41326273      24.60469623        1       0.01747205       0.00798129       0.00361991
Pt       4.24454488       2.39500200      24.62028252        1      -0.00648730       0.01143942       0.01261646
Pt       7.04688276       2.41630715      24.57077875        1       0.00826414      -0.00150140      -0.00210568
Pt       2.80378641       4.89106360      24.62962495        1       0.00048656      -0.00439703       0.02442807
Pt       5.63065985       4.84403138      24.60377295        1      -0.01337224      -0.00945129       0.00149834
Pt       8.42552355       4.85334334      24.56933695        1      -0.00602774      -0.01067571      -0.00238244
N        3.51435922       3.62552518      26.89483105        0      -0.01435632       0.02193356      -0.01386306
H        4.40479724       3.71963310      26.35085335        0       0.02660143       0.01834243      -0.01685020
H        2.98742856       2.90132003      26.35178272        0      -0.03076794      -0.01329935      -0.01945764
H        3.01737226       4.48623162      26.58755403        0      -0.02300932       0.04025772      -0.00395512
