31
Lattice="8.421641763931781 0.0 0.0 4.2108208819658905 7.293355709136913 0.0 0.0 0.0 44.584161137365626" Properties=species:S:1:pos:R:3:tags:I:1:forces:R:3 energy=-172.5789794921875 free_energy=-172.5789794921875 stress="0.010473099537193775 -6.8470562553102354e-09 3.7056337998109257e-09 -6.8470562553102354e-09 0.010473106987774372 -5.718973739021749e-09 3.7056337998109257e-09 -5.718973739021749e-09 -0.0002002268738579005" pbc="T T T"
Pt       1.40360696       0.81037286      20.00000000        3       0.00000080      -0.00000222      -0.00540158
Pt       4.21082088       0.81037286      20.00000000        3      -0.00079436       0.00067957      -0.00219920
Pt       7.01803480       0.81037286      20.00000000        3       0.00074413       0.00084614      -0.00204489
Pt       2.80721392       3.24149143      20.00000000        3       0.00036329      -0.00107095      -0.00204581
Pt       5.61442784       3.24149143      20.00000000        3      -0.00000207      -0.00000040       0.00783724
Pt       8.42164176       3.24149143      20.00000000        3      -0.00019050      -0.00102938      -0.00220188
Pt       4.21082088       5.67261000      20.00000000        3       0.00099004       0.00035048      -0.00219959
Pt       7.01803480       5.67261000      20.00000000        3      -0.00110996       0.00022479      -0.00204554
Pt       9.82524872       5.67261000      20.00000000        3      -0.00000151       0.00000240      -0.00681716
Pt      -0.00000000       1.62074571      22.29208057        2      -0.03219014       0.01882772      -0.02422011
Pt       2.80721392       1.62074571      22.29208057        2       0.03240385       0.01846323      -0.02422154
Pt       5.61442784       1.62074571      22.29208057        2       0.00152490       0.04198219       0.02925670
Pt       1.40360696       4.05186428      22.29208057        2       0.00078565      -0.01329012      -0.03097397
Pt       4.21082088       4.05186428      22.29208057        2       0.03559504      -0.02231343       0.02925956
Pt       7.01803480       4.05186428      22.29208057        2      -0.03712338      -0.01966802       0.02926122
Pt       2.80721392       6.48298285      22.29208057        2       0.01111990       0.00732450      -0.03097647
Pt       5.61442784       6.48298285      22.29208057        2      -0.00021374      -0.03729263      -0.02422220
Pt       8.42164176       6.48298285      22.29208057        2      -0.01190192       0.00596714      -0.03097692
Pt       0.00125015       0.00150236      24.57723229        1      -0.00713244      -0.00009497      -0.00424382
Pt       2.80528759       0.00033108      24.57723238        1       0.00364978      -0.00612864      -0.00424245
Pt       5.61499731      -0.00636813      24.57875342        1       0.00299108       0.01931842      -0.00732276
Pt       1.40428340       2.42928469      24.57723245        1       0.00348282       0.00622384      -0.00424159
Pt       4.19857771       2.42122472      24.58945419        1       0.02483021       0.00794447       0.00628398
Pt       7.03272456       2.42546257      24.58945416        1      -0.01929469       0.01753141       0.00628440
Pt       2.80141438       4.86492799      24.57875360        1       0.01523549      -0.01224896      -0.00733253
Pt       5.61198096       4.87778716      24.58945423        1      -0.00553344      -0.02547743       0.00628522
Pt       8.42687195       4.86591445      24.57875372        1      -0.01822882      -0.00706971      -0.00733101
N        5.61442808       3.24149116      27.59559739        0      -0.00003140       0.00004760       0.00370362
H        5.13768994       2.42587654      27.19906536        0      -0.00924630       0.03346978       0.03568938
H        5.14645348       4.06216586      27.19906515        0       0.03363676      -0.00876307       0.03571181
H        6.55913977       3.23643198      27.19906533        0      -0.02435888      -0.02475379       0.03568769
