31
Lattice="8.421641763931781 0.0 0.0 4.2108208819658905 7.293355709136913 0.0 0.0 0.0 44.584161137365626" Properties=species:S:1:pos:R:3:tags:I:1:forces:R:3 energy=-172.80886840820312 free_energy=-172.80886840820312 stress="0.010305249132215977 2.1824538634973578e-05 -4.2201781980111264e-07 2.1824538634973578e-05 0.010330540128052235 2.427424874440476e-07 -4.2201781980111264e-07 2.427424874440476e-07 8.402515959460288e-06" pbc="T T T"
Pt       1.40360696       0.81037286      20.00000000        3      -0.00130335       0.00075051      -0.00881320
Pt       4.21082088       0.81037286      20.00000000        3      -0.00041240       0.00381890      -0.00013253
Pt       7.01803480       0.81037286      20.00000000        3       0.00152130       0.00026272      -0.00968271
Pt       2.80721392       3.24149143      20.00000000        3       0.00092798      -0.00141633       0.01716617
Pt       5.61442784       3.24149143      20.00000000        3      -0.00160440       0.00092532       0.02362189
Pt       8.42164176       3.24149143      20.00000000        3       0.00053432      -0.00145201      -0.00968373
Pt       4.21082088       5.67261000      20.00000000        3       0.00169214      -0.00009378       0.01716724
Pt       7.01803480       5.67261000      20.00000000        3      -0.00351801      -0.00154931      -0.00013250
Pt       9.82524872       5.67261000      20.00000000        3       0.00174481      -0.00100545      -0.00764921
Pt      -0.00000000       1.62074571      22.29208057        2       0.00348696      -0.00201162      -0.11545379
Pt       2.80721392       1.62074571      22.29208057        2       0.14300074       0.09631883       0.02984676
Pt       5.61442784       1.62074571      22.29208057        2      -0.13441922       0.09835668       0.01989800
Pt       1.40360696       4.05186428      22.29208057        2       0.10979235       0.02900828      -0.02290868
Pt       4.21082088       4.05186428      22.29208057        2       0.03032062      -0.01750005       0.08497964
Pt       7.01803480       4.05186428      22.29208057        2      -0.15239245       0.06723544       0.01991227
Pt       2.80721392       6.48298285      22.29208057        2       0.02977496      -0.10958898      -0.02291221
Pt       5.61442784       6.48298285      22.29208057        2      -0.01191308      -0.17200738       0.02985723
Pt       8.42164176       6.48298285      22.29208057        2      -0.01390333       0.00802479      -0.06294470
Pt       0.00093532       0.00744641      24.56870149        1      -0.00196328      -0.00027546       0.00530583
Pt       2.80612357       0.00063180      24.56180274        1       0.01166236      -0.00675949       0.00302444
Pt       5.61451197      -0.00447374      24.56366428        1      -0.00397152       0.01116440       0.00247982
Pt       1.39762629       2.42658424      24.56870214        1      -0.00075241       0.00184408       0.00529847
Pt       4.20923078       2.41065053      24.62481948        1       0.00001807      -0.00104001      -0.00747877
Pt       7.03207323       2.42301243      24.56554090        1       0.00260294      -0.00149172       0.01330361
Pt       2.78812998       4.87325472      24.60324899        1       0.00105095      -0.00060438       0.01187335
Pt       5.63135660       4.87384711      24.62482293        1       0.00093489       0.00052032      -0.00751497
Pt       8.42555997       4.86440052      24.56366444        1      -0.01167786      -0.00214108       0.00247097
N        4.40524858       3.93960904      26.94624931        0       0.02446298      -0.01412184       0.01651743
H        3.61390307       4.39650173      26.45244329        0      -0.00711295       0.00402825      -0.02128273
H        5.25416806       4.39832819      26.56310838        0      -0.00733361       0.00868043      -0.00305396
H        4.43245317       2.97506064      26.56311076        0      -0.01125041       0.00211985      -0.00307940
