31
Lattice="8.421641763931781 0.0 0.0 4.2108208819658905 7.293355709136913 0.0 0.0 0.0 44.584161137365626" Properties=species:S:1:pos:R:3:tags:I:1:forces:R:3 energy=-172.5789794921875 free_energy=-172.5789794921875 stress="0.010473095811903477 4.170708667317058e-09 -2.0242227893874087e-09 4.170708667317058e-09 0.010473108850419521 -3.9477785485075856e-09 -2.0242227893874087e-09 -3.9477785485075856e-09 -0.00020023337856400758" pbc="T T T"
Pt       1.40360696       0.81037286      20.00000000        3       0.00000087      -0.00000301      -0.00540155
Pt       4.21082088       0.81037286      20.00000000        3      -0.00074503       0.00084716      -0.00204486
Pt       7.01803480       0.81037286      20.00000000        3       0.00079396       0.00067857      -0.00220045
Pt       2.80721392       3.24149143      20.00000000        3       0.00019325      -0.00103016      -0.00220042
Pt       5.61442784       3.24149143      20.00000000        3      -0.00000193      -0.00000011       0.00783753
Pt       8.42164176       3.24149143      20.00000000        3      -0.00036037      -0.00107045      -0.00204650
Pt       4.21082088       5.67261000      20.00000000        3       0.00111054       0.00022388      -0.00204420
Pt       7.01803480       5.67261000      20.00000000        3      -0.00099006       0.00035152      -0.00220099
Pt       9.82524872       5.67261000      20.00000000        3      -0.00000120       0.00000243      -0.00681746
Pt      -0.00000000       1.62074571      22.29208057        2      -0.03240071       0.01846191      -0.02421958
Pt       2.80721392       1.62074571      22.29208057        2       0.03219194       0.01882859      -0.02422128
Pt       5.61442784       1.62074571      22.29208057        2      -0.00152943       0.04198218       0.02925694
Pt       1.40360696       4.05186428      22.29208057        2      -0.00078284      -0.01329060      -0.03097399
Pt       4.21082088       4.05186428      22.29208057        2       0.03712167      -0.01966822       0.02925966
Pt       7.01803480       4.05186428      22.29208057        2      -0.03559650      -0.02231276       0.02926110
Pt       2.80721392       6.48298285      22.29208057        2       0.01190444       0.00596529      -0.03097690
Pt       5.61442784       6.48298285      22.29208057        2       0.00021015      -0.03729261      -0.02422188
Pt       8.42164176       6.48298285      22.29208057        2      -0.01111803       0.00732651      -0.03097737
Pt       0.00192648       0.00033097      24.57723222        1      -0.00364832      -0.00612832      -0.00424269
Pt       2.80596405       0.00150255      24.57723232        1       0.00713079      -0.00009574      -0.00424287
Pt       5.61385813      -0.00636826      24.57875334        1      -0.00299053       0.01932013      -0.00732264
Pt       1.40293084       2.42928460      24.57723246        1      -0.00348432       0.00622385      -0.00424254
Pt       4.19613087       2.42546248      24.58945426        1       0.01929805       0.01753186       0.00628410
Pt       7.03027790       2.42122466      24.58945446        1      -0.02482989       0.00794664       0.00628509
Pt       2.80198378       4.86591452      24.57875356        1       0.01822845      -0.00706877      -0.00733227
Pt       5.61687450       4.87778718      24.58945431        1       0.00553295      -0.02547818       0.00628395
Pt       8.42744138       4.86492825      24.57875364        1      -0.01523792      -0.01225181      -0.00733119
N        5.61442775       3.24149106      27.59559735        0       0.00001677       0.00002521       0.00371695
H        4.66971569       3.23643190      27.19906551        0       0.02435924      -0.02474976       0.03568760
H        6.08240213       4.06216576      27.19906525        0      -0.03362665      -0.00874327       0.03570034
H        6.09116558       2.42587696      27.19906543        0       0.00925069       0.03346804       0.03568852
