31
Lattice="8.421641763931781 0.0 0.0 4.2108208819658905 7.293355709136913 0.0 0.0 0.0 44.584161137365626" Properties=species:S:1:pos:R:3:tags:I:1:forces:R:3 energy=-172.80470275878906 free_energy=-172.80470275878906 stress="0.010280221700668335 -4.735429826041582e-09 4.184482094160558e-09 -4.735429826041582e-09 0.010280236601829529 9.493986041775315e-09 4.184482094160558e-09 9.493986041775315e-09 -4.9386511818738654e-05" pbc="T T T"
Pt       1.40360696       0.81037286      20.00000000        3      -0.00133219       0.00095904      -0.01033655
Pt       4.21082088       0.81037286      20.00000000        3      -0.00020458       0.00324988      -0.00453126
Pt       7.01803480       0.81037286      20.00000000        3       0.00149674       0.00067126      -0.01033685
Pt       2.80721392       3.24149143      20.00000000        3       0.00040814       0.00063216       0.01850098
Pt       5.61442784       3.24149143      20.00000000        3      -0.00075298       0.00003624       0.01850098
Pt       8.42164176       3.24149143      20.00000000        3      -0.00016450      -0.00163485      -0.01033795
Pt       4.21082088       5.67261000      20.00000000        3       0.00034624      -0.00066730       0.01850161
Pt       7.01803480       5.67261000      20.00000000        3      -0.00271490      -0.00180239      -0.00453296
Pt       9.82524872       5.67261000      20.00000000        3       0.00291819      -0.00144428      -0.00453350
Pt      -0.00000000       1.62074571      22.29208057        2       0.00000391      -0.00000171      -0.11663043
Pt       2.80721392       1.62074571      22.29208057        2       0.11681813       0.09317444       0.00259278
Pt       5.61442784       1.62074571      22.29208057        2      -0.12145331       0.09949479      -0.00073540
Pt       1.40360696       4.05186428      22.29208057        2       0.14689267       0.05542927      -0.00073235
Pt       4.21082088       4.05186428      22.29208057        2       0.00000239       0.00000100       0.08541698
Pt       7.01803480       4.05186428      22.29208057        2      -0.13910662       0.05458214       0.00259459
Pt       2.80721392       6.48298285      22.29208057        2       0.02228488      -0.14775495       0.00258979
Pt       5.61442784       6.48298285      22.29208057        2      -0.02544240      -0.15492851      -0.00073306
Pt       8.42164176       6.48298285      22.29208057        2      -0.00000066       0.00000286      -0.07508412
Pt       0.00007302       0.00956113      24.56696920        1      -0.00299813       0.00650384       0.01116674
Pt       2.80382927      -0.00540131      24.55886244        1       0.02370118       0.01240893       0.02354006
Pt       5.61144299       0.00563104      24.55886244        1      -0.00110587      -0.02672812       0.02354062
Pt       1.39529037       2.42640050      24.56696996        1      -0.00413286      -0.00584969       0.01115716
Pt       4.20400186       2.41008373      24.61570404        1       0.02013311       0.00544530       0.00402896
Pt       7.02627897       2.42627447      24.56696951        1       0.00713098      -0.00065206       0.01116809
Pt       2.79240707       4.87865981      24.61570404        1      -0.00534977      -0.02016062       0.00402756
Pt       5.63605323       4.86684860      24.61570506        1      -0.01477977       0.01471363       0.00401620
Pt       8.42801051       4.86200611      24.55886180        1      -0.02259828       0.01431977       0.02354139
N        4.21082176       4.05186522      26.95921867        0      -0.00002629      -0.00006676       0.01869676
H        4.99797400       4.58177141      26.53934637        0       0.01417334      -0.00276456      -0.01503343
H        4.27615906       3.10521664      26.53934424        0      -0.00949315      -0.01082981      -0.01500256
H        3.35833165       4.46860341      26.53934399        0      -0.00465378       0.01366103      -0.01502108
