31
Lattice="8.421641763931781 0.0 0.0 4.2108208819658905 7.293355709136913 0.0 0.0 0.0 44.584161137365626" Properties=species:S:1:pos:R:3:tags:I:1:forces:R:3 energy=-172.80076599121094 free_energy=-172.80076599121094 stress="0.010380483232438564 1.0515619486284322e-09 1.3409115595663934e-08 1.0515619486284322e-09 0.010380473919212818 9.479022011760208e-09 1.3409115595663934e-08 9.479022011760208e-09 0.0001381670153932646" pbc="T T T"
Pt       1.40360696       0.81037286      20.00000000        3       0.00000105      -0.00000263      -0.00917083
Pt       4.21082088       0.81037286      20.00000000        3      -0.00208501       0.00282893       0.00179455
Pt       7.01803480       0.81037286      20.00000000        3       0.00175504       0.00301230       0.00177997
Pt       2.80721392       3.24149143      20.00000000        3       0.00173270      -0.00302948       0.00177959
Pt       5.61442784       3.24149143      20.00000000        3      -0.00000175      -0.00000032       0.03523022
Pt       8.42164176       3.24149143      20.00000000        3      -0.00140688      -0.00322174       0.00179160
Pt       4.21082088       5.67261000      20.00000000        3       0.00349668       0.00039337       0.00179261
Pt       7.01803480       5.67261000      20.00000000        3      -0.00349116       0.00001733       0.00177953
Pt       9.82524872       5.67261000      20.00000000        3      -0.00000106       0.00000285      -0.01458371
Pt      -0.00000000       1.62074571      22.29208057        2      -0.13852011       0.08505869       0.03908261
Pt       2.80721392       1.62074571      22.29208057        2       0.14292565       0.07743301       0.03908525
Pt       5.61442784       1.62074571      22.29208057        2       0.00084851       0.12743801       0.05055108
Pt       1.40360696       4.05186428      22.29208057        2      -0.00003995      -0.03188138      -0.06162548
Pt       4.21082088       4.05186428      22.29208057        2       0.10994121      -0.06445818       0.05055204
Pt       7.01803480       4.05186428      22.29208057        2      -0.11079517      -0.06298248       0.05055222
Pt       2.80721392       6.48298285      22.29208057        2       0.02762907       0.01590451      -0.06162953
Pt       5.61442784       6.48298285      22.29208057        2      -0.00440234      -0.16249295       0.03908191
Pt       8.42164176       6.48298285      22.29208057        2      -0.02758785       0.01597987      -0.06162889
Pt      -0.00140266       0.00421357      24.56545493        1       0.02555835      -0.01176889      -0.00534183
Pt       2.80426604      -0.00332214      24.56545587        1      -0.00258789       0.02801962      -0.00535169
Pt       5.61297257      -0.00628049      24.56942022        1      -0.00358714      -0.02453781      -0.00743854
Pt       1.40795722       2.43022600      24.56545550        1      -0.02296457      -0.01624680      -0.00535312
Pt       4.18803125       2.41475256      24.61814781        1      -0.00377742       0.01515764      -0.00883585
Pt       7.04360310       2.41956434      24.61814640        1      -0.01124206      -0.01084600      -0.00883815
Pt       2.80250258       4.86663717      24.56942040        1      -0.01945932       0.01537005      -0.00743836
Pt       5.61164923       4.89015606      24.61814728        1       0.01501456      -0.00430829      -0.00884030
Pt       8.42780727       4.86411705      24.56941964        1       0.02304709       0.00916184      -0.00743611
N        5.61442942       3.24149236      26.94315398        0      -0.00009189      -0.00004901      -0.00870204
H        4.72430855       2.91136268      26.52136427        0       0.01565656      -0.01926190      -0.01085285
H        5.77358597       4.17742168      26.52136396        0      -0.02447287      -0.00383712      -0.01089553
H        6.34538780       2.63569061      26.52136509        0       0.00890796       0.02314684      -0.01089087
