31
Lattice="8.421641763931781 0.0 0.0 4.2108208819658905 7.293355709136913 0.0 0.0 0.0 44.584161137365626" Properties=species:S:1:pos:R:3:tags:I:1:forces:R:3 energy=-172.65090942382812 free_energy=-172.65090942382812 stress="0.01042049378156662 1.262837501236902e-09 2.2337189875543118e-09 1.262837501236902e-09 0.010420511476695538 -1.6922938606001026e-09 2.2337189875543118e-09 -1.6922938606001026e-09 -9.662962838774547e-06" pbc="T T T"
Pt       1.40360696       0.81037286      20.00000000        3       0.00000066      -0.00000289      -0.00922629
Pt       4.21082088       0.81037286      20.00000000        3      -0.00161701       0.00377586       0.01037902
Pt       7.01803480       0.81037286      20.00000000        3       0.00161623       0.00377531       0.01037806
Pt       2.80721392       3.24149143      20.00000000        3       0.00246347      -0.00329104       0.01037785
Pt       5.61442784       3.24149143      20.00000000        3      -0.00000183      -0.00000002       0.05188471
Pt       8.42164176       3.24149143      20.00000000        3      -0.00246059      -0.00329024       0.01037580
Pt       4.21082088       5.67261000      20.00000000        3       0.00408364      -0.00048542       0.01037872
Pt       7.01803480       5.67261000      20.00000000        3      -0.00408277      -0.00048427       0.01037794
Pt       9.82524872       5.67261000      20.00000000        3      -0.00000135       0.00000235      -0.00294703
Pt      -0.00000000       1.62074571      22.29208057        2      -0.14261720       0.08233855      -0.01450246
Pt       2.80721392       1.62074571      22.29208057        2       0.14262046       0.08234014      -0.01450325
Pt       5.61442784       1.62074571      22.29208057        2      -0.00000191       0.10560527      -0.00440237
Pt       1.40360696       4.05186428      22.29208057        2       0.00000145      -0.00523504      -0.04636940
Pt       4.21082088       4.05186428      22.29208057        2       0.09145997      -0.05280305      -0.00440123
Pt       7.01803480       4.05186428      22.29208057        2      -0.09146141      -0.05280372      -0.00440256
Pt       2.80721392       6.48298285      22.29208057        2       0.00453476       0.00261839      -0.04637002
Pt       5.61442784       6.48298285      22.29208057        2      -0.00000262      -0.16468160      -0.01450293
Pt       8.42164176       6.48298285      22.29208057        2      -0.00453260       0.00262064      -0.04637082
Pt       0.00520201       0.00300331      24.55814389        1      -0.02220188      -0.01282259       0.03848229
Pt       2.80201225       0.00300324      24.55814311        1       0.02220207      -0.01281887       0.03848267
Pt       5.61442779       0.00060289      24.57922977        1       0.00000002      -0.02770167       0.00173296
Pt       1.40360721       2.42511204      24.55814365        1      -0.00000127       0.02563772       0.03848276
Pt       4.18051051       2.41361875      24.62834579        1       0.03289829       0.01899355      -0.01523811
Pt       7.04834503       2.41361914      24.62834518        1      -0.03289879       0.01899029      -0.01523732
Pt       2.80773582       4.86193542      24.57922994        1      -0.02398827       0.01385194       0.00173360
Pt       5.61442835       4.89723594      24.62834618        1      -0.00000666      -0.03798295      -0.01523878
Pt       8.42111886       4.86193511      24.57922959        1       0.02399476       0.01385322       0.00173494
N        5.61442791       3.24149134      26.85409138        0      -0.00000582       0.00000760       0.03302120
H        5.61442796       2.32115529      26.34143889        0       0.00000083       0.01592527      -0.00470570
H        4.81739350       3.70165952      26.34143872        0       0.01379901      -0.00796776      -0.00470057
H        6.41146236       3.70165964      26.34143883        0      -0.01379357      -0.00796510      -0.00470406
