31
Lattice="8.421641763931781 0.0 0.0 4.2108208819658905 7.293355709136913 0.0 0.0 0.0 44.584161137365626" Properties=species:S:1:pos:R:3:tags:I:1:forces:R:3 energy=-173.71286010742188 free_energy=-173.71286010742188 stress="0.01068939734250307 2.2147841338693297e-09 -1.767706425681581e-09 2.2147841338693297e-09 0.010689358226954937 1.4226695377317355e-08 -1.767706425681581e-09 1.4226695377317355e-08 -7.636190275661647e-07" pbc="T T T"
Pt       1.40360696       0.81037286      20.00000000        3      -0.00282524      -0.00163422      -0.00671297
Pt       4.21082088       0.81037286      20.00000000        3       0.00000181       0.00503965       0.01241997
Pt       7.01803480       0.81037286      20.00000000        3       0.00282346      -0.00163391      -0.00671288
Pt       2.80721392       3.24149143      20.00000000        3       0.00436711      -0.00252119       0.01241863
Pt       5.61442784       3.24149143      20.00000000        3      -0.00436776      -0.00252054       0.01241982
Pt       8.42164176       3.24149143      20.00000000        3       0.00000113      -0.00624429      -0.00960931
Pt       4.21082088       5.67261000      20.00000000        3       0.00000226       0.00326437      -0.00671303
Pt       7.01803480       5.67261000      20.00000000        3      -0.00541019       0.00312466      -0.00960898
Pt       9.82524872       5.67261000      20.00000000        3       0.00540686       0.00312512      -0.00960872
Pt      -0.00000000       1.62074571      22.29208057        2       0.00000176       0.00647303      -0.00202145
Pt       2.80721392       1.62074571      22.29208057        2       0.07025539       0.04056030      -0.02787834
Pt       5.61442784       1.62074571      22.29208057        2      -0.07025689       0.04056025      -0.02787713
Pt       1.40360696       4.05186428      22.29208057        2       0.05403081      -0.03119299       0.03128589
Pt       4.21082088       4.05186428      22.29208057        2       0.00000206      -0.08112330      -0.02787643
Pt       7.01803480       4.05186428      22.29208057        2      -0.05403184      -0.03119286       0.03128764
Pt       2.80721392       6.48298285      22.29208057        2      -0.00560675      -0.00323563      -0.00202330
Pt       5.61442784       6.48298285      22.29208057        2       0.00560598      -0.00323615      -0.00202277
Pt       8.42164176       6.48298285      22.29208057        2       0.00000150       0.06239101       0.03128516
Pt       0.00000067       0.00000031      24.58937975        1       0.00000230      -0.00000035      -0.00328982
Pt       2.80075871      -0.00705546      24.60032800        1       0.00606001       0.00140295       0.00254990
Pt       5.62088452      -0.00705499      24.60032879        1      -0.00606374       0.00140460       0.00254859
Pt       1.39426936       2.42905626      24.60032895        1       0.00424331       0.00454518       0.00255132
Pt       4.21081983       2.43111840      24.66258000        1       0.00000094      -0.00000365       0.01707843
Pt       7.02737305       2.42905568      24.60032870        1      -0.00424597       0.00454800       0.00255038
Pt       2.80433229       4.87135676      24.60032884        1      -0.00181300      -0.00595345       0.00255020
Pt       5.61731042       4.87135619      24.60032787        1       0.00181491      -0.00595181       0.00254969
Pt       8.42164298       4.86223785      24.58984545        1      -0.00000606      -0.00000193      -0.00326526
N        4.21081808       2.43111524      26.73160091        0       0.00001711       0.00014064      -0.00472754
H        3.36921353       2.91701830      27.05269818        0       0.01589891      -0.00918017      -0.00453147
H        5.05242524       2.91701891      27.05269222        0      -0.01591484      -0.00919457      -0.00452175
H        4.21081871       1.45931575      27.05269726        0       0.00000452       0.01824097      -0.00449446
