31
Lattice="8.421641763931781 0.0 0.0 4.2108208819658905 7.293355709136913 0.0 0.0 0.0 44.584161137365626" Properties=species:S:1:pos:R:3:tags:I:1:forces:R:3 energy=-172.8059844970703 free_energy=-172.8059844970703 stress="0.010280264541506767 1.6046974860017826e-10 4.0389229738480026e-09 1.6046974860017826e-10 0.010280282236635685 4.898078387327587e-09 4.0389229738480026e-09 4.898078387327587e-09 -5.394730033003725e-05" pbc="T T T"
Pt       1.40360696       0.81037286      20.00000000        3      -0.00104973       0.00060372      -0.00947380
Pt       4.21082088       0.81037286      20.00000000        3       0.00000181       0.00276195      -0.00425190
Pt       7.01803480       0.81037286      20.00000000        3       0.00104806       0.00060434      -0.00947392
Pt       2.80721392       3.24149143      20.00000000        3       0.00059250       0.00034118       0.01770368
Pt       5.61442784       3.24149143      20.00000000        3      -0.00059337       0.00034144       0.01770389
Pt       8.42164176       3.24149143      20.00000000        3       0.00000159      -0.00121251      -0.00947502
Pt       4.21082088       5.67261000      20.00000000        3       0.00000213      -0.00068115       0.01770419
Pt       7.01803480       5.67261000      20.00000000        3      -0.00239518      -0.00137934      -0.00425342
Pt       9.82524872       5.67261000      20.00000000        3       0.00239217      -0.00137906      -0.00425339
Pt      -0.00000000       1.62074571      22.29208057        2       0.00000179      -0.00000244      -0.09937656
Pt       2.80721392       1.62074571      22.29208057        2       0.11651047       0.09124281       0.00165081
Pt       5.61442784       1.62074571      22.29208057        2      -0.11651134       0.09124234       0.00165018
Pt       1.40360696       4.05186428      22.29208057        2       0.13727495       0.05527776       0.00165109
Pt       4.21082088       4.05186428      22.29208057        2       0.00000134      -0.00000036       0.08201342
Pt       7.01803480       4.05186428      22.29208057        2      -0.13727677       0.05527765       0.00165060
Pt       2.80721392       6.48298285      22.29208057        2       0.02076631      -0.14652032       0.00164961
Pt       5.61442784       6.48298285      22.29208057        2      -0.02076704      -0.14652012       0.00164910
Pt       8.42164176       6.48298285      22.29208057        2       0.00000115       0.00000319      -0.07235282
Pt       0.00000013       0.00600153      24.56729893        1       0.00000067       0.04490066       0.00588220
Pt       2.80788469      -0.00038744      24.56074770        1       0.00382682      -0.00220742       0.01202232
Pt       5.61375716      -0.00038761      24.56074789        1      -0.00382808      -0.00220727       0.01202232
Pt       1.39840947       2.42811743      24.56729891        1      -0.03888432      -0.02244966       0.00588377
Pt       4.21082082       2.40924865      24.61408924        1       0.00000138       0.00594694       0.00152853
Pt       7.02323232       2.42811744      24.56729891        1       0.03888311      -0.02244933       0.00588408
Pt       2.78827421       4.87317210      24.61408934        1       0.00515046      -0.00297610       0.00153175
Pt       5.63336749       4.87317208      24.61408928        1      -0.00515219      -0.00297546       0.00153102
Pt       8.42164177       4.86301168      24.56074800        1       0.00000170       0.00441630       0.01202303
N        4.21082105       4.05186432      26.95105693        0      -0.00002099      -0.00002798       0.00444430
H        4.21082091       3.10511265      26.52528470        0       0.00000257      -0.02494439       0.00171993
H        3.39090993       4.52523994      26.52528500        0      -0.02161334       0.01248251       0.00171055
H        5.03073187       4.52523991      26.52528477        0       0.02163139       0.01249022       0.00170071
