31
Lattice="8.421641763931781 0.0 0.0 4.2108208819658905 7.293355709136913 0.0 0.0 0.0 44.584161137365626" Properties=species:S:1:pos:R:3:tags:I:1:forces:R:3 energy=-172.80471801757812 free_energy=-172.80471801757812 stress="0.010280946269631386 5.523081103575578e-09 -1.1944003563968408e-09 5.523081103575578e-09 0.010280964896082878 2.7220898868307586e-09 -1.1944003563968408e-09 2.7220898868307586e-09 -4.847210584557615e-05" pbc="T T T"
Pt       1.40360696       0.81037286      20.00000000        3      -0.00149550       0.00066901      -0.01032209
Pt       4.21082088       0.81037286      20.00000000        3       0.00020843       0.00324420      -0.00452089
Pt       7.01803480       0.81037286      20.00000000        3       0.00132714       0.00095699      -0.01032302
Pt       2.80721392       3.24149143      20.00000000        3       0.00074951       0.00003566       0.01849264
Pt       5.61442784       3.24149143      20.00000000        3      -0.00040755       0.00063010       0.01849329
Pt       8.42164176       3.24149143      20.00000000        3       0.00016765      -0.00163093      -0.01032501
Pt       4.21082088       5.67261000      20.00000000        3      -0.00034129      -0.00066496       0.01849362
Pt       7.01803480       5.67261000      20.00000000        3      -0.00291594      -0.00144150      -0.00452337
Pt       9.82524872       5.67261000      20.00000000        3       0.00270699      -0.00179876      -0.00452191
Pt      -0.00000000       1.62074571      22.29208057        2       0.00000356      -0.00000213      -0.11644705
Pt       2.80721392       1.62074571      22.29208057        2       0.12140546       0.09941637      -0.00066049
Pt       5.61442784       1.62074571      22.29208057        2      -0.11677868       0.09310560       0.00270311
Pt       1.40360696       4.05186428      22.29208057        2       0.13902293       0.05457486       0.00270518
Pt       4.21082088       4.05186428      22.29208057        2       0.00000173       0.00000011       0.08543053
Pt       7.01803480       4.05186428      22.29208057        2      -0.14680341       0.05543242      -0.00066147
Pt       2.80721392       6.48298285      22.29208057        2       0.02539587      -0.15484834      -0.00066237
Pt       5.61442784       6.48298285      22.29208057        2      -0.02224676      -0.14768249       0.00270239
Pt       8.42164176       6.48298285      22.29208057        2       0.00000111       0.00000298      -0.07497473
Pt      -0.00008510       0.00954426      24.56698893        1       0.00309021       0.00668939       0.01106012
Pt       2.81021608       0.00562346      24.55890768        1       0.00092539      -0.02670220       0.02330635
Pt       5.61779730      -0.00541207      24.55890818        1      -0.02358754       0.01255090       0.02330723
Pt       1.39538423       2.42627186      24.56698941        1      -0.00734090      -0.00066808       0.01105052
Pt       4.21762229       2.41007967      24.61569823        1      -0.02002676       0.00549995       0.00408772
Pt       7.02634324       2.42641998      24.56698793        1       0.00424775      -0.00602254       0.01106228
Pt       2.78559329       4.86686566      24.61569721        1       0.01478019       0.01459756       0.00408656
Pt       5.62924788       4.87864674      24.61569750        1       0.00524907      -0.02009572       0.00408341
Pt       8.41527051       4.86202459      24.55890814        1       0.02266143       0.01415268       0.02330846
N        4.21082049       4.05186356      26.95924136        0       0.00002230      -0.00001729       0.01818547
H        4.14553389       3.10520948      26.53934915        0       0.00951156      -0.01055136      -0.01486869
H        3.42363738       4.58172854      26.53934799        0      -0.01391764      -0.00293385      -0.01488084
H        5.06328913       4.46865201      26.53934723        0       0.00438343       0.01350139      -0.01486708
