31
Lattice="8.421641763931781 0.0 0.0 4.2108208819658905 7.293355709136913 0.0 0.0 0.0 44.584161137365626" Properties=species:S:1:pos:R:3:tags:I:1:forces:R:3 energy=-172.57716369628906 free_energy=-172.57716369628906 stress="0.010478959418833256 -4.363115202465906e-09 3.721958075075804e-09 -4.363115202465906e-09 0.010478983633220196 -8.121378236580767e-09 3.721958075075804e-09 -8.121378236580767e-09 -0.00018221126811113209" pbc="T T T"
Pt       1.40360696       0.81037286      20.00000000        3      -0.00091207       0.00070156      -0.00487030
Pt       4.21082088       0.81037286      20.00000000        3      -0.00008690       0.00047820      -0.00420725
Pt       7.01803480       0.81037286      20.00000000        3       0.00106430       0.00043616      -0.00487143
Pt       2.80721392       3.24149143      20.00000000        3       0.00004263       0.00008959       0.00331900
Pt       5.61442784       3.24149143      20.00000000        3      -0.00010069      -0.00000865       0.00331938
Pt       8.42164176       3.24149143      20.00000000        3      -0.00015233      -0.00114236      -0.00487274
Pt       4.21082088       5.67261000      20.00000000        3       0.00005959      -0.00007980       0.00331968
Pt       7.01803480       5.67261000      20.00000000        3      -0.00037374      -0.00031384      -0.00420848
Pt       9.82524872       5.67261000      20.00000000        3       0.00045825      -0.00016100      -0.00420889
Pt      -0.00000000       1.62074571      22.29208057        2       0.00000223      -0.00000261      -0.05327115
Pt       2.80721392       1.62074571      22.29208057        2       0.02598452       0.03246959      -0.00567553
Pt       5.61442784       1.62074571      22.29208057        2      -0.02727240       0.03339300      -0.00389111
Pt       1.40360696       4.05186428      22.29208057        2       0.04255725       0.00691822      -0.00389076
Pt       4.21082088       4.05186428      22.29208057        2       0.00000119      -0.00000054       0.05031803
Pt       7.01803480       4.05186428      22.29208057        2      -0.04111499       0.00626721      -0.00567483
Pt       2.80721392       6.48298285      22.29208057        2       0.01512932      -0.03873651      -0.00567553
Pt       5.61442784       6.48298285      22.29208057        2      -0.01528668      -0.04031214      -0.00389181
Pt       8.42164176       6.48298285      22.29208057        2       0.00000063       0.00000310      -0.03515485
Pt       0.00049543       0.00689225      24.57902252        1       0.00323692      -0.01788796      -0.00410661
Pt       2.80833633      -0.00153367      24.57707615        1      -0.00738534      -0.00062448      -0.00708425
Pt       5.61253828      -0.00020511      24.57707621        1       0.00315306       0.00670696      -0.00708467
Pt       1.39739052       2.42810103      24.57902255        1       0.01387403       0.01174735      -0.00410691
Pt       4.20822949       2.41651276      24.58942612        1      -0.00550884       0.02318372       0.00538389
Pt       7.02375602       2.42724357      24.57902261        1      -0.01710925       0.00614102      -0.00410554
Pt       2.79586079       4.87178433      24.58942629        1       0.02283173      -0.00682173       0.00538532
Pt       5.62837245       4.86729576      24.58942611        1      -0.01732382      -0.01636083       0.00538427
Pt       8.42240861       4.86397610      24.57707643        1       0.00423120      -0.00608342      -0.00708166
N        4.21082103       4.05186384      27.59415641        0      -0.00002979       0.00004747       0.00236613
H        3.74244665       3.23095321      27.19876113        0       0.03266371       0.00885427       0.03303906
H        3.73407813       4.86794403      27.19876086        0      -0.00864021      -0.03275540       0.03306150
H        5.15593756       4.05669581      27.19876102        0      -0.02399357       0.02385390       0.03303806
