31
Lattice="8.421641763931781 0.0 0.0 4.2108208819658905 7.293355709136913 0.0 0.0 0.0 44.584161137365626" Properties=species:S:1:pos:R:3:tags:I:1:forces:R:3 energy=-172.80471801757812 free_energy=-172.80471801757812 stress="0.01028016023337841 -9.896823804922406e-09 1.5325870350579862e-08 -9.896823804922406e-09 0.010280153714120388 -4.8592232460009654e-09 1.5325870350579862e-08 -4.8592232460009654e-09 -4.947259367327206e-05" pbc="T T T"
Pt       1.40360696       0.81037286      20.00000000        3      -0.00133256       0.00095876      -0.01033771
Pt       4.21082088       0.81037286      20.00000000        3      -0.00020495       0.00325049      -0.00453243
Pt       7.01803480       0.81037286      20.00000000        3       0.00149683       0.00067123      -0.01033887
Pt       2.80721392       3.24149143      20.00000000        3       0.00040843       0.00063180       0.01850230
Pt       5.61442784       3.24149143      20.00000000        3      -0.00075344       0.00003651       0.01850203
Pt       8.42164176       3.24149143      20.00000000        3      -0.00016454      -0.00163433      -0.01033875
Pt       4.21082088       5.67261000      20.00000000        3       0.00034605      -0.00066720       0.01850232
Pt       7.01803480       5.67261000      20.00000000        3      -0.00271449      -0.00180228      -0.00453392
Pt       9.82524872       5.67261000      20.00000000        3       0.00291861      -0.00144493      -0.00453341
Pt      -0.00000000       1.62074571      22.29208057        2       0.00000186       0.00000079      -0.11664639
Pt       2.80721392       1.62074571      22.29208057        2       0.11682389       0.09318460       0.00258346
Pt       5.61442784       1.62074571      22.29208057        2      -0.12145703       0.09950529      -0.00073918
Pt       1.40360696       4.05186428      22.29208057        2       0.14690174       0.05542864      -0.00073892
Pt       4.21082088       4.05186428      22.29208057        2       0.00000028      -0.00000195       0.08541299
Pt       7.01803480       4.05186428      22.29208057        2      -0.13911092       0.05457769       0.00258404
Pt       2.80721392       6.48298285      22.29208057        2       0.02228874      -0.14776336       0.00257966
Pt       5.61442784       6.48298285      22.29208057        2      -0.02544792      -0.15493357      -0.00074474
Pt       8.42164176       6.48298285      22.29208057        2       0.00000076       0.00000149      -0.07509885
Pt       0.00007173       0.00956297      24.56696783        1      -0.00298924       0.00648611       0.01117748
Pt       2.80382816      -0.00540017      24.55885676        1       0.02370983       0.01240040       0.02356970
Pt       5.61144429       0.00563118      24.55885709        1      -0.00112097      -0.02672396       0.02357107
Pt       1.39528924       2.42639929      24.56696824        1      -0.00412037      -0.00583735       0.01116839
Pt       4.20400006       2.41008609      24.61570602        1       0.02014346       0.00542694       0.00401422
Pt       7.02628057       2.42627456      24.56696804        1       0.00711421      -0.00065041       0.01116794
Pt       2.79240946       4.87866069      24.61570576        1      -0.00536323      -0.02016326       0.00402053
Pt       5.63605364       4.86684646      24.61570443        1      -0.01477417       0.01472972       0.00401892
Pt       8.42801143       4.86200460      24.55885799        1      -0.02259798       0.01433264       0.02356164
N        4.21082209       4.05186392      26.95921754        0      -0.00008128       0.00003547       0.01875561
H        4.27616224       3.10521663      26.53934950        0      -0.00948711      -0.01091349      -0.01504837
H        3.35832747       4.46860021      26.53934870        0      -0.00463001       0.01364066      -0.01501510
H        4.99797023       4.58177536      26.53934545        0       0.01419564      -0.00276316      -0.01504631
