31
Lattice="8.421641763931781 0.0 0.0 4.2108208819658905 7.293355709136913 0.0 0.0 0.0 44.584161137365626" Properties=species:S:1:pos:R:3:tags:I:1:forces:R:3 energy=-172.793212890625 free_energy=-172.793212890625 stress="0.010255732573568821 6.257677931387207e-09 4.445672274755452e-09 6.257677931387207e-09 0.010255741886794567 2.862207582055021e-09 4.445672274755452e-09 2.862207582055021e-09 -4.671860733651556e-05" pbc="T T T"
Pt       1.40360696       0.81037286      20.00000000        3       0.00000135      -0.00000272      -0.00486085
Pt       4.21082088       0.81037286      20.00000000        3      -0.00227754       0.00266067       0.00166935
Pt       7.01803480       0.81037286      20.00000000        3       0.00290354       0.00139615       0.00231421
Pt       2.80721392       3.24149143      20.00000000        3      -0.00024043      -0.00321588       0.00231311
Pt       5.61442784       3.24149143      20.00000000        3      -0.00000210       0.00000018       0.03026441
Pt       8.42164176       3.24149143      20.00000000        3      -0.00116483      -0.00330414       0.00166586
Pt       4.21082088       5.67261000      20.00000000        3       0.00344695       0.00064403       0.00166774
Pt       7.01803480       5.67261000      20.00000000        3      -0.00266590       0.00181986       0.00231382
Pt       9.82524872       5.67261000      20.00000000        3      -0.00000114       0.00000266      -0.01544482
Pt      -0.00000000       1.62074571      22.29208057        2      -0.13467900       0.06624749       0.03022469
Pt       2.80721392       1.62074571      22.29208057        2       0.12471511       0.08351027       0.03022111
Pt       5.61442784       1.62074571      22.29208057        2      -0.00400754       0.11404263       0.03495218
Pt       1.40360696       4.05186428      22.29208057        2       0.00719934      -0.04541011      -0.07373548
Pt       4.21082088       4.05186428      22.29208057        2       0.10077018      -0.05355334       0.03495299
Pt       7.01803480       4.05186428      22.29208057        2      -0.09676649      -0.06049102       0.03495375
Pt       2.80721392       6.48298285      22.29208057        2       0.03572745       0.02894066      -0.07373613
Pt       5.61442784       6.48298285      22.29208057        2       0.00996402      -0.14976116       0.03022221
Pt       8.42164176       6.48298285      22.29208057        2      -0.04292373       0.01647449      -0.07373808
Pt       0.00873024      -0.00866340      24.56865924        1      -0.01408983       0.02865564      -0.02491537
Pt       2.81035159       0.01189160      24.56865859        1      -0.01777288      -0.02652767      -0.02491364
Pt       5.60391737      -0.01354397      24.56854488        1       0.02910111       0.03360396      -0.00102375
Pt       1.39173991       2.42788984      24.56865967        1       0.03185537      -0.00212700      -0.02491468
Pt       4.17594217       2.43083554      24.60715699        1       0.00514275      -0.02171537      -0.00093431
Pt       7.03571856       2.40105423      24.60715594        1       0.01623796       0.01530833      -0.00093168
Pt       2.80074002       4.87811076      24.56854413        1       0.01455065      -0.04200158      -0.00102247
Pt       5.63162237       4.89258431      24.60715596        1      -0.02137830       0.00640558      -0.00093333
Pt       8.43862581       4.85990718      24.56854477        1      -0.04364768       0.00839633      -0.00102104
N        5.61442809       3.24149174      26.89807408        0      -0.00004083      -0.00001779       0.02243435
H        5.84754916       4.15848406      26.46326771        0      -0.02890703      -0.00171089       0.02064304
H        6.29200557       2.58110633      26.46326814        0       0.01298141       0.02589530       0.02064613
H        4.70372849       2.98488354      26.46326727        0       0.01596804      -0.02416549       0.02066671
