31
Lattice="8.421641763931781 0.0 0.0 4.2108208819658905 7.293355709136913 0.0 0.0 0.0 44.584161137365626" Properties=species:S:1:pos:R:3:tags:I:1:forces:R:3 energy=-172.79193115234375 free_energy=-172.79193115234375 stress="0.010310148820281029 -4.6769343953201314e-09 4.2987529091931265e-09 -4.6769343953201314e-09 0.010310154408216476 -1.610671929164198e-09 4.2987529091931265e-09 -1.610671929164198e-09 -5.3201583796180785e-05" pbc="T T T"
Pt       1.40360696       0.81037286      20.00000000        3      -0.00082146       0.00125756      -0.00642627
Pt       4.21082088       0.81037286      20.00000000        3      -0.00026647       0.00262444      -0.00198051
Pt       7.01803480       0.81037286      20.00000000        3       0.00150014       0.00007999      -0.00642753
Pt       2.80721392       3.24149143      20.00000000        3      -0.00056696       0.00048048       0.01711348
Pt       5.61442784       3.24149143      20.00000000        3      -0.00013422      -0.00073276       0.01711446
Pt       8.42164176       3.24149143      20.00000000        3      -0.00067923      -0.00134150      -0.00642839
Pt       4.21082088       5.67261000      20.00000000        3       0.00070332       0.00025323       0.01711452
Pt       7.01803480       5.67261000      20.00000000        3      -0.00214192      -0.00154294      -0.00198221
Pt       9.82524872       5.67261000      20.00000000        3       0.00240673      -0.00107832      -0.00198218
Pt      -0.00000000       1.62074571      22.29208057        2       0.00000196      -0.00000169      -0.12336046
Pt       2.80721392       1.62074571      22.29208057        2       0.10594216       0.07567975       0.01753194
Pt       5.61442784       1.62074571      22.29208057        2      -0.11871898       0.08205993       0.00725828
Pt       1.40360696       4.05186428      22.29208057        2       0.13042510       0.06178208       0.00726257
Pt       4.21082088       4.05186428      22.29208057        2       0.00000161      -0.00000009       0.07267530
Pt       7.01803480       4.05186428      22.29208057        2      -0.11851415       0.05390837       0.01753487
Pt       2.80721392       6.48298285      22.29208057        2       0.01257147      -0.12958804       0.01753244
Pt       5.61442784       6.48298285      22.29208057        2      -0.01171013      -0.14384100       0.00725814
Pt       8.42164176       6.48298285      22.29208057        2       0.00000168       0.00000081      -0.04818413
Pt       0.00871848       0.01462082      24.57019445        1      -0.02185371      -0.03447120      -0.00114791
Pt       2.80319922      -0.01182699      24.56825732        1       0.01274939       0.02477731      -0.02905712
Pt       5.60619284       0.00939019      24.56825647        1       0.01508250      -0.02343230      -0.02905750
Pt       1.38658581       2.43135805      24.57019495        1       0.04078022      -0.00169007      -0.00114700
Pt       4.19253658       2.40891748      24.60961069        1       0.02603663      -0.01960989      -0.00392168
Pt       7.02633770       2.41625776      24.57019391        1      -0.01892587       0.03616183      -0.00114509
Pt       2.79713000       4.88917215      24.60961092        1      -0.03000388      -0.01274083      -0.00392126
Pt       5.64279639       4.85750297      24.60961091        1       0.00396585       0.03235214      -0.00392298
Pt       8.43389132       4.86467372      24.56825739        1      -0.02783174      -0.00134649      -0.02906601
N        4.21082141       4.05186422      26.91368715        0      -0.00002746       0.00001323       0.03991476
H        5.12080075       4.30711877      26.47644677        0      -0.02097929       0.02485807       0.02027655
H        3.97688751       3.13617176      26.47644666        0       0.03202835       0.00573713       0.02028058
H        3.53477402       4.71230208      26.47644638        0      -0.01102162      -0.03060918       0.02029086
