31
Lattice="8.421641763931781 0.0 0.0 4.2108208819658905 7.293355709136913 0.0 0.0 0.0 44.584161137365626" Properties=species:S:1:pos:R:3:tags:I:1:forces:R:3 energy=-172.80612182617188 free_energy=-172.80612182617188 stress="0.010215011425316334 -1.3607178717123247e-09 -2.072940930020195e-09 -1.3607178717123247e-09 0.010215025395154953 -1.6487621268268526e-09 -2.072940930020195e-09 -1.6487621268268526e-09 -7.902920333435759e-05" pbc="T T T"
Pt       1.40360696       0.81037286      20.00000000        3       0.00000140      -0.00000264      -0.01100329
Pt       4.21082088       0.81037286      20.00000000        3      -0.00200922       0.00319063       0.00015023
Pt       7.01803480       0.81037286      20.00000000        3       0.00200805       0.00318983       0.00014827
Pt       2.80721392       3.24149143      20.00000000        3       0.00176030      -0.00333846       0.00014856
Pt       5.61442784       3.24149143      20.00000000        3      -0.00000180      -0.00000008       0.03285971
Pt       8.42164176       3.24149143      20.00000000        3      -0.00175748      -0.00333674       0.00014800
Pt       4.21082088       5.67261000      20.00000000        3       0.00377225       0.00014685       0.00014925
Pt       7.01803480       5.67261000      20.00000000        3      -0.00377191       0.00014820       0.00014874
Pt       9.82524872       5.67261000      20.00000000        3      -0.00000114       0.00000275      -0.01574704
Pt      -0.00000000       1.62074571      22.29208057        2      -0.14542383       0.08395902       0.01005711
Pt       2.80721392       1.62074571      22.29208057        2       0.14542593       0.08395974       0.01005558
Pt       5.61442784       1.62074571      22.29208057        2      -0.00000199       0.12772721       0.03249418
Pt       1.40360696       4.05186428      22.29208057        2       0.00000097      -0.03007301      -0.07678659
Pt       4.21082088       4.05186428      22.29208057        2       0.11061794      -0.06386432       0.03249485
Pt       7.01803480       4.05186428      22.29208057        2      -0.11061946      -0.06386456       0.03249515
Pt       2.80721392       6.48298285      22.29208057        2       0.02604468       0.01503776      -0.07678508
Pt       5.61442784       6.48298285      22.29208057        2      -0.00000219      -0.16792105       0.01005634
Pt       8.42164176       6.48298285      22.29208057        2      -0.02604294       0.01503924      -0.07678810
Pt       0.00393410       0.00227099      24.56060025        1      -0.01717354      -0.00991677       0.01756868
Pt       2.80328024       0.00227107      24.56060037        1       0.01717043      -0.00991575       0.01757009
Pt       5.61442771      -0.00512097      24.56477928        1       0.00000261      -0.03940287       0.01025122
Pt       1.40360707       2.42657606      24.56060059        1      -0.00000005       0.01982900       0.01757109
Pt       4.18586848       2.41671215      24.61159938        1       0.00751676       0.00433891       0.00178705
Pt       7.04298706       2.41671217      24.61159981        1      -0.00751611       0.00433735       0.00178855
Pt       2.80277930       4.86479732      24.56477916        1      -0.03412379       0.01970467       0.01025203
Pt       5.61442779       4.89104958      24.61159910        1      -0.00000041      -0.00867533       0.00178770
Pt       8.42607629       4.86479756      24.56477967        1       0.03412412       0.01970064       0.01025283
N        5.61442764       3.24149124      26.93137769        0       0.00001652       0.00000986       0.00368240
H        5.61442785       4.19005501      26.50980539        0      -0.00000282       0.02604899       0.00106689
H        6.43590787       2.76720978      26.50980549        0       0.02255867      -0.01302715       0.00106678
H        4.79294793       2.76720987      26.50980514        0      -0.02257213      -0.01303181       0.00105900
