31
Lattice="8.421641763931781 0.0 0.0 4.2108208819658905 7.293355709136913 0.0 0.0 0.0 44.584161137365626" Properties=species:S:1:pos:R:3:tags:I:1:forces:R:3 energy=-172.8042755126953 free_energy=-172.8042755126953 stress="0.010287937708199024 -7.726871920077372e-10 -3.0635416425894846e-09 -7.726871920077372e-10 0.010287945158779621 5.083003351558091e-09 -3.0635416425894846e-09 5.083003351558091e-09 2.5777879272936843e-05" pbc="T T T"
Pt       1.40360696       0.81037286      20.00000000        3       0.00000063      -0.00000226      -0.01219153
Pt       4.21082088       0.81037286      20.00000000        3      -0.00218504       0.00302591       0.00097692
Pt       7.01803480       0.81037286      20.00000000        3       0.00197855       0.00239080       0.00095242
Pt       2.80721392       3.24149143      20.00000000        3       0.00108291      -0.00291211       0.00095254
Pt       5.61442784       3.24149143      20.00000000        3      -0.00000189       0.00000009       0.03240737
Pt       8.42164176       3.24149143      20.00000000        3      -0.00152726      -0.00340677       0.00097570
Pt       4.21082088       5.67261000      20.00000000        3       0.00371733       0.00038158       0.00097597
Pt       7.01803480       5.67261000      20.00000000        3      -0.00306485       0.00052125       0.00095245
Pt       9.82524872       5.67261000      20.00000000        3      -0.00000123       0.00000246      -0.01433042
Pt      -0.00000000       1.62074571      22.29208057        2      -0.14878827       0.08583900       0.01205627
Pt       2.80721392       1.62074571      22.29208057        2       0.14873202       0.08593703       0.01205318
Pt       5.61442784       1.62074571      22.29208057        2      -0.00261228       0.12159403       0.04921548
Pt       1.40360696       4.05186428      22.29208057        2       0.00523501      -0.02982188      -0.07348088
Pt       4.21082088       4.05186428      22.29208057        2       0.10661304      -0.05853465       0.04921660
Pt       7.01803480       4.05186428      22.29208057        2      -0.10399999      -0.06305924       0.04922081
Pt       2.80721392       6.48298285      22.29208057        2       0.02320756       0.01944555      -0.07348707
Pt       5.61442784       6.48298285      22.29208057        2       0.00005591      -0.17177621       0.01205364
Pt       8.42164176       6.48298285      22.29208057        2      -0.02844251       0.01037604      -0.07348572
Pt       0.00377114       0.00392361      24.56071347        1      -0.01566475      -0.02144735       0.02084064
Pt       2.80193006       0.00130396      24.56071350        1       0.02640655      -0.00284443       0.02083945
Pt       5.60582027      -0.01200325      24.56953609        1       0.02004967       0.02605404      -0.00906314
Pt       1.40511964       2.42589043      24.56071554        1      -0.01074112       0.02429308       0.02083005
Pt       4.18209386       2.42267673      24.61256646        1       0.02812777       0.00079463       0.01038605
Pt       7.03970867       2.41046033      24.61256712        1      -0.01475114       0.02396663       0.01037981
Pt       2.80112280       4.87569261      24.56953671        1       0.01253758      -0.03039442      -0.00906149
Pt       5.62148092       4.89133597      24.61256704        1      -0.01337930      -0.02475661       0.01037742
Pt       8.43633984       4.86078437      24.56953795        1      -0.03258524       0.00433427      -0.00907026
N        5.61442753       3.24149143      26.94051512        0       0.00001144      -0.00002458      -0.04889455
H        5.70220425       4.18769277      26.52021819        0      -0.01306815      -0.02008583       0.00246100
H        6.38997485       2.69237459      26.52021819        0      -0.01088332       0.02137246       0.00247410
H        4.75110571       2.84440628      26.52021677        0       0.02394041      -0.00126247       0.00246722
