31
Lattice="8.421641763931781 0.0 0.0 4.2108208819658905 7.293355709136913 0.0 0.0 0.0 44.584161137365626" Properties=species:S:1:pos:R:3:tags:I:1:forces:R:3 energy=-172.5792236328125 free_energy=-172.5792236328125 stress="0.01052373182028532 4.3223386455792934e-05 -5.427248470368795e-05 4.3223386455792934e-05 0.010473824106156826 -3.133832797175273e-05 -5.427248470368795e-05 -3.133832797175273e-05 -0.00013971910811960697" pbc="T T T"
Pt       1.40360696       0.81037286      20.00000000        3      -0.00029370       0.00084163      -0.00784966
Pt       4.21082088       0.81037286      20.00000000        3      -0.00003985       0.00199946      -0.00325722
Pt       7.01803480       0.81037286      20.00000000        3       0.00087746       0.00050580      -0.00977802
Pt       2.80721392       3.24149143      20.00000000        3       0.00241850       0.00139570       0.01129821
Pt       5.61442784       3.24149143      20.00000000        3      -0.00144947      -0.00047961       0.00436354
Pt       8.42164176       3.24149143      20.00000000        3       0.00058469      -0.00067735      -0.00785163
Pt       4.21082088       5.67261000      20.00000000        3      -0.00113672      -0.00101266       0.00436410
Pt       7.01803480       5.67261000      20.00000000        3      -0.00098608      -0.00056533      -0.00677228
Pt       9.82524872       5.67261000      20.00000000        3       0.00171096      -0.00103407      -0.00325838
Pt      -0.00000000       1.62074571      22.29208057        2       0.01191261       0.00687617      -0.04703961
Pt       2.80721392       1.62074571      22.29208057        2       0.04503868       0.05127396       0.01217474
Pt       5.61442784       1.62074571      22.29208057        2      -0.05828368       0.04750974      -0.00507152
Pt       1.40360696       4.05186428      22.29208057        2       0.06692745       0.01336662       0.01217687
Pt       4.21082088       4.05186428      22.29208057        2      -0.03912015      -0.02258503       0.05191200
Pt       7.01803480       4.05186428      22.29208057        2      -0.04463582      -0.00174936      -0.02778573
Pt       2.80721392       6.48298285      22.29208057        2       0.01200533      -0.07423061      -0.00507098
Pt       5.61442784       6.48298285      22.29208057        2      -0.02383252      -0.03777848      -0.02778985
Pt       8.42164176       6.48298285      22.29208057        2       0.00456838       0.00264013      -0.04579296
Pt       0.00166870       0.00293629      24.57342195        1      -0.00923423       0.01790405       0.01955855
Pt       2.80116327      -0.00963646      24.57148245        1       0.00189461      -0.01141923       0.02710614
Pt       5.61487512       0.00025800      24.56720261        1      -0.00664705      -0.00383587       0.03755158
Pt       1.40299583       2.43076575      24.57805175        1      -0.03718901      -0.02147111       0.01028998
Pt       4.21240197       2.41301549      24.60530540        1       0.00088329      -0.00114907      -0.03416181
Pt       7.02141186       2.43109479      24.57342291        1       0.01089026      -0.01694800       0.01955020
Pt       2.79232679       4.87265795      24.60530600        1      -0.00055154       0.00133912      -0.03417052
Pt       5.60234916       4.85526341      24.58929125        1       0.03500759       0.02021213      -0.01082544
Pt       8.41027147       4.86181526      24.57148230        1      -0.00894518       0.00734825       0.02710876
N        3.50891473       3.64661832      27.60064132        0      -0.00156893      -0.00087883       0.01740119
H        4.34316405       4.12827255      27.25581285        0       0.00045431       0.00026152       0.03949085
H        3.52430644       2.70813114      27.19143367        0       0.01604760       0.01691258      -0.00894067
H        2.70385612       4.12919214      27.19143343        0       0.02269231       0.00542781      -0.00893050
