31
Lattice="8.421641763931781 0.0 0.0 4.2108208819658905 7.293355709136913 0.0 0.0 0.0 44.584161137365626" Properties=species:S:1:pos:R:3:tags:I:1:forces:R:3 energy=-173.71240234375 free_energy=-173.71240234375 stress="0.010804644785821438 -5.4170397056907404e-09 -2.390926123752024e-09 -5.4170397056907404e-09 0.010804656893014908 -3.2286557871685773e-09 -2.390926123752024e-09 -3.2286557871685773e-09 0.0001195180302602239" pbc="T T T"
Pt       1.40360696       0.81037286      20.00000000        3      -0.00291308      -0.00168531      -0.00487360
Pt       4.21082088       0.81037286      20.00000000        3       0.00000149       0.00485739       0.01284957
Pt       7.01803480       0.81037286      20.00000000        3       0.00291186      -0.00168473      -0.00487438
Pt       2.80721392       3.24149143      20.00000000        3       0.00420964      -0.00243042       0.01284817
Pt       5.61442784       3.24149143      20.00000000        3      -0.00421009      -0.00242937       0.01284844
Pt       8.42164176       3.24149143      20.00000000        3       0.00000108      -0.00613968      -0.00782499
Pt       4.21082088       5.67261000      20.00000000        3       0.00000219       0.00336641      -0.00487369
Pt       7.01803480       5.67261000      20.00000000        3      -0.00531940       0.00307274      -0.00782430
Pt       9.82524872       5.67261000      20.00000000        3       0.00531629       0.00307272      -0.00782412
Pt      -0.00000000       1.62074571      22.29208057        2       0.00000197       0.00473007       0.01918714
Pt       2.80721392       1.62074571      22.29208057        2       0.06504225       0.03755074      -0.01545681
Pt       5.61442784       1.62074571      22.29208057        2      -0.06504288       0.03755032      -0.01545749
Pt       1.40360696       4.05186428      22.29208057        2       0.05057226      -0.02919723       0.05123141
Pt       4.21082088       4.05186428      22.29208057        2       0.00000139      -0.07510367      -0.01545713
Pt       7.01803480       4.05186428      22.29208057        2      -0.05057406      -0.02919709       0.05123116
Pt       2.80721392       6.48298285      22.29208057        2      -0.00409757      -0.00236522       0.01918573
Pt       5.61442784       6.48298285      22.29208057        2       0.00409644      -0.00236471       0.01918487
Pt       8.42164176       6.48298285      22.29208057        2       0.00000094       0.05839744       0.05122875
Pt       0.00000021      -0.00000033      24.59619217        1       0.00000061       0.00000078      -0.03323182
Pt       2.80062227      -0.00694856      24.60522869        1       0.00592754      -0.00244987      -0.01702192
Pt       5.62101934      -0.00694858      24.60522876        1      -0.00592728      -0.00245030      -0.01702249
Pt       1.39429390       2.42888401      24.60522819        1       0.00084099       0.00635874      -0.01702248
Pt       4.21082125       2.43111841      24.66368226        1       0.00000055      -0.00000016      -0.02417654
Pt       7.02734792       2.42888398      24.60522820        1      -0.00084098       0.00635875      -0.01702198
Pt       2.80449229       4.87141988      24.60522826        1      -0.00508595      -0.00390894      -0.01702170
Pt       5.61714932       4.87141973      24.60522811        1       0.00508603      -0.00390832      -0.01702230
Pt       8.42164170       4.86223727      24.59631228        1       0.00000070      -0.00000162      -0.03170365
N        4.21082168       2.43111868      26.72837092        0      -0.00003916      -0.00002225       0.01978594
H        5.05181911       2.91666940      27.05001107        0       0.00029086       0.00016770       0.00205104
H        4.21082076       1.46001700      27.05001123        0       0.00000159      -0.00029424       0.00203744
H        3.36982222       2.91666961      27.05000953        0      -0.00025606       0.00014934       0.00204191
