31
Lattice="8.421641763931781 0.0 0.0 4.2108208819658905 7.293355709136913 0.0 0.0 0.0 44.584161137365626" Properties=species:S:1:pos:R:3:tags:I:1:forces:R:3 energy=-172.80596923828125 free_energy=-172.80596923828125 stress="0.010263815522193909 -4.4493914174381644e-05 -8.823364623822272e-05 -4.4493914174381644e-05 0.01031519751995802 -5.093785875942558e-05 -8.823364623822272e-05 -5.093785875942558e-05 -2.5169252694468014e-05" pbc="T T T"
Pt       1.40360696       0.81037286      20.00000000        3      -0.00119408       0.00088876      -0.00833482
Pt       4.21082088       0.81037286      20.00000000        3       0.00177939       0.00456521       0.00073385
Pt       7.01803480       0.81037286      20.00000000        3       0.00235655       0.00135944      -0.00847149
Pt       2.80721392       3.24149143      20.00000000        3       0.00228208       0.00131643       0.02806720
Pt       5.61442784       3.24149143      20.00000000        3      -0.00033868      -0.00209216       0.01607412
Pt       8.42164176       3.24149143      20.00000000        3       0.00017587      -0.00147943      -0.00833634
Pt       4.21082088       5.67261000      20.00000000        3      -0.00197755       0.00075615       0.01607499
Pt       7.01803480       5.67261000      20.00000000        3      -0.00047306      -0.00026899      -0.01008949
Pt       9.82524872       5.67261000      20.00000000        3       0.00484309      -0.00074141       0.00073236
Pt      -0.00000000       1.62074571      22.29208057        2      -0.01717584      -0.00991913      -0.12072884
Pt       2.80721392       1.62074571      22.29208057        2       0.11912285       0.10260170       0.02591846
Pt       5.61442784       1.62074571      22.29208057        2      -0.16237356       0.08812099       0.02519228
Pt       1.40360696       4.05186428      22.29208057        2       0.14841732       0.05186104       0.02591925
Pt       4.21082088       4.05186428      22.29208057        2      -0.05769639      -0.03331232       0.08368465
Pt       7.01803480       4.05186428      22.29208057        2      -0.10972303       0.01323788      -0.04020021
Pt       2.80721392       6.48298285      22.29208057        2      -0.00486772      -0.18467791       0.02518979
Pt       5.61442784       6.48298285      22.29208057        2      -0.04339924      -0.10163938      -0.04020476
Pt       8.42164176       6.48298285      22.29208057        2       0.00832175       0.00480574      -0.06137558
Pt      -0.01871787      -0.00619260      24.56863269        1       0.01606397       0.01267608       0.00780068
Pt       2.79204218      -0.01109118      24.56279943        1       0.01351964      -0.00445239       0.00658491
Pt       5.60245528      -0.00691322      24.56256582        1      -0.01720686      -0.00992827      -0.00171551
Pt       1.36356125       2.40799790      24.56969633        1       0.03842101       0.02218049      -0.00401114
Pt       4.19418913       2.39675906      24.62805724        1       0.00597162       0.03319003      -0.00592349
Pt       7.00331359       2.41800424      24.56863134        1       0.01900547       0.00757223       0.00780275
Pt       2.76914224       4.86501357      24.62805808        1       0.03173126      -0.01142804      -0.00592063
Pt       5.62072451       4.86587229      24.59392135        1      -0.00277069      -0.00160127       0.02680108
Pt       8.40445123       4.85464357      24.56280052        1       0.00289945       0.01393428       0.00657630
N        3.95966749       3.90686165      26.93106618        0      -0.02166565      -0.01252101      -0.01036152
H        3.91708188       2.93583488      26.56361213        0       0.01472080       0.01184258      -0.00303995
H        3.09744097       4.35549446      26.56361185        0       0.01761794       0.00683287      -0.00304515
H        4.73014603       4.35169598      26.38980127        0      -0.00638787      -0.00368055       0.02860585
