31
Lattice="8.421641763931781 0.0 0.0 4.2108208819658905 7.293355709136913 0.0 0.0 0.0 44.584161137365626" Properties=species:S:1:pos:R:3:tags:I:1:forces:R:3 energy=-172.5789794921875 free_energy=-172.5789794921875 stress="0.010473095811903477 -7.274550961611226e-10 -4.347725734987762e-09 -7.274550961611226e-10 0.010473093949258327 3.6158496197202794e-09 -4.347725734987762e-09 3.6158496197202794e-09 -0.00020023455726914108" pbc="T T T"
Pt       1.40360696       0.81037286      20.00000000        3       0.00000038      -0.00000239      -0.00540227
Pt       4.21082088       0.81037286      20.00000000        3      -0.00079452       0.00067962      -0.00219959
Pt       7.01803480       0.81037286      20.00000000        3       0.00074389       0.00084655      -0.00204539
Pt       2.80721392       3.24149143      20.00000000        3       0.00036327      -0.00107090      -0.00204548
Pt       5.61442784       3.24149143      20.00000000        3      -0.00000200      -0.00000029       0.00783786
Pt       8.42164176       3.24149143      20.00000000        3      -0.00019047      -0.00102965      -0.00220224
Pt       4.21082088       5.67261000      20.00000000        3       0.00099009       0.00035026      -0.00219953
Pt       7.01803480       5.67261000      20.00000000        3      -0.00110989       0.00022461      -0.00204542
Pt       9.82524872       5.67261000      20.00000000        3      -0.00000111       0.00000238      -0.00681764
Pt      -0.00000000       1.62074571      22.29208057        2      -0.03219037       0.01882796      -0.02422043
Pt       2.80721392       1.62074571      22.29208057        2       0.03240365       0.01846327      -0.02422199
Pt       5.61442784       1.62074571      22.29208057        2       0.00152524       0.04198299       0.02925805
Pt       1.40360696       4.05186428      22.29208057        2       0.00078568      -0.01329031      -0.03097314
Pt       4.21082088       4.05186428      22.29208057        2       0.03559548      -0.02231390       0.02926105
Pt       7.01803480       4.05186428      22.29208057        2      -0.03712402      -0.01966796       0.02926283
Pt       2.80721392       6.48298285      22.29208057        2       0.01111974       0.00732475      -0.03097738
Pt       5.61442784       6.48298285      22.29208057        2      -0.00021360      -0.03729310      -0.02422307
Pt       8.42164176       6.48298285      22.29208057        2      -0.01190200       0.00596762      -0.03097774
Pt       0.00125016       0.00150238      24.57723220        1      -0.00713292      -0.00009411      -0.00424269
Pt       2.80528760       0.00033109      24.57723231        1       0.00365003      -0.00612893      -0.00424129
Pt       5.61499725      -0.00636824      24.57875339        1       0.00299087       0.01932155      -0.00732204
Pt       1.40428346       2.42928467      24.57723237        1       0.00348262       0.00622518      -0.00424182
Pt       4.19857753       2.42122455      24.58945427        1       0.02483390       0.00794820       0.00628324
Pt       7.03272475       2.42546247      24.58945453        1      -0.01929828       0.01753301       0.00628376
Pt       2.80141430       4.86492801      24.57875353        1       0.01523679      -0.01225195      -0.00733283
Pt       5.61198090       4.87778738      24.58945426        1      -0.00553293      -0.02548227       0.00628334
Pt       8.42687202       4.86591463      24.57875364        1      -0.01822969      -0.00707259      -0.00733119
N        5.61442747       3.24149164      27.59559733        0       0.00002072      -0.00000802       0.00371945
H        5.14645377       4.06216569      27.19906560        0       0.03360807      -0.00871792       0.03568641
H        6.55913976       3.23643179      27.19906533        0      -0.02437651      -0.02474848       0.03569687
H        5.13769022       2.42587679      27.19906541        0      -0.00925204       0.03347459       0.03569057
