31
Lattice="8.421641763931781 0.0 0.0 4.2108208819658905 7.293355709136913 0.0 0.0 0.0 44.584161137365626" Properties=species:S:1:pos:R:3:tags:I:1:forces:R:3 energy=-172.80453491210938 free_energy=-172.80453491210938 stress="0.010308955796062946 2.5139541559582312e-09 -3.6566605299270805e-09 2.5139541559582312e-09 0.010308980941772461 1.7749359759733352e-09 -3.6566605299270805e-09 1.7749359759733352e-09 -2.4695256797713228e-05" pbc="T T T"
Pt       1.40360696       0.81037286      20.00000000        3      -0.00189694       0.00057162      -0.00842538
Pt       4.21082088       0.81037286      20.00000000        3      -0.00024330       0.00310560      -0.00555351
Pt       7.01803480       0.81037286      20.00000000        3       0.00144311       0.00135378      -0.00842586
Pt       2.80721392       3.24149143      20.00000000        3       0.00007728      -0.00009953       0.01854861
Pt       5.61442784       3.24149143      20.00000000        3       0.00004601       0.00011512       0.01854819
Pt       8.42164176       3.24149143      20.00000000        3       0.00045336      -0.00192987      -0.00842687
Pt       4.21082088       5.67261000      20.00000000        3      -0.00012157      -0.00001546       0.01854926
Pt       7.01803480       5.67261000      20.00000000        3      -0.00257019      -0.00176313      -0.00555593
Pt       9.82524872       5.67261000      20.00000000        3       0.00281240      -0.00133875      -0.00555608
Pt      -0.00000000       1.62074571      22.29208057        2       0.00000088      -0.00000266      -0.10864741
Pt       2.80721392       1.62074571      22.29208057        2       0.11438932       0.09612085       0.00601134
Pt       5.61442784       1.62074571      22.29208057        2      -0.10751542       0.10099702       0.00854869
Pt       1.40360696       4.05186428      22.29208057        2       0.14122711       0.04261136       0.00855249
Pt       4.21082088       4.05186428      22.29208057        2       0.00000108       0.00000150       0.08440822
Pt       7.01803480       4.05186428      22.29208057        2      -0.14044392       0.05100368       0.00601522
Pt       2.80721392       6.48298285      22.29208057        2       0.02605110      -0.14712535       0.00601372
Pt       5.61442784       6.48298285      22.29208057        2      -0.03371235      -0.14360926       0.00855135
Pt       8.42164176       6.48298285      22.29208057        2       0.00000105       0.00000229      -0.08293724
Pt      -0.00956358       0.01234668      24.57146032        1       0.02426898      -0.01657713      -0.01094911
Pt       2.80764006      -0.00316056      24.55878840        1       0.00013453       0.01291284       0.02386691
Pt       5.61147824       0.00121093      24.55878786        1       0.01111746      -0.00657566       0.02386609
Pt       1.39769600       2.41666204      24.57146003        1       0.00222290       0.02930937      -0.01094913
Pt       4.21712157       2.40983245      24.61358883        1      -0.01066525       0.00378131       0.00525864
Pt       7.03350937       2.43322815      24.57146071        1      -0.02649237      -0.01273259      -0.01094984
Pt       2.78563007       4.86742311      24.61358979        1       0.00860387       0.00734780       0.00524694
Pt       5.62971042       4.87833628      24.61358989        1       0.00206441      -0.01112675       0.00524920
Pt       8.42416557       4.86418591      24.55878902        1      -0.01125439      -0.00633797       0.02386789
N        4.21082021       4.05186445      26.95090946        0       0.00001095      -0.00002636      -0.01169172
H        3.35286822       4.45694835      26.52765123        0       0.01725946       0.00299250       0.00231856
H        4.99060996       4.59233117      26.52765189        0      -0.00604630      -0.01644011       0.00231897
H        4.28898416       3.10631394      26.52765052        0      -0.01122315       0.01347408       0.00232786
