31
Lattice="8.421641763931781 0.0 0.0 4.2108208819658905 7.293355709136913 0.0 0.0 0.0 44.584161137365626" Properties=species:S:1:pos:R:3:tags:I:1:forces:R:3 energy=-172.80453491210938 free_energy=-172.80453491210938 stress="0.01030896045267582 3.6457775687281924e-10 5.876775732716055e-10 3.6457775687281924e-10 0.01030898280441761 1.3215943894806514e-09 5.876775732716055e-10 1.3215943894806514e-09 -2.4738343199715018e-05" pbc="T T T"
Pt       1.40360696       0.81037286      20.00000000        3      -0.00144522       0.00135417      -0.00842512
Pt       4.21082088       0.81037286      20.00000000        3       0.00024711       0.00310631      -0.00555453
Pt       7.01803480       0.81037286      20.00000000        3       0.00189535       0.00057125      -0.00842592
Pt       2.80721392       3.24149143      20.00000000        3      -0.00004667       0.00011462       0.01854727
Pt       5.61442784       3.24149143      20.00000000        3      -0.00007807      -0.00009958       0.01854730
Pt       8.42164176       3.24149143      20.00000000        3      -0.00045036      -0.00193038      -0.00842729
Pt       4.21082088       5.67261000      20.00000000        3       0.00012569      -0.00001432       0.01854864
Pt       7.01803480       5.67261000      20.00000000        3      -0.00281557      -0.00133932      -0.00555608
Pt       9.82524872       5.67261000      20.00000000        3       0.00256736      -0.00176310      -0.00555548
Pt      -0.00000000       1.62074571      22.29208057        2       0.00000364      -0.00000329      -0.10865577
Pt       2.80721392       1.62074571      22.29208057        2       0.10751742       0.10099746       0.00855027
Pt       5.61442784       1.62074571      22.29208057        2      -0.11439480       0.09611972       0.00601009
Pt       1.40360696       4.05186428      22.29208057        2       0.14043850       0.05100562       0.00601706
Pt       4.21082088       4.05186428      22.29208057        2       0.00000095      -0.00000003       0.08440487
Pt       7.01803480       4.05186428      22.29208057        2      -0.14122604       0.04261626       0.00855328
Pt       2.80721392       6.48298285      22.29208057        2       0.03371010      -0.14361098       0.00855048
Pt       5.61442784       6.48298285      22.29208057        2      -0.02605001      -0.14712480       0.00601279
Pt       8.42164176       6.48298285      22.29208057        2       0.00000074       0.00000046      -0.08293144
Pt       0.00956387       0.01234751      24.57146037        1      -0.02426946      -0.01658569      -0.01095077
Pt       2.81016362       0.00121303      24.55878813        1      -0.01111204      -0.00658380       0.02386577
Pt       5.61400275      -0.00316070      24.55878853        1      -0.00014274       0.01291228       0.02386527
Pt       1.38813118       2.43322673      24.57146130        1       0.02650092      -0.01272317      -0.01094918
Pt       4.20452110       2.40983437      24.61358801        1       0.01066525       0.00376097       0.00523982
Pt       7.02394652       2.41666184      24.57145937        1      -0.00222844       0.02931387      -0.01093888
Pt       2.79193138       4.87833529      24.61358802        1      -0.00207593      -0.01111906       0.00524302
Pt       5.63601095       4.86742330      24.61358811        1      -0.00859166       0.00735687       0.00524265
Pt       8.41911694       4.86418588      24.55878996        1       0.01125406      -0.00633299       0.02385402
N        4.21082071       4.05186427      26.95089541        0      -0.00000013      -0.00002257      -0.01167920
H        4.13268046       3.10630964      26.52763986        0       0.01121723       0.01350296       0.00234076
H        3.43101684       4.59231323      26.52764057        0       0.00606793      -0.01645532       0.00232780
H        5.06876503       4.45696993      26.52764095        0      -0.01728526       0.00297587       0.00232855
