31
Lattice="8.421641763931781 0.0 0.0 4.2108208819658905 7.293355709136913 0.0 0.0 0.0 44.584161137365626" Properties=species:S:1:pos:R:3:tags:I:1:forces:R:3 energy=-173.70989990234375 free_energy=-173.70989990234375 stress="0.010813932865858078 -1.3018122579921965e-08 4.9581898586836815e-09 -1.3018122579921965e-08 0.010813950560986996 5.091165267145925e-09 4.9581898586836815e-09 5.091165267145925e-09 0.00012008872727164999" pbc="T T T"
Pt       1.40360696       0.81037286      20.00000000        3      -0.00296103      -0.00171239      -0.00427178
Pt       4.21082088       0.81037286      20.00000000        3       0.00000186       0.00447943       0.01263013
Pt       7.01803480       0.81037286      20.00000000        3       0.00295961      -0.00171232      -0.00427201
Pt       2.80721392       3.24149143      20.00000000        3       0.00388211      -0.00224136       0.01262829
Pt       5.61442784       3.24149143      20.00000000        3      -0.00388287      -0.00224076       0.01262885
Pt       8.42164176       3.24149143      20.00000000        3       0.00000150      -0.00572895      -0.00772566
Pt       4.21082088       5.67261000      20.00000000        3       0.00000214       0.00342158      -0.00427207
Pt       7.01803480       5.67261000      20.00000000        3      -0.00496384       0.00286714      -0.00772464
Pt       9.82524872       5.67261000      20.00000000        3       0.00496027       0.00286741      -0.00772446
Pt      -0.00000000       1.62074571      22.29208057        2       0.00000177       0.00215738       0.02037223
Pt       2.80721392       1.62074571      22.29208057        2       0.06378169       0.03682287      -0.01406380
Pt       5.61442784       1.62074571      22.29208057        2      -0.06378433       0.03682254      -0.01406413
Pt       1.40360696       4.05186428      22.29208057        2       0.04977814      -0.02873888       0.04723072
Pt       4.21082088       4.05186428      22.29208057        2       0.00000174      -0.07364847      -0.01406420
Pt       7.01803480       4.05186428      22.29208057        2      -0.04977998      -0.02873846       0.04723062
Pt       2.80721392       6.48298285      22.29208057        2      -0.00186992      -0.00107879       0.02037166
Pt       5.61442784       6.48298285      22.29208057        2       0.00186903      -0.00107827       0.02037069
Pt       8.42164176       6.48298285      22.29208057        2       0.00000140       0.05748139       0.04723051
Pt       0.00000033      -0.00000025      24.59749877        1      -0.00000207       0.00000098      -0.03699407
Pt       2.80279347      -0.00784073      24.60512658        1      -0.00181373       0.00154495      -0.01533374
Pt       5.61884830      -0.00784067      24.60512665        1       0.00181463       0.00154486      -0.01533377
Pt       1.39460665       2.43121034      24.60512712        1       0.00043003      -0.00234404      -0.01533324
Pt       4.21082072       2.43111863      24.66416348        1      -0.00000027      -0.00000296      -0.02247149
Pt       7.02703489       2.43121033      24.60512705        1      -0.00042987      -0.00234561      -0.01533203
Pt       2.80263421       4.86998556      24.60512722        1       0.00224441       0.00080014      -0.01533228
Pt       5.61900762       4.86998565      24.60512683        1      -0.00224488       0.00079984      -0.01533210
Pt       8.42164175       4.86223714      24.59664152        1       0.00000134       0.00000051      -0.03495377
N        4.21082012       2.43111811      26.72911507        0       0.00006843       0.00003584       0.01967227
H        4.21082095       3.40217245      27.05108514        0      -0.00000358      -0.00097446       0.00140431
H        5.05177879       1.94559148      27.05108413        0      -0.00084816       0.00048581       0.00140233
H        3.36986404       1.94559156      27.05108507        0       0.00078465       0.00045303       0.00142646
