31
Lattice="8.421641763931781 0.0 0.0 4.2108208819658905 7.293355709136913 0.0 0.0 0.0 44.584161137365626" Properties=species:S:1:pos:R:3:tags:I:1:forces:R:3 energy=-172.80653381347656 free_energy=-172.80653381347656 stress="0.010291829705238342 -1.6549647208208285e-09 -3.4376419488779675e-09 -1.6549647208208285e-09 0.010291831567883492 4.472879400196916e-09 -3.4376419488779675e-09 4.472879400196916e-09 2.576818224042654e-05" pbc="T T T"
Pt       1.40360696       0.81037286      20.00000000        3       0.00000085      -0.00000224      -0.00860620
Pt       4.21082088       0.81037286      20.00000000        3      -0.00223174       0.00252703       0.00094777
Pt       7.01803480       0.81037286      20.00000000        3       0.00223084       0.00252628       0.00094670
Pt       2.80721392       3.24149143      20.00000000        3       0.00107416      -0.00319819       0.00094721
Pt       5.61442784       3.24149143      20.00000000        3      -0.00000223       0.00000009       0.03144506
Pt       8.42164176       3.24149143      20.00000000        3      -0.00107121      -0.00319732       0.00094619
Pt       4.21082088       5.67261000      20.00000000        3       0.00330826       0.00067138       0.00094801
Pt       7.01803480       5.67261000      20.00000000        3      -0.00330819       0.00067217       0.00094619
Pt       9.82524872       5.67261000      20.00000000        3      -0.00000035       0.00000208      -0.01521608
Pt      -0.00000000       1.62074571      22.29208057        2      -0.13821046       0.07979445       0.02789671
Pt       2.80721392       1.62074571      22.29208057        2       0.13821290       0.07979570       0.02789507
Pt       5.61442784       1.62074571      22.29208057        2      -0.00000171       0.12209939       0.04594226
Pt       1.40360696       4.05186428      22.29208057        2       0.00000160      -0.03577166      -0.07026467
Pt       4.21082088       4.05186428      22.29208057        2       0.10574441      -0.06105129       0.04594302
Pt       7.01803480       4.05186428      22.29208057        2      -0.10574561      -0.06105086       0.04594311
Pt       2.80721392       6.48298285      22.29208057        2       0.03097946       0.01788684      -0.07026513
Pt       5.61442784       6.48298285      22.29208057        2      -0.00000265      -0.15959235       0.02789476
Pt       8.42164176       6.48298285      22.29208057        2      -0.03097708       0.01788878      -0.07026681
Pt       0.00224083       0.00129339      24.56523461        1       0.00060613       0.00035124      -0.00526294
Pt       2.80497337       0.00129341      24.56523446        1      -0.00060661       0.00035256      -0.00526163
Pt       5.61442773      -0.01027212      24.56857292        1       0.00000142       0.00925105      -0.00448623
Pt       1.40360715       2.42853121      24.56523470        1      -0.00000124      -0.00070114      -0.00526208
Pt       4.18532968       2.41640100      24.61131499        1       0.01195379       0.00690345       0.00162324
Pt       7.04352571       2.41640111      24.61131537        1      -0.01195432       0.00690168       0.00162504
Pt       2.79831822       4.86737303      24.56857343        1       0.00801327      -0.00462621      -0.00448400
Pt       5.61442784       4.89167169      24.61131498        1      -0.00000155      -0.01380544       0.00162382
Pt       8.43053720       4.86737317      24.56857365        1      -0.00801222      -0.00462725      -0.00448374
N        5.61442761       3.24149189      26.92948817        0       0.00002749      -0.00002733       0.03304636
H        5.61442783       4.19293045      26.51547692        0      -0.00000288       0.01015171      -0.01090745
H        6.43839820       2.76577186      26.51547684        0       0.00876051      -0.00505684      -0.01089067
H        4.79045755       2.76577185      26.51547665        0      -0.00878492      -0.00506758      -0.01090272
