31
Lattice="8.421641763931781 0.0 0.0 4.2108208819658905 7.293355709136913 0.0 0.0 0.0 44.584161137365626" Properties=species:S:1:pos:R:3:tags:I:1:forces:R:3 energy=-173.71286010742188 free_energy=-173.71286010742188 stress="0.010689347051084042 -1.6270446323574106e-08 -1.0616287404729974e-08 -1.6270446323574106e-08 0.010689343325793743 3.9477785485075856e-09 -1.0616287404729974e-08 3.9477785485075856e-09 -8.142001206579152e-07" pbc="T T T"
Pt       1.40360696       0.81037286      20.00000000        3      -0.00282475      -0.00163389      -0.00671324
Pt       4.21082088       0.81037286      20.00000000        3       0.00000182       0.00503949       0.01241994
Pt       7.01803480       0.81037286      20.00000000        3       0.00282317      -0.00163376      -0.00671411
Pt       2.80721392       3.24149143      20.00000000        3       0.00436682      -0.00252092       0.01241797
Pt       5.61442784       3.24149143      20.00000000        3      -0.00436748      -0.00252089       0.01241946
Pt       8.42164176       3.24149143      20.00000000        3       0.00000135      -0.00624447      -0.00960916
Pt       4.21082088       5.67261000      20.00000000        3       0.00000226       0.00326449      -0.00671357
Pt       7.01803480       5.67261000      20.00000000        3      -0.00541006       0.00312436      -0.00960860
Pt       9.82524872       5.67261000      20.00000000        3       0.00540674       0.00312503      -0.00960830
Pt      -0.00000000       1.62074571      22.29208057        2       0.00000132       0.00647524      -0.00202339
Pt       2.80721392       1.62074571      22.29208057        2       0.07025490       0.04055955      -0.02788080
Pt       5.61442784       1.62074571      22.29208057        2      -0.07025632       0.04056026      -0.02787989
Pt       1.40360696       4.05186428      22.29208057        2       0.05403003      -0.03119305       0.03128511
Pt       4.21082088       4.05186428      22.29208057        2       0.00000187      -0.08112302      -0.02787951
Pt       7.01803480       4.05186428      22.29208057        2      -0.05403169      -0.03119284       0.03128687
Pt       2.80721392       6.48298285      22.29208057        2      -0.00560845      -0.00323726      -0.00202464
Pt       5.61442784       6.48298285      22.29208057        2       0.00560831      -0.00323740      -0.00202492
Pt       8.42164176       6.48298285      22.29208057        2       0.00000078       0.06239038       0.03128450
Pt       0.00000059      -0.00000004      24.58937927        1       0.00000083       0.00000017      -0.00328100
Pt       2.80075869      -0.00705577      24.60032798        1       0.00605753       0.00140126       0.00254984
Pt       5.62088416      -0.00705512      24.60032761        1      -0.00605966       0.00140220       0.00254934
Pt       1.39426938       2.42905567      24.60032855        1       0.00424127       0.00454425       0.00255059
Pt       4.21081993       2.43111775      24.66258020        1       0.00000444       0.00000223       0.01704386
Pt       7.02737307       2.42905554      24.60032810        1      -0.00424531       0.00454777       0.00255099
Pt       2.80433186       4.87135617      24.60032800        1      -0.00181305      -0.00594888       0.00255084
Pt       5.61731015       4.87135571      24.60032833        1       0.00181552      -0.00595093       0.00255060
Pt       8.42164248       4.86223756      24.58984541        1      -0.00000355      -0.00000115      -0.00326437
N        4.21082016       2.43111713      26.73159840        0      -0.00008759       0.00004072      -0.00470424
H        4.21082000       1.45931661      27.05269453        0       0.00000249       0.01827770      -0.00450497
H        3.36921443       2.91701879      27.05269486        0       0.01590525      -0.00918180      -0.00453216
H        5.05242465       2.91701853      27.05268992        0      -0.01581892      -0.00913491      -0.00449300
