31
Lattice="8.421641763931781 0.0 0.0 4.2108208819658905 7.293355709136913 0.0 0.0 0.0 44.584161137365626" Properties=species:S:1:pos:R:3:tags:I:1:forces:R:3 energy=-172.80630493164062 free_energy=-172.80630493164062 stress="0.010269259102642536 2.3380495317582017e-09 -7.237140886573457e-10 2.3380495317582017e-09 0.01026926189661026 4.761276706233275e-09 -7.237140886573457e-10 4.761276706233275e-09 9.033442438521888e-06" pbc="T T T"
Pt       1.40360696       0.81037286      20.00000000        3       0.00000093      -0.00000264      -0.00880945
Pt       4.21082088       0.81037286      20.00000000        3      -0.00214147       0.00264107       0.00079587
Pt       7.01803480       0.81037286      20.00000000        3       0.00214085       0.00264048       0.00079504
Pt       2.80721392       3.24149143      20.00000000        3       0.00121792      -0.00317780       0.00079420
Pt       5.61442784       3.24149143      20.00000000        3      -0.00000176      -0.00000014       0.03264365
Pt       8.42164176       3.24149143      20.00000000        3      -0.00121606      -0.00317706       0.00079352
Pt       4.21082088       5.67261000      20.00000000        3       0.00336241       0.00053653       0.00079522
Pt       7.01803480       5.67261000      20.00000000        3      -0.00336178       0.00053741       0.00079429
Pt       9.82524872       5.67261000      20.00000000        3      -0.00000143       0.00000254      -0.01720351
Pt      -0.00000000       1.62074571      22.29208057        2      -0.13941230       0.08048797       0.02965635
Pt       2.80721392       1.62074571      22.29208057        2       0.13941218       0.08048735       0.02965109
Pt       5.61442784       1.62074571      22.29208057        2       0.00000050       0.12738812       0.04131701
Pt       1.40360696       4.05186428      22.29208057        2       0.00000065      -0.04157481      -0.08074217
Pt       4.21082088       4.05186428      22.29208057        2       0.11032359      -0.06369446       0.04131600
Pt       7.01803480       4.05186428      22.29208057        2      -0.11032436      -0.06369711       0.04131921
Pt       2.80721392       6.48298285      22.29208057        2       0.03600523       0.02078900      -0.08074357
Pt       5.61442784       6.48298285      22.29208057        2      -0.00000208      -0.16097622       0.02965049
Pt       8.42164176       6.48298285      22.29208057        2      -0.03600281       0.02078971      -0.08074574
Pt       0.00154696       0.00089268      24.56436911        1       0.00933381       0.00539166      -0.00226516
Pt       2.80566758       0.00089266      24.56437011        1      -0.00933598       0.00539081      -0.00226381
Pt       5.61442758      -0.01019386      24.56513545        1       0.00000185       0.01071877       0.01351433
Pt       1.40360719       2.42933228      24.56436907        1      -0.00000429      -0.01077666      -0.00226346
Pt       4.18729685       2.41753701      24.61312502        1       0.00276612       0.00159571      -0.00094042
Pt       7.04155839       2.41753682      24.61312641        1      -0.00276008       0.00159508      -0.00095287
Pt       2.79838636       4.86733401      24.56513563        1       0.00928053      -0.00535946       0.01351501
Pt       5.61442785       4.88940041      24.61312500        1      -0.00000070      -0.00319389      -0.00094094
Pt       8.43046942       4.86733392      24.56513595        1      -0.00928083      -0.00536238       0.01351571
N        5.61442759       3.24149155      26.94056643        0       0.00000758      -0.00002508      -0.03258961
H        4.79429343       2.76798662      26.51488897        0      -0.02597281      -0.01499419       0.00653146
H        5.61442802       4.18850062      26.51488894        0      -0.00000297       0.03001389       0.00652268
H        6.43456207       2.76798687      26.51488951        0       0.02596755      -0.01499442       0.00653933
