31
Lattice="8.421641763931781 0.0 0.0 4.2108208819658905 7.293355709136913 0.0 0.0 0.0 44.584161137365626" Properties=species:S:1:pos:R:3:tags:I:1:forces:R:3 energy=-172.5789794921875 free_energy=-172.5789794921875 stress="0.01047310046851635 2.9706967441534005e-10 2.8077928870828828e-09 2.9706967441534005e-10 0.01047310046851635 -3.6457775687281924e-10 2.8077928870828828e-09 -3.6457775687281924e-10 -0.00020023279648739845" pbc="T T T"
Pt       1.40360696       0.81037286      20.00000000        3       0.00000099      -0.00000275      -0.00540173
Pt       4.21082088       0.81037286      20.00000000        3      -0.00074491       0.00084736      -0.00204444
Pt       7.01803480       0.81037286      20.00000000        3       0.00079384       0.00067857      -0.00220066
Pt       2.80721392       3.24149143      20.00000000        3       0.00019349      -0.00103008      -0.00220084
Pt       5.61442784       3.24149143      20.00000000        3      -0.00000210      -0.00000012       0.00783721
Pt       8.42164176       3.24149143      20.00000000        3      -0.00036037      -0.00107061      -0.00204661
Pt       4.21082088       5.67261000      20.00000000        3       0.00111006       0.00022376      -0.00204444
Pt       7.01803480       5.67261000      20.00000000        3      -0.00098992       0.00035132      -0.00220048
Pt       9.82524872       5.67261000      20.00000000        3      -0.00000079       0.00000273      -0.00681749
Pt      -0.00000000       1.62074571      22.29208057        2      -0.03240123       0.01846228      -0.02422057
Pt       2.80721392       1.62074571      22.29208057        2       0.03219251       0.01882868      -0.02422133
Pt       5.61442784       1.62074571      22.29208057        2      -0.00152956       0.04198260       0.02925772
Pt       1.40360696       4.05186428      22.29208057        2      -0.00078290      -0.01329022      -0.03097362
Pt       4.21082088       4.05186428      22.29208057        2       0.03712218      -0.01966863       0.02926101
Pt       7.01803480       4.05186428      22.29208057        2      -0.03559688      -0.02231317       0.02926191
Pt       2.80721392       6.48298285      22.29208057        2       0.01190414       0.00596592      -0.03097720
Pt       5.61442784       6.48298285      22.29208057        2       0.00021005      -0.03729292      -0.02422228
Pt       8.42164176       6.48298285      22.29208057        2      -0.01111813       0.00732660      -0.03097735
Pt       0.00192650       0.00033098      24.57723224        1      -0.00364769      -0.00612904      -0.00424224
Pt       2.80596400       0.00150251      24.57723230        1       0.00713199      -0.00009585      -0.00424272
Pt       5.61385814      -0.00636827      24.57875335        1      -0.00299087       0.01932148      -0.00732276
Pt       1.40293078       2.42928460      24.57723245        1      -0.00348279       0.00622550      -0.00424248
Pt       4.19613083       2.42546246      24.58945427        1       0.01929868       0.01753279       0.00628388
Pt       7.03027798       2.42122457      24.58945452        1      -0.02483307       0.00794746       0.00628483
Pt       2.80198374       4.86591459      24.57875352        1       0.01822836      -0.00707263      -0.00733179
Pt       5.61687454       4.87778730      24.58945425        1       0.00553298      -0.02547923       0.00628337
Pt       8.42744140       4.86492823      24.57875364        1      -0.01523792      -0.01225206      -0.00733149
N        5.61442816       3.24149129      27.59559745        0      -0.00001456       0.00000782       0.00371629
H        6.09116554       2.42587690      27.19906554        0       0.00925326       0.03346930       0.03568843
H        4.66971577       3.23643178      27.19906533        0       0.02437700      -0.02474850       0.03569590
H        6.08240201       4.06216560      27.19906540        0      -0.03361589      -0.00872834       0.03569219
