31
Lattice="8.421641763931781 0.0 0.0 4.2108208819658905 7.293355709136913 0.0 0.0 0.0 44.584161137365626" Properties=species:S:1:pos:R:3:tags:I:1:forces:R:3 energy=-173.70989990234375 free_energy=-173.70989990234375 stress="0.010813947767019272 -1.7167737453860354e-08 1.4387898872314508e-08 -1.7167737453860354e-08 0.010813933797180653 -1.0573095288179957e-08 1.4387898872314508e-08 -1.0573095288179957e-08 0.00012006761244265363" pbc="T T T"
Pt       1.40360696       0.81037286      20.00000000        3      -0.00296141      -0.00171249      -0.00427175
Pt       4.21082088       0.81037286      20.00000000        3       0.00000176       0.00447953       0.01262951
Pt       7.01803480       0.81037286      20.00000000        3       0.00295967      -0.00171227      -0.00427195
Pt       2.80721392       3.24149143      20.00000000        3       0.00388224      -0.00224104       0.01262769
Pt       5.61442784       3.24149143      20.00000000        3      -0.00388286      -0.00224072       0.01262802
Pt       8.42164176       3.24149143      20.00000000        3       0.00000119      -0.00572890      -0.00772578
Pt       4.21082088       5.67261000      20.00000000        3       0.00000238       0.00342154      -0.00427267
Pt       7.01803480       5.67261000      20.00000000        3      -0.00496366       0.00286725      -0.00772452
Pt       9.82524872       5.67261000      20.00000000        3       0.00496041       0.00286750      -0.00772363
Pt      -0.00000000       1.62074571      22.29208057        2       0.00000161       0.00215729       0.02037209
Pt       2.80721392       1.62074571      22.29208057        2       0.06378233       0.03682262      -0.01406399
Pt       5.61442784       1.62074571      22.29208057        2      -0.06378361       0.03682215      -0.01406532
Pt       1.40360696       4.05186428      22.29208057        2       0.04977898      -0.02873911       0.04723157
Pt       4.21082088       4.05186428      22.29208057        2       0.00000163      -0.07364858      -0.01406474
Pt       7.01803480       4.05186428      22.29208057        2      -0.04978060      -0.02873862       0.04723072
Pt       2.80721392       6.48298285      22.29208057        2      -0.00186982      -0.00107892       0.02037216
Pt       5.61442784       6.48298285      22.29208057        2       0.00186878      -0.00107889       0.02037072
Pt       8.42164176       6.48298285      22.29208057        2       0.00000101       0.05748125       0.04722901
Pt       0.00000026      -0.00000018      24.59749828        1      -0.00000094      -0.00000033      -0.03699455
Pt       2.80279356      -0.00784091      24.60512715        1      -0.00181535       0.00154796      -0.01533197
Pt       5.61884846      -0.00784099      24.60512722        1       0.00181676       0.00154538      -0.01533267
Pt       1.39460689       2.43121042      24.60512710        1       0.00043172      -0.00234534      -0.01533233
Pt       4.21082149       2.43111820      24.66416266        1      -0.00000089       0.00000074      -0.02248979
Pt       7.02703529       2.43121033      24.60512763        1      -0.00042925      -0.00234570      -0.01533137
Pt       2.80263441       4.86998552      24.60512720        1       0.00224523       0.00079881      -0.01533303
Pt       5.61900769       4.86998568      24.60512706        1      -0.00224685       0.00080010      -0.01533201
Pt       8.42164117       4.86223687      24.59664157        1       0.00000222      -0.00000028      -0.03495416
N        4.21082029       2.43111935      26.72911354        0       0.00010583      -0.00008574       0.01969588
H        3.36986334       1.94559204      27.05108152        0       0.00079560       0.00046447       0.00142471
H        4.21082030       3.40217201      27.05108311        0      -0.00000376      -0.00089990       0.00142805
H        5.05177824       1.94559128      27.05108615        0      -0.00090037       0.00052045       0.00137617
