31
Lattice="8.421641763931781 0.0 0.0 4.2108208819658905 7.293355709136913 0.0 0.0 0.0 44.584161137365626" Properties=species:S:1:pos:R:3:tags:I:1:forces:R:3 energy=-172.80886840820312 free_energy=-172.80886840820312 stress="0.010305323638021946 2.1840676708961837e-05 -4.2161514102190267e-07 2.1840676708961837e-05 0.010330538265407085 2.3872684096204466e-07 -4.2161514102190267e-07 2.3872684096204466e-07 8.44072928884998e-06" pbc="T T T"
Pt       1.40360696       0.81037286      20.00000000        3      -0.00130333       0.00074973      -0.00881317
Pt       4.21082088       0.81037286      20.00000000        3      -0.00041197       0.00381896      -0.00013083
Pt       7.01803480       0.81037286      20.00000000        3       0.00152087       0.00026245      -0.00968137
Pt       2.80721392       3.24149143      20.00000000        3       0.00092819      -0.00141617       0.01716685
Pt       5.61442784       3.24149143      20.00000000        3      -0.00160440       0.00092510       0.02362147
Pt       8.42164176       3.24149143      20.00000000        3       0.00053394      -0.00145132      -0.00968406
Pt       4.21082088       5.67261000      20.00000000        3       0.00169204      -0.00009323       0.01716796
Pt       7.01803480       5.67261000      20.00000000        3      -0.00351777      -0.00154960      -0.00013280
Pt       9.82524872       5.67261000      20.00000000        3       0.00174458      -0.00100521      -0.00764841
Pt      -0.00000000       1.62074571      22.29208057        2       0.00348813      -0.00201843      -0.11544888
Pt       2.80721392       1.62074571      22.29208057        2       0.14300267       0.09631540       0.02985554
Pt       5.61442784       1.62074571      22.29208057        2      -0.13441965       0.09835352       0.01990585
Pt       1.40360696       4.05186428      22.29208057        2       0.10979366       0.02900864      -0.02290599
Pt       4.21082088       4.05186428      22.29208057        2       0.03031641      -0.01750191       0.08498200
Pt       7.01803480       4.05186428      22.29208057        2      -0.15239075       0.06723271       0.01990920
Pt       2.80721392       6.48298285      22.29208057        2       0.02977678      -0.10958417      -0.02290340
Pt       5.61442784       6.48298285      22.29208057        2      -0.01191606      -0.17200051       0.02985858
Pt       8.42164176       6.48298285      22.29208057        2      -0.01390007       0.00802872      -0.06294156
Pt       0.00093739       0.00744626      24.56870432        1      -0.00196919      -0.00027597       0.00528499
Pt       2.80612463       0.00062885      24.56180376        1       0.01166414      -0.00673790       0.00301565
Pt       5.61451290      -0.00447388      24.56366588        1      -0.00397400       0.01117239       0.00246873
Pt       1.39762721       2.42658351      24.56870340        1      -0.00074892       0.00184501       0.00529663
Pt       4.20923182       2.41065202      24.62482043        1       0.00001670      -0.00105520      -0.00749518
Pt       7.03207485       2.42301233      24.56554087        1       0.00259455      -0.00149786       0.01330526
Pt       2.78812867       4.87325604      24.60324800        1       0.00105166      -0.00060671       0.01186315
Pt       5.63135750       4.87384628      24.62482006        1       0.00092385       0.00051764      -0.00749469
Pt       8.42555899       4.86440016      24.56366453        1      -0.01166623      -0.00214454       0.00247067
N        4.40524129       3.93961573      26.94624797        0       0.02446459      -0.01409289       0.01649904
H        4.43244537       2.97506815      26.56311068        0      -0.01122477       0.00205967      -0.00307369
H        3.61389292       4.39650044      26.45243731        0      -0.00704160       0.00406564      -0.02125648
H        5.25416671       4.39833170      26.56311086        0      -0.00742412       0.00867586      -0.00306124
