31
Lattice="8.421641763931781 0.0 0.0 4.2108208819658905 7.293355709136913 0.0 0.0 0.0 44.584161137365626" Properties=species:S:1:pos:R:3:tags:I:1:forces:R:3 energy=-172.80612182617188 free_energy=-172.80612182617188 stress="0.010317469015717506 -7.936106216632766e-10 3.69475094963434e-09 -7.936106216632766e-10 0.010317467153072357 -4.8456194612356285e-09 3.69475094963434e-09 -4.8456194612356285e-09 1.4723283129569609e-05" pbc="T T T"
Pt       1.40360696       0.81037286      20.00000000        3      -0.00118080       0.00067957      -0.00975460
Pt       4.21082088       0.81037286      20.00000000        3       0.00000213       0.00306460      -0.00309896
Pt       7.01803480       0.81037286      20.00000000        3       0.00117893       0.00068019      -0.00975537
Pt       2.80721392       3.24149143      20.00000000        3       0.00054372       0.00031219       0.01786655
Pt       5.61442784       3.24149143      20.00000000        3      -0.00054431       0.00031271       0.01786759
Pt       8.42164176       3.24149143      20.00000000        3       0.00000106      -0.00136419      -0.00975743
Pt       4.21082088       5.67261000      20.00000000        3       0.00000259      -0.00062437       0.01786792
Pt       7.01803480       5.67261000      20.00000000        3      -0.00265761      -0.00153054      -0.00310212
Pt       9.82524872       5.67261000      20.00000000        3       0.00265408      -0.00152978      -0.00310197
Pt      -0.00000000       1.62074571      22.29208057        2       0.00000215      -0.00000276      -0.12116167
Pt       2.80721392       1.62074571      22.29208057        2       0.12058303       0.08953841       0.01156901
Pt       5.61442784       1.62074571      22.29208057        2      -0.12058435       0.08953962       0.01156861
Pt       1.40360696       4.05186428      22.29208057        2       0.13783707       0.05965329       0.01156482
Pt       4.21082088       4.05186428      22.29208057        2       0.00000332      -0.00000193       0.08417841
Pt       7.01803480       4.05186428      22.29208057        2      -0.13784087       0.05965583       0.01156959
Pt       2.80721392       6.48298285      22.29208057        2       0.01725532      -0.14919341       0.01156593
Pt       5.61442784       6.48298285      22.29208057        2      -0.01725462      -0.14919542       0.01156816
Pt       8.42164176       6.48298285      22.29208057        2      -0.00000011       0.00000601      -0.05945158
Pt       0.00000033       0.01175035      24.56734056        1       0.00000009      -0.01475131       0.01010576
Pt       2.80793647      -0.00041722      24.56338265        1       0.00592907      -0.00342329      -0.00190991
Pt       5.61370557      -0.00041727      24.56338228        1      -0.00593034      -0.00342141      -0.00191003
Pt       1.39343069       2.42524297      24.56734063        1       0.01277775       0.00737557       0.01010598
Pt       4.21082095       2.41191767      24.61556745        1      -0.00000048      -0.00761411      -0.00049148
Pt       7.02821119       2.42524298      24.56734120        1      -0.01277698       0.00737792       0.01010638
Pt       2.79058578       4.87183769      24.61556688        1      -0.00659077       0.00380404      -0.00047798
Pt       5.63105601       4.87183772      24.61556731        1       0.00659751       0.00380523      -0.00049100
Pt       8.42164192       4.86307080      24.56338178        1      -0.00000649       0.00684659      -0.00189853
N        4.21082113       4.05186423      26.96079653        0      -0.00002225       0.00002580      -0.02615866
H        5.02947377       4.52451380      26.53156725        0       0.02724795       0.01573082       0.00500469
H        4.21082071       3.10656585      26.53156609        0       0.00000286      -0.03147839       0.00500001
H        3.39216778       4.52451354      26.53156663        0      -0.02722867       0.01572263       0.00501186
