31
Lattice="8.421641763931781 0.0 0.0 4.2108208819658905 7.293355709136913 0.0 0.0 0.0 44.584161137365626" Properties=species:S:1:pos:R:3:tags:I:1:forces:R:3 energy=-172.80471801757812 free_energy=-172.80471801757812 stress="0.010281272232532501 5.455063067927313e-10 -2.1711421549497345e-09 5.455063067927313e-10 0.010281272232532501 -1.0450322385224808e-08 -2.1711421549497345e-09 -1.0450322385224808e-08 -4.809492384083569e-05" pbc="T T T"
Pt       1.40360696       0.81037286      20.00000000        3      -0.00132690       0.00095615      -0.01031822
Pt       4.21082088       0.81037286      20.00000000        3      -0.00020525       0.00324222      -0.00451702
Pt       7.01803480       0.81037286      20.00000000        3       0.00149222       0.00066846      -0.01031882
Pt       2.80721392       3.24149143      20.00000000        3       0.00040679       0.00062930       0.01848927
Pt       5.61442784       3.24149143      20.00000000        3      -0.00075033       0.00003594       0.01849025
Pt       8.42164176       3.24149143      20.00000000        3      -0.00016531      -0.00162916      -0.01032045
Pt       4.21082088       5.67261000      20.00000000        3       0.00034528      -0.00066453       0.01849142
Pt       7.01803480       5.67261000      20.00000000        3      -0.00270752      -0.00179815      -0.00451961
Pt       9.82524872       5.67261000      20.00000000        3       0.00291090      -0.00143962      -0.00451985
Pt      -0.00000000       1.62074571      22.29208057        2       0.00000160      -0.00000545      -0.11635789
Pt       2.80721392       1.62074571      22.29208057        2       0.11675850       0.09308285       0.00275063
Pt       5.61442784       1.62074571      22.29208057        2      -0.12138935       0.09938975      -0.00063638
Pt       1.40360696       4.05186428      22.29208057        2       0.14677048       0.05542843      -0.00063536
Pt       4.21082088       4.05186428      22.29208057        2       0.00000318       0.00000199       0.08543665
Pt       7.01803480       4.05186428      22.29208057        2      -0.13899893       0.05457357       0.00275417
Pt       2.80721392       6.48298285      22.29208057        2       0.02223965      -0.14765573       0.00275487
Pt       5.61442784       6.48298285      22.29208057        2      -0.02538648      -0.15481995      -0.00063224
Pt       8.42164176       6.48298285      22.29208057        2       0.00000021       0.00000305      -0.07495598
Pt       0.00009247       0.00953531      24.56699673        1      -0.00313764       0.00678948       0.01100351
Pt       2.80385330      -0.00541948      24.55892449        1       0.02351421       0.01263165       0.02323303
Pt       5.61141512       0.00561952      24.55892302        1      -0.00081527      -0.02668040       0.02323347
Pt       1.39530347       2.42643050      24.56699628        1      -0.00431398      -0.00611249       0.01101424
Pt       4.20402622       2.41007973      24.61569780        1       0.01998278       0.00550991       0.00410218
Pt       7.02624636       2.42627107      24.56699609        1       0.00744952      -0.00067969       0.01101510
Pt       2.79239133       4.87864063      24.61569825        1      -0.00521711      -0.02005969       0.00410765
Pt       5.63604498       4.86687180      24.61569882        1      -0.01476324       0.01455122       0.00409749
Pt       8.42801443       4.86203580      24.55892403        1      -0.02269842       0.01404885       0.02323455
N        4.21082087       4.05186292      26.95925889        0       0.00000700       0.00005857       0.01794344
H        3.35836244       4.46868008      26.53936006        0      -0.00424682       0.01342406      -0.01480386
H        4.99802267       4.58170743      26.53936003        0       0.01375459      -0.00304621      -0.01479589
H        4.27607822       3.10520605      26.53935832        0      -0.00951436      -0.01043440      -0.01482062
