31
Lattice="8.421641763931781 0.0 0.0 4.2108208819658905 7.293355709136913 0.0 0.0 0.0 44.584161137365626" Properties=species:S:1:pos:R:3:tags:I:1:forces:R:3 energy=-172.76075744628906 free_energy=-172.76075744628906 stress="0.010408171452581882 7.045044912956655e-05 7.426597585435957e-05 7.045044912956655e-05 0.010361281223595142 -0.00011714647553162649 7.426597585435957e-05 -0.00011714647553162649 0.00011398627248127013" pbc="T T T"
Pt       1.40360696       0.81037286      20.00000000        3      -0.00257305       0.00266314       0.00178856
Pt       4.21082088       0.81037286      20.00000000        3       0.00008807       0.00390421       0.00241566
Pt       7.01803480       0.81037286      20.00000000        3      -0.00036487       0.00053111      -0.00557920
Pt       2.80721392       3.24149143      20.00000000        3       0.00069949       0.00237283       0.03803539
Pt       5.61442784       3.24149143      20.00000000        3      -0.00144962      -0.00184705       0.01665190
Pt       8.42164176       3.24149143      20.00000000        3       0.00073952      -0.00255315       0.00242957
Pt       4.21082088       5.67261000      20.00000000        3      -0.00326218       0.00049500       0.01904374
Pt       7.01803480       5.67261000      20.00000000        3      -0.00311106      -0.00061818      -0.00506645
Pt       9.82524872       5.67261000      20.00000000        3       0.00347920      -0.00050447       0.00365835
Pt      -0.00000000       1.62074571      22.29208057        2       0.06738826       0.02218139      -0.06477192
Pt       2.80721392       1.62074571      22.29208057        2       0.06309753       0.08650086      -0.00417618
Pt       5.61442784       1.62074571      22.29208057        2      -0.11647635       0.08063304       0.02495621
Pt       1.40360696       4.05186428      22.29208057        2       0.14209765       0.01201586       0.03078732
Pt       4.21082088       4.05186428      22.29208057        2      -0.06892979      -0.01447597       0.03638000
Pt       7.01803480       4.05186428      22.29208057        2      -0.04172171      -0.01799984      -0.03812236
Pt       2.80721392       6.48298285      22.29208057        2       0.02805852      -0.19790028       0.05175298
Pt       5.61442784       6.48298285      22.29208057        2      -0.03285344      -0.05591735      -0.03371855
Pt       8.42164176       6.48298285      22.29208057        2       0.02190300      -0.00277537      -0.05837023
Pt       0.01674962       0.00104153      24.57114068        1       0.00851064       0.00325057      -0.00351477
Pt       2.81633263      -0.02455990      24.56952093        1      -0.00724969      -0.00305789      -0.00144601
Pt       5.62717215      -0.00788924      24.55989941        1      -0.01687240       0.02246858       0.00330570
Pt       1.42121851       2.41326233      24.60469581        1       0.01747883       0.00798528       0.00362170
Pt       4.24454517       2.39500148      24.62028305        1      -0.00649103       0.01144816       0.01262717
Pt       7.04688289       2.41630695      24.57077839        1       0.00826032      -0.00150085      -0.00210512
Pt       2.80378638       4.89106382      24.62962602        1       0.00048767      -0.00440194       0.02443513
Pt       5.63066019       4.84403138      24.60377349        1      -0.01337500      -0.00945506       0.00150073
Pt       8.42552343       4.85334333      24.56933615        1      -0.00602726      -0.01067559      -0.00237186
N        3.51435859       3.62552456      26.89483457        0      -0.01430198       0.02197170      -0.01396823
H        2.98742839       2.90132061      26.35178264        0      -0.03075723      -0.01328718      -0.01944429
H        3.01737206       4.48623184      26.58755432        0      -0.02299031       0.04021992      -0.00393645
H        4.40479733       3.71963357      26.35085333        0       0.02651840       0.01832845      -0.01679829
