31
Lattice="8.421641763931781 0.0 0.0 4.2108208819658905 7.293355709136913 0.0 0.0 0.0 44.584161137365626" Properties=species:S:1:pos:R:3:tags:I:1:forces:R:3 energy=-172.76148986816406 free_energy=-172.76148986816406 stress="0.010398836806416512 8.0918449384626e-05 6.975862197577953e-05 8.0918449384626e-05 0.010346855968236923 -0.00012505004997365177 6.975862197577953e-05 -0.00012505004997365177 3.0790670280111954e-05" pbc="T T T"
Pt       1.40360696       0.81037286      20.00000000        3      -0.00233194       0.00270124       0.00238001
Pt       4.21082088       0.81037286      20.00000000        3      -0.00037505       0.00380566       0.00172386
Pt       7.01803480       0.81037286      20.00000000        3      -0.00042863       0.00079400      -0.00353837
Pt       2.80721392       3.24149143      20.00000000        3       0.00110875       0.00289404       0.03659847
Pt       5.61442784       3.24149143      20.00000000        3      -0.00085863      -0.00218571       0.01590520
Pt       8.42164176       3.24149143      20.00000000        3       0.00056084      -0.00220352       0.00321725
Pt       4.21082088       5.67261000      20.00000000        3      -0.00322855       0.00077487       0.01941031
Pt       7.01803480       5.67261000      20.00000000        3      -0.00288303      -0.00069190      -0.00485626
Pt       9.82524872       5.67261000      20.00000000        3       0.00290448      -0.00062388       0.00399858
Pt      -0.00000000       1.62074571      22.29208057        2       0.06587068       0.01850981      -0.05669665
Pt       2.80721392       1.62074571      22.29208057        2       0.05972484       0.07665227      -0.01966755
Pt       5.61442784       1.62074571      22.29208057        2      -0.10449710       0.07611725       0.01836506
Pt       1.40360696       4.05186428      22.29208057        2       0.13662684       0.01731418       0.02739577
Pt       4.21082088       4.05186428      22.29208057        2      -0.07248605      -0.00916120       0.02686974
Pt       7.01803480       4.05186428      22.29208057        2      -0.03737105      -0.02237717      -0.04281939
Pt       2.80721392       6.48298285      22.29208057        2       0.02944020      -0.19374023       0.06492722
Pt       5.61442784       6.48298285      22.29208057        2      -0.03788961      -0.05532862      -0.03392173
Pt       8.42164176       6.48298285      22.29208057        2       0.02046374      -0.00894253      -0.05894257
Pt       0.02062660       0.00201104      24.57390703        1      -0.01588060       0.00024379      -0.02148630
Pt       2.81366838      -0.03069427      24.57063983        1      -0.00461261      -0.00566555      -0.00686926
Pt       5.62232448      -0.00607407      24.55895328        1       0.01372502       0.00371624       0.00541623
Pt       1.43157503       2.41441514      24.60179939        1      -0.04128547      -0.00646298       0.00962442
Pt       4.24443435       2.38958363      24.61622974        1       0.01147804       0.01140277       0.00466262
Pt       7.05028144       2.41553467      24.57289289        1       0.01375644      -0.01776293      -0.01404534
Pt       2.79893514       4.89399460      24.62803633        1       0.00349632       0.02343252      -0.01594752
Pt       5.62486436       4.83508816      24.60072245        1       0.00157340       0.02197172       0.01102190
Pt       8.42146786       4.84999663      24.57091285        1       0.00341210      -0.00233338      -0.01212697
N        3.50492406       3.62806816      26.87165649        0      -0.01614925       0.02754984       0.02697551
H        4.39917112       3.72122860      26.33079367        0      -0.02667119       0.00907668      -0.00592074
H        2.97263189       2.90626559      26.32759828        0       0.00280457       0.02540028       0.00020692
H        3.01073016       4.49370846      26.56867254        0       0.00000252       0.00512241       0.01813945
