31
Lattice="8.421641763931781 0.0 0.0 4.2108208819658905 7.293355709136913 0.0 0.0 0.0 44.584161137365626" Properties=species:S:1:pos:R:3:tags:I:1:forces:R:3 energy=-172.8047332763672 free_energy=-172.8047332763672 stress="0.010281406342983246 2.4622603955748446e-09 3.700192374722633e-10 2.4622603955748446e-09 0.01028144545853138 1.09006030868386e-08 3.700192374722633e-10 1.09006030868386e-08 -4.790766251971945e-05" pbc="T T T"
Pt       1.40360696       0.81037286      20.00000000        3      -0.00149316       0.00066817      -0.01031521
Pt       4.21082088       0.81037286      20.00000000        3       0.00020825       0.00324112      -0.00451538
Pt       7.01803480       0.81037286      20.00000000        3       0.00132536       0.00095648      -0.01031575
Pt       2.80721392       3.24149143      20.00000000        3       0.00074885       0.00003547       0.01848751
Pt       5.61442784       3.24149143      20.00000000        3      -0.00040684       0.00062973       0.01848790
Pt       8.42164176       3.24149143      20.00000000        3       0.00016745      -0.00162902      -0.01031646
Pt       4.21082088       5.67261000      20.00000000        3      -0.00034068      -0.00066410       0.01848796
Pt       7.01803480       5.67261000      20.00000000        3      -0.00291337      -0.00143968      -0.00451696
Pt       9.82524872       5.67261000      20.00000000        3       0.00270340      -0.00179766      -0.00451681
Pt      -0.00000000       1.62074571      22.29208057        2       0.00000194       0.00000040      -0.11633441
Pt       2.80721392       1.62074571      22.29208057        2       0.12137917       0.09936783      -0.00061699
Pt       5.61442784       1.62074571      22.29208057        2      -0.11675157       0.09306674       0.00277375
Pt       1.40360696       4.05186428      22.29208057        2       0.13897325       0.05457449       0.00277633
Pt       4.21082088       4.05186428      22.29208057        2       0.00000171      -0.00000097       0.08543958
Pt       7.01803480       4.05186428      22.29208057        2      -0.14674748       0.05543151      -0.00061366
Pt       2.80721392       6.48298285      22.29208057        2       0.02536832      -0.15480179      -0.00062004
Pt       5.61442784       6.48298285      22.29208057        2      -0.02222132      -0.14764081       0.00277381
Pt       8.42164176       6.48298285      22.29208057        2      -0.00000183       0.00000089      -0.07490408
Pt      -0.00009307       0.00953442      24.56699960        1       0.00314896       0.00679985       0.01099613
Pt       2.81022598       0.00561946      24.55893633        1       0.00082033      -0.02669497       0.02316068
Pt       5.61778854      -0.00541859      24.55893568        1      -0.02352350       0.01263481       0.02317138
Pt       1.39539662       2.42626975      24.56700102        1      -0.00746387      -0.00067070       0.01098683
Pt       4.21761123       2.41007641      24.61569349        1      -0.01996055       0.00553581       0.00412241
Pt       7.02633912       2.42643151      24.56700049        1       0.00431391      -0.00612492       0.01098645
Pt       2.78559675       4.86687772      24.61569316        1       0.01477204       0.01451783       0.00411948
Pt       5.62925517       4.87863781      24.61569440        1       0.00519019      -0.02005260       0.00412267
Pt       8.41526952       4.86203534      24.55893686        1       0.02269891       0.01405621       0.02316229
N        4.21082023       4.05186502      26.95925283        0       0.00000078      -0.00008024       0.01782033
H        5.06327121       4.46869612      26.53934862        0       0.00420991       0.01341732      -0.01477471
H        4.14558260       3.10520361      26.53934664        0       0.00951301      -0.01028055      -0.01474138
H        3.42360844       4.58169211      26.53934691        0      -0.01372191      -0.00305653      -0.01477360
