31
Lattice="8.421641763931781 0.0 0.0 4.2108208819658905 7.293355709136913 0.0 0.0 0.0 44.584161137365626" Properties=species:S:1:pos:R:3:tags:I:1:forces:R:3 energy=-173.7161865234375 free_energy=-173.7161865234375 stress="0.010666688904166222 1.189979115245876e-09 5.166665761890954e-09 1.189979115245876e-09 0.01066673081368208 2.50171083848727e-09 5.166665761890954e-09 2.50171083848727e-09 -1.7659153854765464e-06" pbc="T T T"
Pt       1.40360696       0.81037286      20.00000000        3      -0.00303881      -0.00098564      -0.00628367
Pt       4.21082088       0.81037286      20.00000000        3       0.00054096       0.00469182       0.01202121
Pt       7.01803480       0.81037286      20.00000000        3       0.00236944      -0.00214286      -0.00628477
Pt       2.80721392       3.24149143      20.00000000        3       0.00379557      -0.00281427       0.01202098
Pt       5.61442784       3.24149143      20.00000000        3      -0.00433617      -0.00187956       0.01202080
Pt       8.42164176       3.24149143      20.00000000        3       0.00067368      -0.00618670      -0.00957581
Pt       4.21082088       5.67261000      20.00000000        3       0.00067033       0.00312560      -0.00628382
Pt       7.01803480       5.67261000      20.00000000        3      -0.00569637       0.00251377      -0.00957501
Pt       9.82524872       5.67261000      20.00000000        3       0.00502108       0.00367820      -0.00957522
Pt      -0.00000000       1.62074571      22.29208057        2       0.00846361       0.00598844      -0.00397671
Pt       2.80721392       1.62074571      22.29208057        2       0.06540259       0.04311108      -0.02903167
Pt       5.61442784       1.62074571      22.29208057        2      -0.07003724       0.03508652      -0.02902964
Pt       1.40360696       4.05186428      22.29208057        2       0.05128390      -0.03667186       0.02847342
Pt       4.21082088       4.05186428      22.29208057        2       0.00463577      -0.07819595      -0.02902834
Pt       7.01803480       4.05186428      22.29208057        2      -0.05740220      -0.02607515       0.02847588
Pt       2.80721392       6.48298285      22.29208057        2      -0.00941611       0.00433337      -0.00397991
Pt       5.61442784       6.48298285      22.29208057        2       0.00095387      -0.01032274      -0.00398113
Pt       8.42164176       6.48298285      22.29208057        2       0.00611949       0.06274857       0.02846954
Pt       0.00000110      -0.00000006      24.58900239        1      -0.00000117       0.00000186      -0.00093949
Pt       2.80009184      -0.00947759      24.59462614        1       0.00212315      -0.00501188       0.01185346
Pt       5.61888351      -0.00565594      24.60592524        1      -0.01109172       0.01446161      -0.00246724
Pt       1.39648142       2.43008877      24.60592620        1       0.01806661       0.00237100      -0.00247438
Pt       4.21081970       2.43111780      24.65974649        1       0.00000027      -0.00000011       0.03704253
Pt       7.02980392       2.42968887      24.59462684        1       0.00327650       0.00434500       0.01184437
Pt       2.80256862       4.87314470      24.59462703        1      -0.00540183       0.00066626       0.01184520
Pt       5.61709887       4.86892362      24.60592576        1      -0.00697625      -0.01683928      -0.00247601
Pt       8.42164280       4.86223744      24.58874972        1      -0.00000685      -0.00000076      -0.00018516
N        4.21081776       2.43111708      26.72996836        0       0.00007632       0.00001942      -0.04323763
H        4.70002886       3.27189408      27.04813272        0      -0.00224586      -0.00621785       0.00143766
H        4.69434826       1.58706239      27.04813562        0      -0.00425307       0.00504063       0.00143549
H        3.23808264       2.43439824      27.04813903        0       0.00643045       0.00116126       0.00144473
