31
Lattice="8.421641763931781 0.0 0.0 4.2108208819658905 7.293355709136913 0.0 0.0 0.0 44.584161137365626" Properties=species:S:1:pos:R:3:tags:I:1:forces:R:3 energy=-172.64501953125 free_energy=-172.64501953125 stress="0.010480821132659912 -8.84189610417252e-10 -1.0576836073639129e-09 -8.84189610417252e-10 0.010480827651917934 6.148849207576745e-10 -1.0576836073639129e-09 6.148849207576745e-10 5.021963715989841e-06" pbc="T T T"
Pt       1.40360696       0.81037286      20.00000000        3      -0.00206383       0.00118942      -0.00083444
Pt       4.21082088       0.81037286      20.00000000        3       0.00000179       0.00430229       0.00125593
Pt       7.01803480       0.81037286      20.00000000        3       0.00206190       0.00118957      -0.00083447
Pt       2.80721392       3.24149143      20.00000000        3       0.00083029       0.00047814       0.03291145
Pt       5.61442784       3.24149143      20.00000000        3      -0.00083075       0.00047838       0.03291228
Pt       8.42164176       3.24149143      20.00000000        3       0.00000098      -0.00238368      -0.00083640
Pt       4.21082088       5.67261000      20.00000000        3       0.00000186      -0.00095563       0.03291360
Pt       7.01803480       5.67261000      20.00000000        3      -0.00372951      -0.00214980       0.00125384
Pt       9.82524872       5.67261000      20.00000000        3       0.00372594      -0.00214922       0.00125459
Pt      -0.00000000       1.62074571      22.29208057        2       0.00000115      -0.00000216      -0.05686238
Pt       2.80721392       1.62074571      22.29208057        2       0.08613643       0.09567051      -0.01345662
Pt       5.61442784       1.62074571      22.29208057        2      -0.08613668       0.09567077      -0.01345775
Pt       1.40360696       4.05186428      22.29208057        2       0.12592393       0.02675849      -0.01345598
Pt       4.21082088       4.05186428      22.29208057        2       0.00000184      -0.00000005       0.03622701
Pt       7.01803480       4.05186428      22.29208057        2      -0.12592569       0.02675862      -0.01345627
Pt       2.80721392       6.48298285      22.29208057        2       0.03978830      -0.12243032      -0.01345658
Pt       5.61442784       6.48298285      22.29208057        2      -0.03978938      -0.12242952      -0.01345827
Pt       8.42164176       6.48298285      22.29208057        2       0.00000130       0.00000359      -0.08502199
Pt       0.00000026       0.00255803      24.58008558        1      -0.00000040       0.02804037       0.00056827
Pt       2.80869369      -0.00085440      24.55778889        1       0.00109412      -0.00062939       0.03598833
Pt       5.61294799      -0.00085459      24.55778812        1      -0.00109280      -0.00063126       0.03598885
Pt       1.40139161       2.42983919      24.58008566        1      -0.02428324      -0.01402024       0.00056976
Pt       4.21082112       2.40505235      24.63193114        1      -0.00000289       0.03446396      -0.01021406
Pt       7.02024989       2.42983941      24.58008607        1       0.02428527      -0.01402147       0.00056916
Pt       2.78463994       4.87527029      24.63193102        1       0.02984820      -0.01723330      -0.01021312
Pt       5.63700178       4.87527031      24.63193100        1      -0.02984916      -0.01723189      -0.01021291
Pt       8.42164152       4.86394568      24.55778917        1       0.00000150       0.00126336       0.03598996
N        4.21082066       4.05186429      26.87787123        0       0.00000160      -0.00000147       0.01676914
H        3.41472801       3.59223944      26.36492455        0       0.01374457       0.00793869      -0.00313434
H        4.21082106       4.97111317      26.36492525        0      -0.00000247      -0.01587242      -0.00313437
H        5.00691347       3.59223972      26.36492519        0      -0.01374421       0.00793535      -0.00313219
