31
Lattice="8.421641763931781 0.0 0.0 4.2108208819658905 7.293355709136913 0.0 0.0 0.0 44.584161137365626" Properties=species:S:1:pos:R:3:tags:I:1:forces:R:3 energy=-172.575439453125 free_energy=-172.575439453125 stress="0.010545418597757816 4.346155401435681e-05 7.295375326066278e-06 4.346155401435681e-05 0.010495013557374477 -1.0558548638073262e-05 7.295375326066278e-06 -1.0558548638073262e-05 -0.00012014393723802641" pbc="T T T"
Pt       1.40360696       0.81037286      20.00000000        3      -0.00102870       0.00054216      -0.00410876
Pt       4.21082088       0.81037286      20.00000000        3       0.00022556       0.00059650      -0.00393769
Pt       7.01803480       0.81037286      20.00000000        3       0.00065662       0.00040991      -0.00524157
Pt       2.80721392       3.24149143      20.00000000        3       0.00034369       0.00083842       0.00689605
Pt       5.61442784       3.24149143      20.00000000        3       0.00007241      -0.00056730       0.00005803
Pt       8.42164176       3.24149143      20.00000000        3      -0.00017133      -0.00118138      -0.00392881
Pt       4.21082088       5.67261000      20.00000000        3      -0.00103191      -0.00011560       0.00243405
Pt       7.01803480       5.67261000      20.00000000        3      -0.00030372      -0.00019605      -0.00613073
Pt       9.82524872       5.67261000      20.00000000        3       0.00118023      -0.00032103      -0.00139108
Pt      -0.00000000       1.62074571      22.29208057        2       0.00998553       0.00578714      -0.04594845
Pt       2.80721392       1.62074571      22.29208057        2       0.02262410       0.03895488       0.01556559
Pt       5.61442784       1.62074571      22.29208057        2      -0.03272692       0.02661963      -0.00911091
Pt       1.40360696       4.05186428      22.29208057        2       0.05502370       0.00939308       0.02674880
Pt       4.21082088       4.05186428      22.29208057        2      -0.03570011      -0.00426347       0.04390778
Pt       7.01803480       4.05186428      22.29208057        2      -0.01808079      -0.00805266      -0.02391821
Pt       2.80721392       6.48298285      22.29208057        2       0.00659515      -0.05766477       0.00318412
Pt       5.61442784       6.48298285      22.29208057        2      -0.01989007      -0.01516795      -0.02192828
Pt       8.42164176       6.48298285      22.29208057        2       0.01259542       0.00259258      -0.02985746
Pt       0.00109305       0.00568918      24.57886104        1       0.00254097      -0.00973641      -0.00327420
Pt       2.80633186      -0.00606536      24.57851453        1      -0.00249425       0.00638139      -0.00741127
Pt       5.61413542       0.00059436      24.57622510        1       0.00028413      -0.00024179      -0.00779498
Pt       1.39599175       2.42585537      24.58337341        1       0.02987010       0.01623514       0.00005077
Pt       4.21841384       2.41883802      24.58785885        1      -0.00745237       0.01322882       0.00253517
Pt       7.02402091       2.42867212      24.57873361        1      -0.00333754       0.00548259      -0.00410062
Pt       2.80000029       4.87573135      24.59781690        1       0.00563046      -0.01048935       0.02197286
Pt       5.62214953       4.86598238      24.58331956        1      -0.02801384      -0.01777190      -0.00193687
Pt       8.41642652       4.86389892      24.57862998        1       0.00835428      -0.00810960      -0.00653481
N        3.50871434       3.64700568      27.58833513        0      -0.01067545       0.01773395      -0.00558960
H        3.03379780       2.82696890      27.20167759        0       0.01777803       0.01479873       0.03817979
H        3.03611740       4.46571590      27.19136909        0       0.00979203      -0.01665123      -0.00838097
H        4.45647468       3.64812649      27.20180038        0      -0.02264526      -0.00906444       0.03899206
