31
Lattice="8.421641763931781 0.0 0.0 4.2108208819658905 7.293355709136913 0.0 0.0 0.0 44.584161137365626" Properties=species:S:1:pos:R:3:tags:I:1:forces:R:3 energy=-172.5946807861328 free_energy=-172.5946807861328 stress="0.010531816631555557 3.839355944279532e-09 7.692863013275542e-10 3.839355944279532e-09 0.010531818494200706 -3.4322005237896747e-09 7.692863013275542e-10 -3.4322005237896747e-09 -0.00010164002742385492" pbc="T T T"
Pt       1.40360696       0.81037286      20.00000000        3      -0.00046381       0.00026540      -0.00699070
Pt       4.21082088       0.81037286      20.00000000        3       0.00000176       0.00081172      -0.00487277
Pt       7.01803480       0.81037286      20.00000000        3       0.00046218       0.00026586      -0.00699028
Pt       2.80721392       3.24149143      20.00000000        3       0.00043708       0.00025088      -0.00006649
Pt       5.61442784       3.24149143      20.00000000        3      -0.00043732       0.00025146      -0.00006589
Pt       8.42164176       3.24149143      20.00000000        3       0.00000113      -0.00053625      -0.00699276
Pt       4.21082088       5.67261000      20.00000000        3       0.00000246      -0.00050160      -0.00006497
Pt       7.01803480       5.67261000      20.00000000        3      -0.00070598      -0.00040426      -0.00487652
Pt       9.82524872       5.67261000      20.00000000        3       0.00070310      -0.00040350      -0.00487515
Pt      -0.00000000       1.62074571      22.29208057        2       0.00000100      -0.00000355      -0.05402403
Pt       2.80721392       1.62074571      22.29208057        2       0.02141180       0.02138767      -0.00027870
Pt       5.61442784       1.62074571      22.29208057        2      -0.02141208       0.02138570      -0.00027600
Pt       1.40360696       4.05186428      22.29208057        2       0.02923093       0.00784654      -0.00027858
Pt       4.21082088       4.05186428      22.29208057        2       0.00000141      -0.00000006       0.04413873
Pt       7.01803480       4.05186428      22.29208057        2      -0.02923301       0.00784686      -0.00027620
Pt       2.80721392       6.48298285      22.29208057        2       0.00781871      -0.02923343      -0.00027621
Pt       5.61442784       6.48298285      22.29208057        2      -0.00782095      -0.02923524      -0.00027828
Pt       8.42164176       6.48298285      22.29208057        2       0.00000266       0.00000471      -0.03138428
Pt       0.00000062       0.00768651      24.57860586        1      -0.00000150      -0.03944557       0.01256359
Pt       2.80961388      -0.00138545      24.57829564        1      -0.01536525       0.00886755       0.00745401
Pt       5.61202817      -0.00138648      24.57829603        1       0.01536594       0.00887433       0.00744310
Pt       1.39695016       2.42727446      24.57860591        1       0.03415943       0.01972258       0.01256436
Pt       4.21082111       2.42801292      24.59073962        1       0.00000099      -0.02196076       0.00538735
Pt       7.02469183       2.42727478      24.57860634        1      -0.03416183       0.01972230       0.01256576
Pt       2.80452441       4.86378968      24.59073974        1      -0.01901453       0.01098043       0.00538762
Pt       5.61711687       4.86378966      24.59073966        1       0.01902099       0.01098053       0.00538582
Pt       8.42164183       4.86500732      24.57829536        1      -0.00000560      -0.01774057       0.00745511
N        4.21082100       4.05186413      27.96140017        0       0.00000218       0.00001214       0.02144012
H        3.39698863       3.58199862      27.56271117        0      -0.02239771      -0.01293835      -0.00630796
H        4.21082137       4.99159577      27.56270954        0      -0.00000483       0.02587222      -0.00630235
H        5.02465319       3.58199920      27.56271040        0       0.02240063      -0.01294572      -0.00630709
