31
Lattice="8.421641763931781 0.0 0.0 4.2108208819658905 7.293355709136913 0.0 0.0 0.0 44.584161137365626" Properties=species:S:1:pos:R:3:tags:I:1:forces:R:3 energy=-172.57920837402344 free_energy=-172.57920837402344 stress="0.010523708537220955 4.322591848904267e-05 -5.4273605201160535e-05 4.322591848904267e-05 0.010473797097802162 -3.133904465357773e-05 -5.4273605201160535e-05 -3.133904465357773e-05 -0.00013972249871585518" pbc="T T T"
Pt       1.40360696       0.81037286      20.00000000        3      -0.00029405       0.00084144      -0.00784865
Pt       4.21082088       0.81037286      20.00000000        3      -0.00003986       0.00199965      -0.00325698
Pt       7.01803480       0.81037286      20.00000000        3       0.00087710       0.00050607      -0.00977796
Pt       2.80721392       3.24149143      20.00000000        3       0.00241859       0.00139531       0.01129669
Pt       5.61442784       3.24149143      20.00000000        3      -0.00144922      -0.00047964       0.00436401
Pt       8.42164176       3.24149143      20.00000000        3       0.00058506      -0.00067730      -0.00785100
Pt       4.21082088       5.67261000      20.00000000        3      -0.00113629      -0.00101265       0.00436416
Pt       7.01803480       5.67261000      20.00000000        3      -0.00098566      -0.00056554      -0.00677192
Pt       9.82524872       5.67261000      20.00000000        3       0.00171046      -0.00103420      -0.00325939
Pt      -0.00000000       1.62074571      22.29208057        2       0.01191293       0.00687421      -0.04703927
Pt       2.80721392       1.62074571      22.29208057        2       0.04503818       0.05127162       0.01217823
Pt       5.61442784       1.62074571      22.29208057        2      -0.05828370       0.04750986      -0.00507087
Pt       1.40360696       4.05186428      22.29208057        2       0.06692447       0.01336642       0.01217824
Pt       4.21082088       4.05186428      22.29208057        2      -0.03911720      -0.02258557       0.05191287
Pt       7.01803480       4.05186428      22.29208057        2      -0.04463366      -0.00174809      -0.02778329
Pt       2.80721392       6.48298285      22.29208057        2       0.01200695      -0.07422705      -0.00507115
Pt       5.61442784       6.48298285      22.29208057        2      -0.02383095      -0.03777553      -0.02778549
Pt       8.42164176       6.48298285      22.29208057        2       0.00456671       0.00263944      -0.04578910
Pt       0.00166865       0.00293657      24.57342350        1      -0.00923151       0.01790241       0.01954955
Pt       2.80116409      -0.00963571      24.57148307        1       0.00189343      -0.01141684       0.02709800
Pt       5.61487514       0.00025810      24.56720349        1      -0.00664833      -0.00383537       0.03755268
Pt       1.40299493       2.43076508      24.57805186        1      -0.03717713      -0.02146644       0.01029059
Pt       4.21240297       2.41301635      24.60530413        1       0.00087883      -0.00114758      -0.03416479
Pt       7.02141216       2.43109476      24.57342337        1       0.01088589      -0.01694550       0.01954997
Pt       2.79232772       4.87265861      24.60530501        1      -0.00055127       0.00133250      -0.03416389
Pt       5.60235165       4.85526481      24.58929087        1       0.03500003       0.02020700      -0.01082548
Pt       8.41027255       4.86181557      24.57148332        1      -0.00894511       0.00734811       0.02709863
N        3.50891444       3.64661821      27.60063686        0      -0.00154646      -0.00086413       0.01747316
H        2.70385484       4.12919023      27.19143469        0       0.02262765       0.00545888      -0.00895754
H        4.34316071       4.12827108      27.25580414        0       0.00049727       0.00028110       0.03947975
H        3.52430377       2.70813044      27.19143467        0       0.01604695       0.01684724      -0.00896949
