31
Lattice="8.421641763931781 0.0 0.0 4.2108208819658905 7.293355709136913 0.0 0.0 0.0 44.584161137365626" Properties=species:S:1:pos:R:3:tags:I:1:forces:R:3 energy=-172.6457061767578 free_energy=-172.6457061767578 stress="0.010564290918409824 9.502731046495683e-09 6.251022366399184e-09 9.502731046495683e-09 0.01056431233882904 -3.5423899369391165e-09 6.251022366399184e-09 -3.5423899369391165e-09 0.0001294986723223701" pbc="T T T"
Pt       1.40360696       0.81037286      20.00000000        3      -0.00160647       0.00092521       0.00035611
Pt       4.21082088       0.81037286      20.00000000        3       0.00000207       0.00393014       0.00387213
Pt       7.01803480       0.81037286      20.00000000        3       0.00160462       0.00092538       0.00035617
Pt       2.80721392       3.24149143      20.00000000        3       0.00078962       0.00045479       0.03163391
Pt       5.61442784       3.24149143      20.00000000        3      -0.00079008       0.00045486       0.03163373
Pt       8.42164176       3.24149143      20.00000000        3       0.00000084      -0.00185529       0.00035533
Pt       4.21082088       5.67261000      20.00000000        3       0.00000242      -0.00090876       0.03163433
Pt       7.01803480       5.67261000      20.00000000        3      -0.00340682      -0.00196364       0.00387046
Pt       9.82524872       5.67261000      20.00000000        3       0.00340376      -0.00196291       0.00387084
Pt      -0.00000000       1.62074571      22.29208057        2       0.00000162      -0.00000057      -0.05205632
Pt       2.80721392       1.62074571      22.29208057        2       0.08638952       0.08268790       0.00364276
Pt       5.61442784       1.62074571      22.29208057        2      -0.08639061       0.08268826       0.00364251
Pt       1.40360696       4.05186428      22.29208057        2       0.11480713       0.03346899       0.00364269
Pt       4.21082088       4.05186428      22.29208057        2       0.00000143      -0.00000077       0.03506942
Pt       7.01803480       4.05186428      22.29208057        2      -0.11480913       0.03346936       0.00364274
Pt       2.80721392       6.48298285      22.29208057        2       0.02841630      -0.11615878       0.00364088
Pt       5.61442784       6.48298285      22.29208057        2      -0.02841727      -0.11615872       0.00364064
Pt       8.42164176       6.48298285      22.29208057        2       0.00000084       0.00000365      -0.05437926
Pt       0.00000017       0.00400326      24.58141965        1       0.00000205       0.01598207      -0.00493863
Pt       2.80977501      -0.00147859      24.56614488        1      -0.00538394       0.00310778      -0.00713775
Pt       5.61186694      -0.00147882      24.56614435        1       0.00538084       0.00310932      -0.00713840
Pt       1.40013996       2.42911656      24.58142042        1      -0.01383911      -0.00799054      -0.00494662
Pt       4.21082091       2.40793842      24.63180225        1       0.00000042       0.01428597      -0.00863883
Pt       7.02150185       2.42911643      24.58142040        1       0.01383810      -0.00799092      -0.00494714
Pt       2.78713916       4.87382737      24.63180221        1       0.01237463      -0.00714592      -0.00863643
Pt       5.63450254       4.87382695      24.63180211        1      -0.01237315      -0.00714275      -0.00863931
Pt       8.42164179       4.86519408      24.56614560        1       0.00000102      -0.00621407      -0.00713503
N        4.21082124       4.05186414      26.88131985        0      -0.00003210       0.00001656       0.03624411
H        5.00633501       3.59257424      26.36859494        0       0.00276192      -0.00159641      -0.01072916
H        3.41530625       3.59257315      26.36859524        0      -0.00272415      -0.00156751      -0.01071274
H        4.21082163       4.97044570      26.36859525        0      -0.00000627       0.00314726      -0.01071349
