31
Lattice="8.421641763931781 0.0 0.0 4.2108208819658905 7.293355709136913 0.0 0.0 0.0 44.584161137365626" Properties=species:S:1:pos:R:3:tags:I:1:forces:R:3 energy=-172.80886840820312 free_energy=-172.80886840820312 stress="0.010305307805538177 -2.1856332750758156e-05 4.3056022036580543e-07 -2.1856332750758156e-05 0.01033052708953619 2.420517546397605e-07 4.3056022036580543e-07 2.420517546397605e-07 8.422956852882635e-06" pbc="T T T"
Pt       1.40360696       0.81037286      20.00000000        3      -0.00152299       0.00026196      -0.00968173
Pt       4.21082088       0.81037286      20.00000000        3       0.00041590       0.00381923      -0.00013155
Pt       7.01803480       0.81037286      20.00000000        3       0.00130152       0.00075089      -0.00881431
Pt       2.80721392       3.24149143      20.00000000        3       0.00160392       0.00092509       0.02362126
Pt       5.61442784       3.24149143      20.00000000        3      -0.00092886      -0.00141587       0.01716751
Pt       8.42164176       3.24149143      20.00000000        3      -0.00053117      -0.00145169      -0.00968373
Pt       4.21082088       5.67261000      20.00000000        3      -0.00168754      -0.00009362       0.01716778
Pt       7.01803480       5.67261000      20.00000000        3      -0.00174784      -0.00100578      -0.00765008
Pt       9.82524872       5.67261000      20.00000000        3       0.00351436      -0.00154957      -0.00013259
Pt      -0.00000000       1.62074571      22.29208057        2      -0.00348463      -0.00201514      -0.11545074
Pt       2.80721392       1.62074571      22.29208057        2       0.13441999       0.09835598       0.01990511
Pt       5.61442784       1.62074571      22.29208057        2      -0.14300469       0.09631613       0.02985748
Pt       1.40360696       4.05186428      22.29208057        2       0.15238908       0.06723189       0.01990639
Pt       4.21082088       4.05186428      22.29208057        2      -0.03031396      -0.01750364       0.08498026
Pt       7.01803480       4.05186428      22.29208057        2      -0.10979529       0.02900709      -0.02290706
Pt       2.80721392       6.48298285      22.29208057        2       0.01191274      -0.17200227       0.02985556
Pt       5.61442784       6.48298285      22.29208057        2      -0.02977850      -0.10958555      -0.02291136
Pt       8.42164176       6.48298285      22.29208057        2       0.01390489       0.00802926      -0.06294229
Pt      -0.00093744       0.00744588      24.56870345        1       0.00197350      -0.00027261       0.00529613
Pt       2.80712786      -0.00447433      24.56366423        1       0.00398348       0.01117592       0.00247958
Pt       5.61551792       0.00062851      24.56180379        1      -0.01167417      -0.00673159       0.00301477
Pt       1.38956731       2.42301247      24.56554031        1      -0.00259688      -0.00150117       0.01330321
Pt       4.21241002       2.41065237      24.62482108        1      -0.00001352      -0.00106153      -0.00749566
Pt       7.02401506       2.42658395      24.56870306        1       0.00074465       0.00184254       0.00529668
Pt       2.79028426       4.87384602      24.62482067        1      -0.00092027       0.00051471      -0.00749036
Pt       5.63351357       4.87325604      24.60324927        1      -0.00105555      -0.00061040       0.01186743
Pt       8.41772443       4.86439969      24.56366542        1       0.01166391      -0.00214031       0.00247130
N        4.01639623       3.93961421      26.94624869        0      -0.02452887      -0.01412417       0.01649004
H        4.80774397       4.39649661      26.45243814        0       0.00707506       0.00410177      -0.02128047
H        3.98919285       2.97506658      26.56310961        0       0.01121563       0.00207521      -0.00305989
H        3.16747009       4.39832998      26.56311095        0       0.00746612       0.00865731      -0.00304854
