31
Lattice="8.421641763931781 0.0 0.0 4.2108208819658905 7.293355709136913 0.0 0.0 0.0 44.584161137365626" Properties=species:S:1:pos:R:3:tags:I:1:forces:R:3 energy=-172.79193115234375 free_energy=-172.79193115234375 stress="0.010310136713087559 -2.236439700098458e-09 4.026679822910495e-10 -2.236439700098458e-09 0.010310158133506775 5.436017858073683e-09 4.026679822910495e-10 5.436017858073683e-09 -5.318632611306384e-05" pbc="T T T"
Pt       1.40360696       0.81037286      20.00000000        3      -0.00082126       0.00125747      -0.00642678
Pt       4.21082088       0.81037286      20.00000000        3      -0.00026631       0.00262414      -0.00198001
Pt       7.01803480       0.81037286      20.00000000        3       0.00149962       0.00007955      -0.00642747
Pt       2.80721392       3.24149143      20.00000000        3      -0.00056680       0.00048037       0.01711461
Pt       5.61442784       3.24149143      20.00000000        3      -0.00013465      -0.00073274       0.01711509
Pt       8.42164176       3.24149143      20.00000000        3      -0.00067892      -0.00134176      -0.00642920
Pt       4.21082088       5.67261000      20.00000000        3       0.00070342       0.00025311       0.01711497
Pt       7.01803480       5.67261000      20.00000000        3      -0.00214196      -0.00154242      -0.00198174
Pt       9.82524872       5.67261000      20.00000000        3       0.00240666      -0.00107790      -0.00198099
Pt      -0.00000000       1.62074571      22.29208057        2       0.00000157      -0.00000188      -0.12336147
Pt       2.80721392       1.62074571      22.29208057        2       0.10594197       0.07568020       0.01753166
Pt       5.61442784       1.62074571      22.29208057        2      -0.11871868       0.08205965       0.00725972
Pt       1.40360696       4.05186428      22.29208057        2       0.13042444       0.06178210       0.00726263
Pt       4.21082088       4.05186428      22.29208057        2       0.00000149      -0.00000047       0.07267494
Pt       7.01803480       4.05186428      22.29208057        2      -0.11851384       0.05390819       0.01753516
Pt       2.80721392       6.48298285      22.29208057        2       0.01257170      -0.12958770       0.01753201
Pt       5.61442784       6.48298285      22.29208057        2      -0.01171071      -0.14384159       0.00725785
Pt       8.42164176       6.48298285      22.29208057        2       0.00000125       0.00000062      -0.04818602
Pt       0.00871818       0.01462096      24.57019387        1      -0.02185247      -0.03447435      -0.00114742
Pt       2.80319957      -0.01182722      24.56825688        1       0.01274811       0.02478031      -0.02905598
Pt       5.60619279       0.00938966      24.56825675        1       0.01508550      -0.02342706      -0.02905816
Pt       1.38658588       2.43135757      24.57019360        1       0.04078231      -0.00168641      -0.00114617
Pt       4.19253659       2.40891778      24.60961129        1       0.02603627      -0.01960768      -0.00391709
Pt       7.02633813       2.41625793      24.57019370        1      -0.01893165       0.03616216      -0.00114515
Pt       2.79712993       4.88917226      24.60961131        1      -0.02999705      -0.01274319      -0.00391626
Pt       5.64279649       4.85750291      24.60961106        1       0.00396196       0.03234877      -0.00391672
Pt       8.43389086       4.86467407      24.56825819        1      -0.02783293      -0.00135130      -0.02906668
N        4.21082124       4.05186496      26.91369049        0      -0.00001650      -0.00003996       0.03992817
H        3.53477696       4.71230481      26.47645091        0      -0.01104841      -0.03058243       0.02026865
H        5.12080074       4.30711430      26.47645057        0      -0.02095489       0.02487953       0.02026455
H        3.97688470       3.13617333      26.47645018        0       0.03202090       0.00574271       0.02028354
