31
Lattice="8.421641763931781 0.0 0.0 4.2108208819658905 7.293355709136913 0.0 0.0 0.0 44.584161137365626" Properties=species:S:1:pos:R:3:tags:I:1:forces:R:3 energy=-172.64517211914062 free_energy=-172.64517211914062 stress="0.010424397885799408 1.3744481941468933e-10 -6.577317579470332e-10 1.3744481941468933e-10 0.010424420237541199 -6.61409371716104e-09 -6.577317579470332e-10 -6.61409371716104e-09 -8.766054634179454e-06" pbc="T T T"
Pt       1.40360696       0.81037286      20.00000000        3      -0.00203224       0.00117104       0.00089693
Pt       4.21082088       0.81037286      20.00000000        3       0.00000175       0.00398839       0.00066859
Pt       7.01803480       0.81037286      20.00000000        3       0.00203023       0.00117102       0.00089660
Pt       2.80721392       3.24149143      20.00000000        3       0.00027445       0.00015722       0.02934319
Pt       5.61442784       3.24149143      20.00000000        3      -0.00027497       0.00015787       0.02934387
Pt       8.42164176       3.24149143      20.00000000        3       0.00000130      -0.00234701       0.00089473
Pt       4.21082088       5.67261000      20.00000000        3       0.00000238      -0.00031385       0.02934489
Pt       7.01803480       5.67261000      20.00000000        3      -0.00345752      -0.00199258       0.00066710
Pt       9.82524872       5.67261000      20.00000000        3       0.00345407      -0.00199209       0.00066760
Pt      -0.00000000       1.62074571      22.29208057        2       0.00000165      -0.00000278      -0.06579401
Pt       2.80721392       1.62074571      22.29208057        2       0.07618450       0.08602799      -0.01590564
Pt       5.61442784       1.62074571      22.29208057        2      -0.07618561       0.08602791      -0.01590578
Pt       1.40360696       4.05186428      22.29208057        2       0.11259820       0.02296426      -0.01590186
Pt       4.21082088       4.05186428      22.29208057        2       0.00000191       0.00000203       0.00991494
Pt       7.01803480       4.05186428      22.29208057        2      -0.11260040       0.02296378      -0.01590283
Pt       2.80721392       6.48298285      22.29208057        2       0.03641255      -0.10899322      -0.01590296
Pt       5.61442784       6.48298285      22.29208057        2      -0.03641384      -0.10899286      -0.01590362
Pt       8.42164176       6.48298285      22.29208057        2       0.00000156       0.00000264      -0.07842080
Pt       0.00000030       0.00666496      24.58204415        1      -0.00000031      -0.00462869      -0.00813241
Pt       2.80894241      -0.00099797      24.55968871        1       0.00141937      -0.00082132       0.02566676
Pt       5.61269942      -0.00099806      24.55968873        1      -0.00141947      -0.00082251       0.02566589
Pt       1.39783529       2.42778599      24.58204425        1       0.00400734       0.00231457      -0.00813161
Pt       4.21082093       2.40933265      24.62282273        1      -0.00000091       0.01740858       0.04150571
Pt       7.02380648       2.42778591      24.58204453        1      -0.00400652       0.00231443      -0.00813182
Pt       2.78834704       4.87312997      24.62282341        1       0.01507430      -0.00870308       0.04149713
Pt       5.63329485       4.87312986      24.62282280        1      -0.01507652      -0.00870280       0.04149717
Pt       8.42164178       4.86423268      24.55968941        1       0.00000276       0.00164065       0.02566813
N        4.21082074       4.05186376      26.88201483        0       0.00000479       0.00003261      -0.01737881
H        5.00512457       3.59327279      26.36754929        0       0.01715580      -0.00990816      -0.00758004
H        3.41651699       3.59327273      26.36754912        0      -0.01715875      -0.00990752      -0.00758299
H        4.21082092       4.96904753      26.36754956        0      -0.00000200       0.01978348      -0.00756380
