31
Lattice="8.421641763931781 0.0 0.0 4.2108208819658905 7.293355709136913 0.0 0.0 0.0 44.584161137365626" Properties=species:S:1:pos:R:3:tags:I:1:forces:R:3 energy=-172.59942626953125 free_energy=-172.59942626953125 stress="0.010525381192564964 -3.334893916573378e-09 3.1492446428416088e-09 -3.334893916573378e-09 0.010525405406951904 8.18395484714074e-09 3.1492446428416088e-09 8.18395484714074e-09 1.6121683756864513e-06" pbc="T T T"
Pt       1.40360696       0.81037286      20.00000000        3      -0.00089249       0.00051320      -0.00636777
Pt       4.21082088       0.81037286      20.00000000        3       0.00000187       0.00103781      -0.00327387
Pt       7.01803480       0.81037286      20.00000000        3       0.00089104       0.00051371      -0.00636780
Pt       2.80721392       3.24149143      20.00000000        3       0.00061479       0.00035372       0.00581139
Pt       5.61442784       3.24149143      20.00000000        3      -0.00061477       0.00035373       0.00581148
Pt       8.42164176       3.24149143      20.00000000        3       0.00000128      -0.00103113      -0.00636929
Pt       4.21082088       5.67261000      20.00000000        3       0.00000224      -0.00070659       0.00581211
Pt       7.01803480       5.67261000      20.00000000        3      -0.00090273      -0.00051774      -0.00327611
Pt       9.82524872       5.67261000      20.00000000        3       0.00089904      -0.00051704      -0.00327632
Pt      -0.00000000       1.62074571      22.29208057        2       0.00000113      -0.00000240      -0.05875523
Pt       2.80721392       1.62074571      22.29208057        2       0.03870314       0.04042641       0.00523415
Pt       5.61442784       1.62074571      22.29208057        2      -0.03870384       0.04042627       0.00523352
Pt       1.40360696       4.05186428      22.29208057        2       0.05436336       0.01330259       0.00523515
Pt       4.21082088       4.05186428      22.29208057        2       0.00000171      -0.00000024       0.06418584
Pt       7.01803480       4.05186428      22.29208057        2      -0.05436504       0.01330294       0.00523376
Pt       2.80721392       6.48298285      22.29208057        2       0.01566099      -0.05372856       0.00523313
Pt       5.61442784       6.48298285      22.29208057        2      -0.01566213      -0.05372874       0.00523205
Pt       8.42164176       6.48298285      22.29208057        2       0.00000110       0.00000317      -0.03006218
Pt       0.00000027       0.00735058      24.57767252        1      -0.00000131      -0.01971463      -0.00594887
Pt       2.80860778      -0.00080480      24.57666895        1      -0.00477707       0.00275977      -0.00865522
Pt       5.61303386      -0.00080477      24.57666891        1       0.00477798       0.00275848      -0.00865594
Pt       1.39724123       2.42744305      24.57767258        1       0.01707512       0.00985934      -0.00594857
Pt       4.21082093       2.41886753      24.59704363        1      -0.00000155       0.01958364       0.02003953
Pt       7.02440043       2.42744317      24.57767279        1      -0.01707377       0.00985772      -0.00594765
Pt       2.79660436       4.86836268      24.59704380        1       0.01695848      -0.00979355       0.02004065
Pt       5.62503742       4.86836269      24.59704363        1      -0.01695858      -0.00979304       0.02003956
Pt       8.42164175       4.86384683      24.57666924        1       0.00000053      -0.00551823      -0.00865415
N        4.21082098       4.05186455      27.59093170        0      -0.00001618      -0.00004006      -0.03130874
H        4.21082097       3.10653174      27.19264418        0      -0.00000018       0.02910534       0.00658600
H        3.39213936       4.52453044      27.19264420        0       0.02517983      -0.01453777       0.00657329
H        5.02950221       4.52453020      27.19264424        0      -0.02516390      -0.01452833       0.00656621
