31
Lattice="8.421641763931781 0.0 0.0 4.2108208819658905 7.293355709136913 0.0 0.0 0.0 44.584161137365626" Properties=species:S:1:pos:R:3:tags:I:1:forces:R:3 energy=-173.71035766601562 free_energy=-173.71035766601562 stress="0.010695296339690685 -1.9507023552023384e-08 1.0210621681494558e-08 -1.9507023552023384e-08 0.010695308446884155 3.139722037914794e-09 1.0210621681494558e-08 3.139722037914794e-09 3.0923949907446513e-06" pbc="T T T"
Pt       1.40360696       0.81037286      20.00000000        3      -0.00281393      -0.00162784      -0.00614440
Pt       4.21082088       0.81037286      20.00000000        3       0.00000157       0.00467822       0.01237360
Pt       7.01803480       0.81037286      20.00000000        3       0.00281183      -0.00162756      -0.00614449
Pt       2.80721392       3.24149143      20.00000000        3       0.00405441      -0.00234011       0.01237226
Pt       5.61442784       3.24149143      20.00000000        3      -0.00405486      -0.00234009       0.01237279
Pt       8.42164176       3.24149143      20.00000000        3       0.00000104      -0.00599199      -0.00957817
Pt       4.21082088       5.67261000      20.00000000        3       0.00000236       0.00325109      -0.00614488
Pt       7.01803480       5.67261000      20.00000000        3      -0.00519215       0.00299864      -0.00957853
Pt       9.82524872       5.67261000      20.00000000        3       0.00518931       0.00299875      -0.00957933
Pt      -0.00000000       1.62074571      22.29208057        2       0.00000214       0.00510767      -0.00151517
Pt       2.80721392       1.62074571      22.29208057        2       0.06926208       0.03998633      -0.02597914
Pt       5.61442784       1.62074571      22.29208057        2      -0.06926347       0.03998924      -0.02597973
Pt       1.40360696       4.05186428      22.29208057        2       0.05423316      -0.03131315       0.02822040
Pt       4.21082088       4.05186428      22.29208057        2       0.00000300      -0.07997894      -0.02598081
Pt       7.01803480       4.05186428      22.29208057        2      -0.05423469      -0.03131271       0.02822341
Pt       2.80721392       6.48298285      22.29208057        2      -0.00442209      -0.00255149      -0.00152109
Pt       5.61442784       6.48298285      22.29208057        2       0.00442433      -0.00255126      -0.00151941
Pt       8.42164176       6.48298285      22.29208057        2      -0.00000088       0.06262589       0.02822195
Pt       0.00000099       0.00000003      24.59012739        1      -0.00000034       0.00000118      -0.00374734
Pt       2.80236866      -0.00774504      24.60058724        1       0.00342281       0.00355646       0.00235625
Pt       5.61927428      -0.00774485      24.60058685        1      -0.00342403       0.00355846       0.00236404
Pt       1.39447730       2.43079511      24.60058724        1       0.00478867       0.00118051       0.00235745
Pt       4.21082012       2.43111829      24.66290721        1      -0.00000091       0.00000037       0.02312946
Pt       7.02716517       2.43079471      24.60058737        1      -0.00479195       0.00118447       0.00235607
Pt       2.80292987       4.87030645      24.60058677        1       0.00137420      -0.00474207       0.00236425
Pt       5.61871279       4.87030613      24.60058683        1      -0.00137075      -0.00474342       0.00236502
Pt       8.42164289       4.86223703      24.58918562        1      -0.00000808       0.00000210      -0.00197327
N        4.21081745       2.43111737      26.73258933        0       0.00012073       0.00002515      -0.02155966
H        5.05231730       1.94527902      27.05342436        0      -0.00957140       0.00552233      -0.00072341
H        3.36932266       1.94527936      27.05342862        0       0.00946097       0.00546183      -0.00069322
H        4.21081945       3.40279477      27.05342583        0      -0.00000309      -0.01100829      -0.00071520
