31
Lattice="8.421641763931781 0.0 0.0 4.2108208819658905 7.293355709136913 0.0 0.0 0.0 44.584161137365626" Properties=species:S:1:pos:R:3:tags:I:1:forces:R:3 energy=-173.71035766601562 free_energy=-173.71035766601562 stress="0.010695291683077812 -9.544888435186749e-09 1.204603083948541e-09 -9.544888435186749e-09 0.01069529727101326 -7.345969665895069e-11 1.204603083948541e-09 -7.345969665895069e-11 3.081918066527578e-06" pbc="T T T"
Pt       1.40360696       0.81037286      20.00000000        3      -0.00281343      -0.00162760      -0.00614411
Pt       4.21082088       0.81037286      20.00000000        3       0.00000123       0.00467895       0.01237491
Pt       7.01803480       0.81037286      20.00000000        3       0.00281250      -0.00162722      -0.00614458
Pt       2.80721392       3.24149143      20.00000000        3       0.00405436      -0.00234042       0.01237279
Pt       5.61442784       3.24149143      20.00000000        3      -0.00405581      -0.00234050       0.01237270
Pt       8.42164176       3.24149143      20.00000000        3       0.00000117      -0.00599268      -0.00958014
Pt       4.21082088       5.67261000      20.00000000        3       0.00000203       0.00325138      -0.00614452
Pt       7.01803480       5.67261000      20.00000000        3      -0.00519218       0.00299926      -0.00957939
Pt       9.82524872       5.67261000      20.00000000        3       0.00518924       0.00299904      -0.00957832
Pt      -0.00000000       1.62074571      22.29208057        2      -0.00000036       0.00510638      -0.00151957
Pt       2.80721392       1.62074571      22.29208057        2       0.06926706       0.03998654      -0.02597724
Pt       5.61442784       1.62074571      22.29208057        2      -0.06926641       0.03998692      -0.02597577
Pt       1.40360696       4.05186428      22.29208057        2       0.05423514      -0.03131012       0.02822149
Pt       4.21082088       4.05186428      22.29208057        2       0.00000039      -0.07997995      -0.02597717
Pt       7.01803480       4.05186428      22.29208057        2      -0.05423609      -0.03131276       0.02822429
Pt       2.80721392       6.48298285      22.29208057        2      -0.00442488      -0.00255312      -0.00151826
Pt       5.61442784       6.48298285      22.29208057        2       0.00442373      -0.00255191      -0.00151983
Pt       8.42164176       6.48298285      22.29208057        2       0.00000187       0.06262811       0.02822335
Pt       0.00000024       0.00000011      24.59012756        1       0.00000139      -0.00000195      -0.00374630
Pt       2.80236799      -0.00774572      24.60058689        1       0.00342639       0.00356123       0.00235665
Pt       5.61927396      -0.00774545      24.60058709        1      -0.00342742       0.00356190       0.00235647
Pt       1.39447630       2.43079468      24.60058669        1       0.00479739       0.00118196       0.00236660
Pt       4.21082018       2.43111851      24.66290772        1       0.00000144      -0.00000211       0.02310127
Pt       7.02716520       2.43079420      24.60058751        1      -0.00479969       0.00118721       0.00235648
Pt       2.80292928       4.87030650      24.60058715        1       0.00137544      -0.00474553       0.00235736
Pt       5.61871235       4.87030658      24.60058660        1      -0.00137090      -0.00474696       0.00236504
Pt       8.42164221       4.86223701      24.58918588        1      -0.00000554       0.00000307      -0.00197360
N        4.21082008       2.43111820      26.73258987        0       0.00004041       0.00000256      -0.02157533
H        4.21082075       3.40279520      27.05342511        0       0.00000025      -0.01097016      -0.00069724
H        5.05231787       1.94527996      27.05342443        0      -0.00951959       0.00549559      -0.00070429
H        3.36932425       1.94528032      27.05342762        0       0.00948106       0.00547295      -0.00069399
