31
Lattice="8.421641763931781 0.0 0.0 4.2108208819658905 7.293355709136913 0.0 0.0 0.0 44.584161137365626" Properties=species:S:1:pos:R:3:tags:I:1:forces:R:3 energy=-172.64517211914062 free_energy=-172.64517211914062 stress="0.010424400679767132 -1.935028248745141e-10 6.352903758610751e-10 -1.935028248745141e-10 0.010424408130347729 -5.95839766415196e-10 6.352903758610751e-10 -5.95839766415196e-10 -8.770821295911446e-06" pbc="T T T"
Pt       1.40360696       0.81037286      20.00000000        3      -0.00203193       0.00117126       0.00089651
Pt       4.21082088       0.81037286      20.00000000        3       0.00000180       0.00398854       0.00066867
Pt       7.01803480       0.81037286      20.00000000        3       0.00203039       0.00117128       0.00089580
Pt       2.80721392       3.24149143      20.00000000        3       0.00027463       0.00015739       0.02934387
Pt       5.61442784       3.24149143      20.00000000        3      -0.00027527       0.00015795       0.02934462
Pt       8.42164176       3.24149143      20.00000000        3       0.00000129      -0.00234679       0.00089550
Pt       4.21082088       5.67261000      20.00000000        3       0.00000225      -0.00031444       0.02934507
Pt       7.01803480       5.67261000      20.00000000        3      -0.00345757      -0.00199286       0.00066739
Pt       9.82524872       5.67261000      20.00000000        3       0.00345412      -0.00199227       0.00066778
Pt      -0.00000000       1.62074571      22.29208057        2       0.00000136      -0.00000211      -0.06579336
Pt       2.80721392       1.62074571      22.29208057        2       0.07618675       0.08602923      -0.01590385
Pt       5.61442784       1.62074571      22.29208057        2      -0.07618765       0.08602962      -0.01590334
Pt       1.40360696       4.05186428      22.29208057        2       0.11259879       0.02296387      -0.01590227
Pt       4.21082088       4.05186428      22.29208057        2       0.00000129      -0.00000040       0.00991562
Pt       7.01803480       4.05186428      22.29208057        2      -0.11260127       0.02296355      -0.01590252
Pt       2.80721392       6.48298285      22.29208057        2       0.03641267      -0.10899380      -0.01590284
Pt       5.61442784       6.48298285      22.29208057        2      -0.03641414      -0.10899292      -0.01590350
Pt       8.42164176       6.48298285      22.29208057        2       0.00000115       0.00000314      -0.07842060
Pt       0.00000030       0.00666491      24.58204422        1      -0.00000103      -0.00462800      -0.00813311
Pt       2.80894242      -0.00099806      24.55968885        1       0.00141945      -0.00082156       0.02566694
Pt       5.61269930      -0.00099813      24.55968875        1      -0.00141986      -0.00082062       0.02566646
Pt       1.39783523       2.42778598      24.58204423        1       0.00400667       0.00231507      -0.00813164
Pt       4.21082082       2.40933258      24.62282332        1       0.00000106       0.01740711       0.04149611
Pt       7.02380663       2.42778602      24.58204410        1      -0.00400766       0.00231232      -0.00813195
Pt       2.78834704       4.87313001      24.62282349        1       0.01507316      -0.00870289       0.04149564
Pt       5.63329471       4.87313007      24.62282332        1      -0.01507392      -0.00870230       0.04149573
Pt       8.42164172       4.86423260      24.55968912        1       0.00000288       0.00164103       0.02566832
N        4.21082114       4.05186436      26.88201475        0      -0.00001459       0.00000017      -0.01733884
H        4.21082088       4.96904743      26.36755209        0       0.00000172       0.01981536      -0.00758666
H        5.00512501       3.59327247      26.36755197        0       0.01716605      -0.00991065      -0.00759166
H        3.41651656       3.59327236      26.36755202        0      -0.01715261      -0.00990509      -0.00758344
