31
Lattice="8.421641763931781 0.0 0.0 4.2108208819658905 7.293355709136913 0.0 0.0 0.0 44.584161137365626" Properties=species:S:1:pos:R:3:tags:I:1:forces:R:3 energy=-173.70553588867188 free_energy=-173.70553588867188 stress="0.010633810423314571 4.544827970676124e-05 5.328442421159707e-05 4.544827970676124e-05 0.010643326677381992 -0.00015197350876405835 5.328442421159707e-05 -0.00015197350876405835 -9.07623189050355e-07" pbc="T T T"
Pt       1.40360696       0.81037286      20.00000000        3      -0.00603049       0.00586363      -0.00726119
Pt       4.21082088       0.81037286      20.00000000        3       0.00455268       0.00449881      -0.01456231
Pt       7.01803480       0.81037286      20.00000000        3       0.00014750       0.00459234      -0.00994775
Pt       2.80721392       3.24149143      20.00000000        3      -0.00123238       0.00607252       0.01724449
Pt       5.61442784       3.24149143      20.00000000        3       0.00309262      -0.00032527      -0.00624770
Pt       8.42164176       3.24149143      20.00000000        3      -0.00167482      -0.00159988      -0.00491104
Pt       4.21082088       5.67261000      20.00000000        3      -0.00492879      -0.00059988       0.01664996
Pt       7.01803480       5.67261000      20.00000000        3      -0.00150732      -0.00504790      -0.00833562
Pt       9.82524872       5.67261000      20.00000000        3       0.00473991      -0.00164303       0.01091692
Pt      -0.00000000       1.62074571      22.29208057        2       0.03572613      -0.01287633       0.00065956
Pt       2.80721392       1.62074571      22.29208057        2      -0.01641298       0.05623975       0.01081043
Pt       5.61442784       1.62074571      22.29208057        2       0.00594492      -0.01122406      -0.02802848
Pt       1.40360696       4.05186428      22.29208057        2       0.07648832       0.02190569      -0.02316480
Pt       4.21082088       4.05186428      22.29208057        2      -0.04815861       0.02842481      -0.04494168
Pt       7.01803480       4.05186428      22.29208057        2      -0.00922069      -0.00070948       0.00735982
Pt       2.80721392       6.48298285      22.29208057        2       0.01558300      -0.13215442       0.00197848
Pt       5.61442784       6.48298285      22.29208057        2      -0.05809016      -0.05956058       0.02941958
Pt       8.42164176       6.48298285      22.29208057        2       0.05124603      -0.06189109       0.02065326
Pt       0.01189975      -0.01569635      24.59960967        1      -0.00626482       0.00736179      -0.01121308
Pt       2.81181483      -0.03017231      24.58395333        1      -0.00197476       0.00141263       0.02056968
Pt       5.62055920      -0.02017434      24.59289097        1      -0.00542102      -0.00933133       0.02459002
Pt       1.41418659       2.40146120      24.61021082        1      -0.02141729       0.00750152       0.00370726
Pt       4.23012068       2.38250770      24.59097751        1       0.00800738       0.02619985       0.00377722
Pt       7.03082503       2.40308890      24.58424564        1      -0.00589601       0.02616692       0.01930127
Pt       2.80936430       4.83603717      24.67060146        1       0.00356307       0.03556468       0.00813487
Pt       5.62059525       4.83114014      24.61115145        1      -0.00234921       0.00637812      -0.00144987
Pt       8.41579963       4.83341879      24.59868977        1      -0.00313482       0.02636364      -0.00480942
N        2.97259261       4.53737016      26.71734242        0      -0.00770444       0.02357328       0.00891745
H        2.50568534       5.30048562      27.21336864        0      -0.00980569       0.00400236      -0.03999946
H        3.96909010       4.50950001      26.95010526        0       0.03554571       0.01592677      -0.00199194
H        2.53752159       3.63703264      26.93810575        0      -0.03341292      -0.01108588       0.00217400
