31
Lattice="8.421641763931781 0.0 0.0 4.2108208819658905 7.293355709136913 0.0 0.0 0.0 44.584161137365626" Properties=species:S:1:pos:R:3:tags:I:1:forces:R:3 energy=-172.57716369628906 free_energy=-172.57716369628906 stress="0.010478954762220383 -6.72904443277389e-09 -3.1179561155170177e-09 -6.72904443277389e-09 0.010478979907929897 5.786991774670014e-09 -3.1179561155170177e-09 5.786991774670014e-09 -0.00018221259233541787" pbc="T T T"
Pt       1.40360696       0.81037286      20.00000000        3      -0.00106536       0.00043538      -0.00487122
Pt       4.21082088       0.81037286      20.00000000        3       0.00009004       0.00047834      -0.00420752
Pt       7.01803480       0.81037286      20.00000000        3       0.00091039       0.00070193      -0.00487107
Pt       2.80721392       3.24149143      20.00000000        3       0.00009995      -0.00000946       0.00331920
Pt       5.61442784       3.24149143      20.00000000        3      -0.00004365       0.00008997       0.00331911
Pt       8.42164176       3.24149143      20.00000000        3       0.00015472      -0.00114225      -0.00487259
Pt       4.21082088       5.67261000      20.00000000        3      -0.00005485      -0.00007959       0.00331956
Pt       7.01803480       5.67261000      20.00000000        3      -0.00046178      -0.00016144      -0.00420851
Pt       9.82524872       5.67261000      20.00000000        3       0.00037085      -0.00031339      -0.00420913
Pt      -0.00000000       1.62074571      22.29208057        2       0.00000149      -0.00000239      -0.05327042
Pt       2.80721392       1.62074571      22.29208057        2       0.02727055       0.03339337      -0.00389038
Pt       5.61442784       1.62074571      22.29208057        2      -0.02598532       0.03246906      -0.00567575
Pt       1.40360696       4.05186428      22.29208057        2       0.04111346       0.00626610      -0.00567465
Pt       4.21082088       4.05186428      22.29208057        2       0.00000137      -0.00000013       0.05031712
Pt       7.01803480       4.05186428      22.29208057        2      -0.04255795       0.00691894      -0.00389047
Pt       2.80721392       6.48298285      22.29208057        2       0.01528652      -0.04031182      -0.00388998
Pt       5.61442784       6.48298285      22.29208057        2      -0.01513025      -0.03873596      -0.00567623
Pt       8.42164176       6.48298285      22.29208057        2       0.00000099       0.00000356      -0.03515378
Pt      -0.00049495       0.00689216      24.57902261        1      -0.00323740      -0.01788623      -0.00410715
Pt       2.80910332      -0.00020525      24.57707632        1      -0.00315139       0.00670856      -0.00708425
Pt       5.61330536      -0.00153362      24.57707627        1       0.00738514      -0.00062552      -0.00708503
Pt       1.39788575       2.42724349      24.57902261        1       0.01710820       0.00614036      -0.00410676
Pt       4.21341234       2.41651306      24.58942601        1       0.00550758       0.02318118       0.00538434
Pt       7.02425105       2.42810124      24.57902269        1      -0.01387009       0.01174641      -0.00410616
Pt       2.79326971       4.86729563      24.58942622        1       0.01732092      -0.01636050       0.00538470
Pt       5.62578089       4.87178415      24.58942609        1      -0.02283121      -0.00682076       0.00538459
Pt       8.42087444       4.86397608      24.57707656        1      -0.00423291      -0.00608401      -0.00708237
N        4.21082063       4.05186444      27.59415641        0       0.00002555      -0.00003755       0.00236848
H        4.67919543       3.23095292      27.19876080        0      -0.03268032       0.00888881       0.03305791
H        3.26570406       4.05669566      27.19876086        0       0.02399409       0.02386085       0.03303860
H        4.68756346       4.86794391      27.19876082        0       0.00866075      -0.03271194       0.03303995
