31
Lattice="8.421641763931781 0.0 0.0 4.2108208819658905 7.293355709136913 0.0 0.0 0.0 44.584161137365626" Properties=species:S:1:pos:R:3:tags:I:1:forces:R:3 energy=-172.8053741455078 free_energy=-172.8053741455078 stress="0.010277386754751205 -2.163155295420438e-05 5.581905134022236e-05 -2.163155295420438e-05 0.010302369482815266 3.2225678296526894e-05 5.581905134022236e-05 3.2225678296526894e-05 -1.5541352695436217e-05" pbc="T T T"
Pt       1.40360696       0.81037286      20.00000000        3      -0.00220911      -0.00020391      -0.00832862
Pt       4.21082088       0.81037286      20.00000000        3       0.00014027       0.00326078       0.00135803
Pt       7.01803480       0.81037286      20.00000000        3       0.00048509       0.00027937      -0.00643161
Pt       2.80721392       3.24149143      20.00000000        3       0.00143845       0.00082914       0.02707866
Pt       5.61442784       3.24149143      20.00000000        3      -0.00152724      -0.00298764       0.01604944
Pt       8.42164176       3.24149143      20.00000000        3      -0.00127837      -0.00181301      -0.00833106
Pt       4.21082088       5.67261000      20.00000000        3      -0.00334771       0.00017390       0.01604900
Pt       7.01803480       5.67261000      20.00000000        3      -0.00220582      -0.00127003      -0.00997207
Pt       9.82524872       5.67261000      20.00000000        3       0.00289331      -0.00150842       0.00135654
Pt      -0.00000000       1.62074571      22.29208057        2       0.01163603       0.00671337      -0.10786340
Pt       2.80721392       1.62074571      22.29208057        2       0.14085443       0.10647117       0.02284832
Pt       5.61442784       1.62074571      22.29208057        2      -0.13346753       0.10136443       0.03627222
Pt       1.40360696       4.05186428      22.29208057        2       0.16263697       0.06874777       0.02285000
Pt       4.21082088       4.05186428      22.29208057        2      -0.04051571      -0.02339235       0.07277257
Pt       7.01803480       4.05186428      22.29208057        2      -0.08324965       0.02111952      -0.03975359
Pt       2.80721392       6.48298285      22.29208057        2       0.02105277      -0.16626713       0.03627653
Pt       5.61442784       6.48298285      22.29208057        2      -0.02333537      -0.08265069      -0.03975411
Pt       8.42164176       6.48298285      22.29208057        2       0.03546527       0.02047820      -0.07370597
Pt       0.01865373       0.01549781      24.57008984        1      -0.02177954       0.00508658      -0.00071429
Pt       2.82482595      -0.00280050      24.56335469        1      -0.02948211       0.03632458       0.00769198
Pt       5.63445269       0.01156224      24.56370991        1      -0.01979580      -0.01144025      -0.00901201
Pt       1.40309572       2.43082362      24.56808280        1      -0.00993582      -0.00573781      -0.00642729
Pt       4.23176281       2.41393219      24.62682473        1      -0.03056373       0.00002781      -0.00760700
Pt       7.04078287       2.43952369      24.57009029        1      -0.00648150      -0.02140347      -0.00071223
Pt       2.80280096       4.88896516      24.62682515        1      -0.01526096      -0.02647227      -0.00761013
Pt       5.63874115       4.87627437      24.59456747        1       0.01486966       0.00858580       0.04193406
Pt       8.42802170       4.87888937      24.56335437        1       0.01672375      -0.04369109       0.00769302
N        3.94759570       3.89989096      26.93230428        0       0.00815710       0.00472012      -0.03413305
H        3.90985858       2.93176228      26.55475264        0      -0.01844274       0.01101860       0.01214971
H        3.09030317       4.35127509      26.55475274        0       0.00032339      -0.02148657       0.01215598
H        4.71698422       4.34409812      26.38942006        0       0.02620219       0.01512354       0.02582039
