31
Lattice="8.421641763931781 0.0 0.0 4.2108208819658905 7.293355709136913 0.0 0.0 0.0 44.584161137365626" Properties=species:S:1:pos:R:3:tags:I:1:forces:R:3 energy=-172.76077270507812 free_energy=-172.76077270507812 stress="0.010408137924969196 7.044927770039067e-05 7.428480603266507e-05 7.044927770039067e-05 0.010361271910369396 -0.00011714323773048818 7.428480603266507e-05 -0.00011714323773048818 0.0001139689702540636" pbc="T T T"
Pt       1.40360696       0.81037286      20.00000000        3      -0.00257296       0.00266322       0.00178853
Pt       4.21082088       0.81037286      20.00000000        3       0.00008760       0.00390375       0.00241455
Pt       7.01803480       0.81037286      20.00000000        3      -0.00036543       0.00053155      -0.00557944
Pt       2.80721392       3.24149143      20.00000000        3       0.00069969       0.00237298       0.03803554
Pt       5.61442784       3.24149143      20.00000000        3      -0.00144999      -0.00184708       0.01665196
Pt       8.42164176       3.24149143      20.00000000        3       0.00073944      -0.00255288       0.00243011
Pt       4.21082088       5.67261000      20.00000000        3      -0.00326214       0.00049495       0.01904404
Pt       7.01803480       5.67261000      20.00000000        3      -0.00311060      -0.00061834      -0.00506508
Pt       9.82524872       5.67261000      20.00000000        3       0.00347874      -0.00050461       0.00365767
Pt      -0.00000000       1.62074571      22.29208057        2       0.06738705       0.02218453      -0.06476759
Pt       2.80721392       1.62074571      22.29208057        2       0.06309714       0.08650103      -0.00417564
Pt       5.61442784       1.62074571      22.29208057        2      -0.11647414       0.08063683       0.02495621
Pt       1.40360696       4.05186428      22.29208057        2       0.14209518       0.01201533       0.03079050
Pt       4.21082088       4.05186428      22.29208057        2      -0.06892921      -0.01447584       0.03637985
Pt       7.01803480       4.05186428      22.29208057        2      -0.04171962      -0.01800162      -0.03811774
Pt       2.80721392       6.48298285      22.29208057        2       0.02806108      -0.19790097       0.05174962
Pt       5.61442784       6.48298285      22.29208057        2      -0.03285215      -0.05591768      -0.03371819
Pt       8.42164176       6.48298285      22.29208057        2       0.02190006      -0.00277884      -0.05837107
Pt       0.01674934       0.00104147      24.57114086        1       0.00851321       0.00325337      -0.00351457
Pt       2.81633282      -0.02455975      24.56952114        1      -0.00725105      -0.00305850      -0.00144681
Pt       5.62717238      -0.00789000      24.55989897        1      -0.01687615       0.02247432       0.00331683
Pt       1.42121875       2.41326272      24.60469628        1       0.01747393       0.00798282       0.00362125
Pt       4.24454518       2.39500167      24.62028252        1      -0.00648976       0.01144337       0.01262270
Pt       7.04688285       2.41630706      24.57077910        1       0.00826414      -0.00150134      -0.00211534
Pt       2.80378630       4.89106403      24.62962510        1       0.00048821      -0.00440279       0.02443209
Pt       5.63066018       4.84403139      24.60377340        1      -0.01337279      -0.00945306       0.00149885
Pt       8.42552391       4.85334352      24.56933727        1      -0.00602830      -0.01067711      -0.00238188
N        3.51435913       3.62552537      26.89483338        0      -0.01438930       0.02194856      -0.01387501
H        3.01737194       4.48623184      26.58755561        0      -0.02299811       0.04024467      -0.00394479
H        4.40479677       3.71963333      26.35085431        0       0.02661535       0.01834013      -0.01686028
H        2.98742813       2.90132038      26.35178346        0      -0.03075917      -0.01330079      -0.01945660
