31
Lattice="8.421641763931781 0.0 0.0 4.2108208819658905 7.293355709136913 0.0 0.0 0.0 44.584161137365626" Properties=species:S:1:pos:R:3:tags:I:1:forces:R:3 energy=-172.80628967285156 free_energy=-172.80628967285156 stress="0.010336638428270817 2.772845064669127e-09 -3.7147975806561817e-09 2.772845064669127e-09 0.010336631909012794 -6.05090288985366e-09 -3.7147975806561817e-09 -6.05090288985366e-09 2.1118194126756862e-05" pbc="T T T"
Pt       1.40360696       0.81037286      20.00000000        3      -0.00128931       0.00074266      -0.00833502
Pt       4.21082088       0.81037286      20.00000000        3       0.00000178       0.00278357      -0.00336096
Pt       7.01803480       0.81037286      20.00000000        3       0.00128760       0.00074262      -0.00833619
Pt       2.80721392       3.24149143      20.00000000        3       0.00012534       0.00007164       0.01724887
Pt       5.61442784       3.24149143      20.00000000        3      -0.00012586       0.00007181       0.01725003
Pt       8.42164176       3.24149143      20.00000000        3       0.00000136      -0.00148947      -0.00833631
Pt       4.21082088       5.67261000      20.00000000        3       0.00000197      -0.00014216       0.01725060
Pt       7.01803480       5.67261000      20.00000000        3      -0.00241406      -0.00138986      -0.00336310
Pt       9.82524872       5.67261000      20.00000000        3       0.00241133      -0.00138955      -0.00336269
Pt      -0.00000000       1.62074571      22.29208057        2       0.00000204      -0.00000277      -0.11073808
Pt       2.80721392       1.62074571      22.29208057        2       0.11445751       0.08732551       0.01453524
Pt       5.61442784       1.62074571      22.29208057        2      -0.11445902       0.08732599       0.01453507
Pt       1.40360696       4.05186428      22.29208057        2       0.13285702       0.05545787       0.01453439
Pt       4.21082088       4.05186428      22.29208057        2       0.00000151      -0.00000007       0.08593644
Pt       7.01803480       4.05186428      22.29208057        2      -0.13285840       0.05545900       0.01453704
Pt       2.80721392       6.48298285      22.29208057        2       0.01840059      -0.14278442       0.01453556
Pt       5.61442784       6.48298285      22.29208057        2      -0.01840075      -0.14278425       0.01453481
Pt       8.42164176       6.48298285      22.29208057        2       0.00000048       0.00000312      -0.05644570
Pt       0.00000027       0.01191121      24.57002391        1      -0.00000100      -0.01414588      -0.00317208
Pt       2.80842871      -0.00070146      24.56507437        1       0.00108022      -0.00062500      -0.00976300
Pt       5.61321296      -0.00070150      24.56507431        1      -0.00107989      -0.00062321      -0.00976335
Pt       1.39329135       2.42516265      24.57002394        1       0.01224929       0.00707183      -0.00317025
Pt       4.21082091       2.40978261      24.61315559        1       0.00000113       0.00144582       0.00334988
Pt       7.02835037       2.42516267      24.57002378        1      -0.01224930       0.00707378      -0.00316949
Pt       2.78873652       4.87290498      24.61315602        1       0.00125577      -0.00072223       0.00335202
Pt       5.63290496       4.87290501      24.61315539        1      -0.00125241      -0.00072306       0.00335205
Pt       8.42164187       4.86363980      24.56507492        1      -0.00000538       0.00124641      -0.00976130
N        4.21082043       4.05186382      26.94874312        0       0.00003234       0.00004627       0.04616806
H        3.38831852       4.52673636      26.53110380        0      -0.01026124       0.00592030      -0.01334856
H        5.03332349       4.52673645      26.53110353        0       0.01023167       0.00590602      -0.01333418
H        4.21082091       3.10212087      26.53110379        0      -0.00000246      -0.01187217      -0.01335986
