31
Lattice="8.421641763931781 0.0 0.0 4.2108208819658905 7.293355709136913 0.0 0.0 0.0 44.584161137365626" Properties=species:S:1:pos:R:3:tags:I:1:forces:R:3 energy=-172.575439453125 free_energy=-172.575439453125 stress="0.010545416735112667 4.3454714614199474e-05 7.293748240044806e-06 4.3454714614199474e-05 0.010495009832084179 -1.056206656357972e-05 7.293748240044806e-06 -1.056206656357972e-05 -0.00012014897947665304" pbc="T T T"
Pt       1.40360696       0.81037286      20.00000000        3      -0.00102892       0.00054259      -0.00410923
Pt       4.21082088       0.81037286      20.00000000        3       0.00022554       0.00059661      -0.00393793
Pt       7.01803480       0.81037286      20.00000000        3       0.00065675       0.00040962      -0.00524163
Pt       2.80721392       3.24149143      20.00000000        3       0.00034328       0.00083825       0.00689623
Pt       5.61442784       3.24149143      20.00000000        3       0.00007279      -0.00056759       0.00005829
Pt       8.42164176       3.24149143      20.00000000        3      -0.00017133      -0.00118153      -0.00392893
Pt       4.21082088       5.67261000      20.00000000        3      -0.00103192      -0.00011538       0.00243390
Pt       7.01803480       5.67261000      20.00000000        3      -0.00030373      -0.00019640      -0.00613052
Pt       9.82524872       5.67261000      20.00000000        3       0.00118007      -0.00032080      -0.00139099
Pt      -0.00000000       1.62074571      22.29208057        2       0.00998530       0.00578732      -0.04594795
Pt       2.80721392       1.62074571      22.29208057        2       0.02262409       0.03895484       0.01556613
Pt       5.61442784       1.62074571      22.29208057        2      -0.03272666       0.02661950      -0.00911142
Pt       1.40360696       4.05186428      22.29208057        2       0.05502341       0.00939335       0.02674869
Pt       4.21082088       4.05186428      22.29208057        2      -0.03570022      -0.00426289       0.04390707
Pt       7.01803480       4.05186428      22.29208057        2      -0.01808072      -0.00805259      -0.02391832
Pt       2.80721392       6.48298285      22.29208057        2       0.00659521      -0.05766516       0.00318369
Pt       5.61442784       6.48298285      22.29208057        2      -0.01989014      -0.01516801      -0.02192831
Pt       8.42164176       6.48298285      22.29208057        2       0.01259550       0.00259238      -0.02985753
Pt       0.00109299       0.00568916      24.57886106        1       0.00254165      -0.00973582      -0.00327352
Pt       2.80633185      -0.00606532      24.57851458        1      -0.00249488       0.00638164      -0.00741124
Pt       5.61413544       0.00059435      24.57622516        1       0.00028364      -0.00024284      -0.00779498
Pt       1.39599184       2.42585539      24.58337339        1       0.02986876       0.01623492       0.00005087
Pt       4.21841384       2.41883808      24.58785879        1      -0.00745339       0.01322896       0.00253628
Pt       7.02402080       2.42867216      24.57873357        1      -0.00333451       0.00548324      -0.00410101
Pt       2.80000031       4.87573127      24.59781680        1       0.00563046      -0.01048933       0.02197333
Pt       5.62214952       4.86598232      24.58331956        1      -0.02801355      -0.01777166      -0.00193679
Pt       8.41642653       4.86389892      24.57863002        1       0.00835426      -0.00811012      -0.00653452
N        3.50871453       3.64700564      27.58833511        0      -0.01066767       0.01776096      -0.00558519
H        4.45647483       3.64812642      27.20180044        0      -0.02264512      -0.00906391       0.03899241
H        3.03379790       2.82696909      27.20167743        0       0.01776562       0.01477867       0.03817074
H        3.03611726       4.46571598      27.19136909        0       0.00979645      -0.01665898      -0.00837743
