31
Lattice="8.421641763931781 0.0 0.0 4.2108208819658905 7.293355709136913 0.0 0.0 0.0 44.584161137365626" Properties=species:S:1:pos:R:3:tags:I:1:forces:R:3 energy=-172.8036651611328 free_energy=-172.8036651611328 stress="0.010243737138807774 -4.37444141425658e-05 -6.096422657719813e-05 -4.37444141425658e-05 0.010294257663190365 -3.5196804674342275e-05 -6.096422657719813e-05 -3.5196804674342275e-05 -1.0914163794950582e-05" pbc="T T T"
Pt       1.40360696       0.81037286      20.00000000        3      -0.00231824       0.00122337      -0.00127196
Pt       4.21082088       0.81037286      20.00000000        3       0.00197250       0.00391169       0.00331327
Pt       7.01803480       0.81037286      20.00000000        3       0.00083332       0.00048029      -0.00621250
Pt       2.80721392       3.24149143      20.00000000        3       0.00266129       0.00153514       0.03510517
Pt       5.61442784       3.24149143      20.00000000        3      -0.00048423      -0.00361382       0.00617614
Pt       8.42164176       3.24149143      20.00000000        3      -0.00009637      -0.00262107      -0.00127429
Pt       4.21082088       5.67261000      20.00000000        3      -0.00336810       0.00139058       0.00617683
Pt       7.01803480       5.67261000      20.00000000        3       0.00063730       0.00037193      -0.01569110
Pt       9.82524872       5.67261000      20.00000000        3       0.00437342      -0.00024749       0.00331154
Pt      -0.00000000       1.62074571      22.29208057        2       0.07066104       0.04079186      -0.03735808
Pt       2.80721392       1.62074571      22.29208057        2       0.04753691       0.11495879       0.03033843
Pt       5.61442784       1.62074571      22.29208057        2      -0.16865528       0.08358949       0.05839755
Pt       1.40360696       4.05186428      22.29208057        2       0.12332758      -0.01631247       0.03033901
Pt       4.21082088       4.05186428      22.29208057        2      -0.12040417      -0.06951636       0.04898421
Pt       7.01803480       4.05186428      22.29208057        2      -0.01789822      -0.05013818      -0.08589542
Pt       2.80721392       6.48298285      22.29208057        2      -0.01193274      -0.18785155       0.05839836
Pt       5.61442784       6.48298285      22.29208057        2      -0.05237079       0.00957260      -0.08589586
Pt       8.42164176       6.48298285      22.29208057        2       0.02277992       0.01315446      -0.07215343
Pt      -0.01231595       0.00197469      24.56839039        1      -0.00624738       0.01059393      -0.01237634
Pt       2.78902838      -0.01401646      24.56862820        1       0.04336331       0.02349259       0.00071836
Pt       5.59524693      -0.01107467      24.56182978        1       0.04227850       0.02441025       0.00092266
Pt       1.37721948       2.41588362      24.59719278        1      -0.00688936      -0.00397874       0.01626058
Pt       4.22836139       2.40594844      24.62284209        1       0.00361911       0.01726336      -0.00583087
Pt       7.01358647       2.41946460      24.56838932        1       0.00605194      -0.01070842      -0.01237375
Pt       2.79418633       4.89001265      24.62284285        1       0.01676105      -0.00549721      -0.00582996
Pt       5.62070423       4.86586040      24.56439450        1      -0.00975060      -0.00562707       0.01068690
Pt       8.40040971       4.85349568      24.56862832        1       0.04202908       0.02580979       0.00071953
N        3.10101544       3.41111784      26.90726713        0       0.00603720       0.00347363      -0.04223961
H        3.96576028       2.96428307      26.53905463        0      -0.04071765       0.00453609       0.01655995
H        2.33298073       2.96769305      26.35832280        0       0.02263726       0.01306664       0.04143785
H        3.14641740       4.38342568      26.53905546        0      -0.01642751      -0.03751424       0.01655658
