31
Lattice="8.421641763931781 0.0 0.0 4.2108208819658905 7.293355709136913 0.0 0.0 0.0 44.584161137365626" Properties=species:S:1:pos:R:3:tags:I:1:forces:R:3 energy=-173.71632385253906 free_energy=-173.71632385253906 stress="0.010682852007448673 1.0723245402743942e-08 5.321237228628206e-09 1.0723245402743942e-08 0.010682852007448673 4.482402005123731e-09 5.321237228628206e-09 4.482402005123731e-09 -4.945829914504429e-06" pbc="T T T"
Pt       1.40360696       0.81037286      20.00000000        3      -0.00292461      -0.00087418      -0.00609690
Pt       4.21082088       0.81037286      20.00000000        3       0.00053942       0.00465941       0.01212701
Pt       7.01803480       0.81037286      20.00000000        3       0.00221524      -0.00210022      -0.00609756
Pt       2.80721392       3.24149143      20.00000000        3       0.00376933      -0.00279691       0.01212549
Pt       5.61442784       3.24149143      20.00000000        3      -0.00430791      -0.00186531       0.01212603
Pt       8.42164176       3.24149143      20.00000000        3       0.00076611      -0.00623723      -0.00915971
Pt       4.21082088       5.67261000      20.00000000        3       0.00071018       0.00297078      -0.00609672
Pt       7.01803480       5.67261000      20.00000000        3      -0.00578607       0.00245887      -0.00915894
Pt       9.82524872       5.67261000      20.00000000        3       0.00501822       0.00378406      -0.00915778
Pt      -0.00000000       1.62074571      22.29208057        2       0.00922910       0.00737492      -0.00025598
Pt       2.80721392       1.62074571      22.29208057        2       0.06353432       0.04193312      -0.02920667
Pt       5.61442784       1.62074571      22.29208057        2      -0.06808376       0.03405014      -0.02920548
Pt       1.40360696       4.05186428      22.29208057        2       0.05029377      -0.03665229       0.03234532
Pt       4.21082088       4.05186428      22.29208057        2       0.00455123      -0.07598653      -0.02920207
Pt       7.01803480       4.05186428      22.29208057        2      -0.05689218      -0.02522317       0.03234437
Pt       2.80721392       6.48298285      22.29208057        2      -0.01100337       0.00430182      -0.00025625
Pt       5.61442784       6.48298285      22.29208057        2       0.00177398      -0.01168038      -0.00025723
Pt       8.42164176       6.48298285      22.29208057        2       0.00660173       0.06188207       0.03234111
Pt       0.00000085      -0.00000103      24.58903610        1       0.00000000       0.00000618      -0.00070435
Pt       2.80009209      -0.00996289      24.59545754        1       0.00093353      -0.00906494       0.00847995
Pt       5.61873420      -0.00399635      24.60742347        1      -0.00967325       0.00514740      -0.00839126
Pt       1.39799558       2.42938688      24.60742258        1       0.00929257       0.00580930      -0.00838317
Pt       4.21082356       2.43111651      24.65951234        1      -0.00000041       0.00000720       0.00827453
Pt       7.03022510       2.42993180      24.59545663        1       0.00738282       0.00533639       0.00848059
Pt       2.80214799       4.87338770      24.59545838        1      -0.00831432       0.00371232       0.00847153
Pt       5.61573553       4.86796363      24.60742408        1       0.00038129      -0.01095389      -0.00839160
Pt       8.42164242       4.86223765      24.58932493        1      -0.00000069      -0.00000357      -0.00257754
N        4.21082056       2.43111709      26.72639905        0      -0.00003888       0.00007579      -0.00354582
H        4.69469632       1.58788580      27.04599601        0      -0.00145065       0.00012352      -0.00031460
H        3.23861758       2.43368347      27.04598404        0       0.00089751       0.00119516      -0.00032188
H        4.69913892       3.27178722      27.04599148        0       0.00058572      -0.00139008      -0.00033441
