31
Lattice="8.421641763931781 0.0 0.0 4.2108208819658905 7.293355709136913 0.0 0.0 0.0 44.584161137365626" Properties=species:S:1:pos:R:3:tags:I:1:forces:R:3 energy=-173.71585083007812 free_energy=-173.71585083007812 stress="0.010695401579141617 1.1236613417509034e-08 -1.5147662013603735e-09 1.1236613417509034e-08 0.010695413686335087 -4.891871796530722e-09 -1.5147662013603735e-09 -4.891871796530722e-09 5.3980918892193586e-05" pbc="T T T"
Pt       1.40360696       0.81037286      20.00000000        3      -0.00232964      -0.00182299      -0.00573495
Pt       4.21082088       0.81037286      20.00000000        3       0.00044996       0.00437327       0.01247156
Pt       7.01803480       0.81037286      20.00000000        3       0.00273902      -0.00111012      -0.00573450
Pt       2.80721392       3.24149143      20.00000000        3       0.00356578      -0.00257556       0.01247042
Pt       5.61442784       3.24149143      20.00000000        3      -0.00401472      -0.00179933       0.01247033
Pt       8.42164176       3.24149143      20.00000000        3      -0.00056606      -0.00634708      -0.00905177
Pt       4.21082088       5.67261000      20.00000000        3      -0.00040893       0.00292991      -0.00573397
Pt       7.01803480       5.67261000      20.00000000        3      -0.00521568       0.00366801      -0.00905019
Pt       9.82524872       5.67261000      20.00000000        3       0.00577983       0.00268488      -0.00905055
Pt      -0.00000000       1.62074571      22.29208057        2      -0.00926667       0.00777653       0.00323710
Pt       2.80721392       1.62074571      22.29208057        2       0.06389982       0.03977241      -0.02262801
Pt       5.61442784       1.62074571      22.29208057        2      -0.06639659       0.03544926      -0.02262831
Pt       1.40360696       4.05186428      22.29208057        2       0.05656465      -0.03130867       0.03390279
Pt       4.21082088       4.05186428      22.29208057        2       0.00249801      -0.07522520      -0.02262820
Pt       7.01803480       4.05186428      22.29208057        2      -0.05539908      -0.03333045       0.03390396
Pt       2.80721392       6.48298285      22.29208057        2      -0.00210191      -0.01191405       0.00323608
Pt       5.61442784       6.48298285      22.29208057        2       0.01136970       0.00413805       0.00323520
Pt       8.42164176       6.48298285      22.29208057        2      -0.00116689       0.06464249       0.03390144
Pt       0.00000034      -0.00000025      24.58864072        1      -0.00000105       0.00000066       0.00205228
Pt       2.80792455       0.00284965      24.60569993        1      -0.00598017      -0.00342410       0.00132917
Pt       5.62577225      -0.01940940      24.60028290        1      -0.01051519       0.02521352      -0.01355483
Pt       1.38112597       2.43099835      24.60028289        1       0.02709359      -0.00350211      -0.01355393
Pt       4.21082088       2.43111834      24.65962283        1       0.00000206       0.00000140       0.02951387
Pt       7.01521146       2.43030885      24.60569997        1       0.00595517      -0.00346826       0.00132927
Pt       2.80932679       4.86019675      24.60570021        1       0.00002641       0.00689310       0.00132991
Pt       5.62556440       4.88176617      24.60028290        1      -0.01657778      -0.02171505      -0.01355374
Pt       8.42164196       4.86223675      24.58918321        1      -0.00000317       0.00000097      -0.00003788
N        4.21082138       2.43111934      26.72769450        0      -0.00001721      -0.00006795       0.01214612
H        5.18121782       2.43233002      27.05203705        0       0.02146700       0.00122653      -0.01452648
H        3.72667139       1.59012418      27.05203662        0      -0.00964736      -0.01915555      -0.01454260
H        3.72457360       3.27090118      27.05203619        0      -0.01180285       0.01799555      -0.01451984
