31
Lattice="8.421641763931781 0.0 0.0 4.2108208819658905 7.293355709136913 0.0 0.0 0.0 44.584161137365626" Properties=species:S:1:pos:R:3:tags:I:1:forces:R:3 energy=-172.8042755126953 free_energy=-172.8042755126953 stress="0.010287928394973278 -4.4538341903432865e-09 -8.982488530762112e-09 -4.4538341903432865e-09 0.010287929326295853 1.4038964435414414e-09 -8.982488530762112e-09 1.4038964435414414e-09 2.5827548597590066e-05" pbc="T T T"
Pt       1.40360696       0.81037286      20.00000000        3       0.00000100      -0.00000236      -0.01219136
Pt       4.21082088       0.81037286      20.00000000        3      -0.00197899       0.00239125       0.00095540
Pt       7.01803480       0.81037286      20.00000000        3       0.00218380       0.00302559       0.00097594
Pt       2.80721392       3.24149143      20.00000000        3       0.00152968      -0.00340784       0.00097659
Pt       5.61442784       3.24149143      20.00000000        3      -0.00000178      -0.00000065       0.03240702
Pt       8.42164176       3.24149143      20.00000000        3      -0.00108048      -0.00291155       0.00095257
Pt       4.21082088       5.67261000      20.00000000        3       0.00306485       0.00052032       0.00095353
Pt       7.01803480       5.67261000      20.00000000        3      -0.00371737       0.00038243       0.00097498
Pt       9.82524872       5.67261000      20.00000000        3      -0.00000118       0.00000283      -0.01432845
Pt      -0.00000000       1.62074571      22.29208057        2      -0.14873071       0.08593723       0.01205648
Pt       2.80721392       1.62074571      22.29208057        2       0.14879078       0.08583616       0.01205565
Pt       5.61442784       1.62074571      22.29208057        2       0.00260949       0.12158877       0.04921989
Pt       1.40360696       4.05186428      22.29208057        2      -0.00523467      -0.02982092      -0.07346976
Pt       4.21082088       4.05186428      22.29208057        2       0.10399754      -0.06305836       0.04921965
Pt       7.01803480       4.05186428      22.29208057        2      -0.10661083      -0.05853415       0.04921987
Pt       2.80721392       6.48298285      22.29208057        2       0.02843978       0.01037618      -0.07347064
Pt       5.61442784       6.48298285      22.29208057        2      -0.00006037      -0.17177446       0.01205514
Pt       8.42164176       6.48298285      22.29208057        2      -0.02320133       0.01944792      -0.07346931
Pt       0.00528431       0.00130618      24.56071541        1      -0.02641887      -0.00286006       0.02083100
Pt       2.80344021       0.00392343      24.56071429        1       0.01568870      -0.02145719       0.02083045
Pt       5.62303635      -0.01200051      24.56954011        1      -0.02005683       0.02602990      -0.00908419
Pt       1.40209559       2.42588720      24.56071716        1       0.01073731       0.02431640       0.02082027
Pt       4.18914648       2.41045888      24.61256708        1       0.01475816       0.02396923       0.01038407
Pt       7.04676221       2.42267858      24.61256750        1      -0.02813364       0.00079519       0.01038555
Pt       2.79251694       4.86078222      24.56953806        1       0.03257269       0.00434875      -0.00907196
Pt       5.60737379       4.89133666      24.61256778        1       0.01337619      -0.02476182       0.01038126
Pt       8.42773124       4.87569193      24.56953765        1      -0.01252336      -0.03037865      -0.00907163
N        5.61442751       3.24149177      26.94051839        0       0.00004586      -0.00001396      -0.04883191
H        6.47776101       2.84443973      26.52021652        0      -0.02387898      -0.00130360       0.00245761
H        4.83890465       2.69235038      26.52021680        0       0.01077676       0.02130339       0.00243598
H        5.52661957       4.18768519      26.52021659        0       0.01305694      -0.01998602       0.00244013
