31
Lattice="8.421641763931781 0.0 0.0 4.2108208819658905 7.293355709136913 0.0 0.0 0.0 44.584161137365626" Properties=species:S:1:pos:R:3:tags:I:1:forces:R:3 energy=-173.71633911132812 free_energy=-173.71633911132812 stress="0.01068398542702198 2.5014728066707903e-08 -1.016192463509924e-09 2.5014728066707903e-08 0.010683972388505936 9.462017835915049e-09 -1.016192463509924e-09 9.462017835915049e-09 -3.708605163410539e-06" pbc="T T T"
Pt       1.40360696       0.81037286      20.00000000        3      -0.00294228      -0.00089582      -0.00606024
Pt       4.21082088       0.81037286      20.00000000        3       0.00052077       0.00464554       0.01214215
Pt       7.01803480       0.81037286      20.00000000        3       0.00224227      -0.00210511      -0.00605884
Pt       2.80721392       3.24149143      20.00000000        3       0.00376605      -0.00277332       0.01214093
Pt       5.61442784       3.24149143      20.00000000        3      -0.00428608      -0.00187426       0.01214150
Pt       8.42164176       3.24149143      20.00000000        3       0.00075706      -0.00624245      -0.00914121
Pt       4.21082088       5.67261000      20.00000000        3       0.00070070       0.00299723      -0.00605944
Pt       7.01803480       5.67261000      20.00000000        3      -0.00578631       0.00246970      -0.00913873
Pt       9.82524872       5.67261000      20.00000000        3       0.00502743       0.00377809      -0.00913954
Pt      -0.00000000       1.62074571      22.29208057        2       0.00916180       0.00725950      -0.00003538
Pt       2.80721392       1.62074571      22.29208057        2       0.06359028       0.04179105      -0.02867994
Pt       5.61442784       1.62074571      22.29208057        2      -0.06798647       0.03417425      -0.02867908
Pt       1.40360696       4.05186428      22.29208057        2       0.05040549      -0.03656464       0.03262734
Pt       4.21082088       4.05186428      22.29208057        2       0.00440166      -0.07596754      -0.02867899
Pt       7.01803480       4.05186428      22.29208057        2      -0.05687161      -0.02537049       0.03263711
Pt       2.80721392       6.48298285      22.29208057        2      -0.01086783       0.00430729      -0.00003873
Pt       5.61442784       6.48298285      22.29208057        2       0.00170734      -0.01156376      -0.00003783
Pt       8.42164176       6.48298285      22.29208057        2       0.00646242       0.06193630       0.03262752
Pt       0.00000093      -0.00000031      24.58918488        1      -0.00000166       0.00000373      -0.00129774
Pt       2.79998890      -0.01017881      24.59563980        1       0.00151512      -0.00764508       0.00773242
Pt       5.61871309      -0.00402177      24.60743314        1      -0.00992092       0.00607366      -0.00826430
Pt       1.39798264       2.42941924      24.60743396        1       0.01022071       0.00555550      -0.00826329
Pt       4.21082292       2.43111785      24.65956289        1      -0.00000004       0.00000250       0.00566703
Pt       7.03046537       2.42995041      24.59564120        1       0.00584878       0.00514276       0.00772513
Pt       2.80200943       4.87358514      24.59564017        1      -0.00736489       0.00250033       0.00773466
Pt       5.61576579       4.86796015      24.60743364        1      -0.00027601      -0.01163661      -0.00826502
Pt       8.42164344       4.86223771      24.58945580        1      -0.00001959      -0.00000286      -0.00312069
N        4.21082140       2.43111590      26.72619260        0      -0.00006132       0.00011328      -0.00117701
H        3.23872311       2.43367810      27.04595674        0      -0.00116402       0.00120594      -0.00035433
H        4.69908713       3.27169724      27.04596053        0       0.00161794       0.00039305      -0.00035891
H        4.69464819       1.58797646      27.04596318        0      -0.00039689      -0.00170760      -0.00032637
