31
Lattice="8.421641763931781 0.0 0.0 4.2108208819658905 7.293355709136913 0.0 0.0 0.0 44.584161137365626" Properties=species:S:1:pos:R:3:tags:I:1:forces:R:3 energy=-172.60189819335938 free_energy=-172.60189819335938 stress="0.010518872179090977 -4.901536510004689e-09 -5.56661294837113e-09 -4.901536510004689e-09 0.010518896393477917 -4.929962216237982e-09 -5.56661294837113e-09 -4.929962216237982e-09 -1.5807994714123197e-05" pbc="T T T"
Pt       1.40360696       0.81037286      20.00000000        3       0.00000092      -0.00000258      -0.00634739
Pt       4.21082088       0.81037286      20.00000000        3      -0.00067222       0.00123240      -0.00134191
Pt       7.01803480       0.81037286      20.00000000        3       0.00067177       0.00123167      -0.00134313
Pt       2.80721392       3.24149143      20.00000000        3       0.00073333      -0.00120179      -0.00134405
Pt       5.61442784       3.24149143      20.00000000        3      -0.00000203      -0.00000024       0.01187259
Pt       8.42164176       3.24149143      20.00000000        3      -0.00073081      -0.00120066      -0.00134555
Pt       4.21082088       5.67261000      20.00000000        3       0.00140820      -0.00003203      -0.00134376
Pt       7.01803480       5.67261000      20.00000000        3      -0.00140840      -0.00003093      -0.00134468
Pt       9.82524872       5.67261000      20.00000000        3      -0.00000082       0.00000294      -0.00860021
Pt      -0.00000000       1.62074571      22.29208057        2      -0.04278711       0.02470101      -0.01080533
Pt       2.80721392       1.62074571      22.29208057        2       0.04278955       0.02470238      -0.01080778
Pt       5.61442784       1.62074571      22.29208057        2      -0.00000245       0.05406217       0.04110372
Pt       1.40360696       4.05186428      22.29208057        2       0.00000138      -0.01914753      -0.03130690
Pt       4.21082088       4.05186428      22.29208057        2       0.04682223      -0.02703165       0.04110495
Pt       7.01803480       4.05186428      22.29208057        2      -0.04682404      -0.02703152       0.04110559
Pt       2.80721392       6.48298285      22.29208057        2       0.01658337       0.00957527      -0.03130697
Pt       5.61442784       6.48298285      22.29208057        2      -0.00000184      -0.04940633      -0.01080685
Pt       8.42164176       6.48298285      22.29208057        2      -0.01658184       0.00957764      -0.03130817
Pt       0.00154947       0.00089433      24.57688596        1      -0.00320211      -0.00184897      -0.00631142
Pt       2.80566465       0.00089444      24.57688604        1       0.00320267      -0.00184999      -0.00631034
Pt       5.61442778      -0.00688249      24.57748791        1       0.00000026       0.02061122      -0.00907615
Pt       1.40360712       2.42932955      24.57688614        1      -0.00000271       0.00369717      -0.00631019
Pt       4.19942490       2.42453909      24.59691412        1       0.01709076       0.00986774       0.02064918
Pt       7.02943057       2.42453913      24.59691443        1      -0.01708776       0.00986564       0.02064975
Pt       2.80125367       4.86567840      24.57748803        1       0.01785085      -0.01030419      -0.00907645
Pt       5.61442781       4.87539613      24.59691418        1      -0.00000133      -0.01973340       0.02064811
Pt       8.42760195       4.86567850      24.57748818        1      -0.01785055      -0.01030572      -0.00907475
N        5.61442754       3.24149139      27.59226974        0       0.00003313       0.00002517      -0.02898389
H        5.61442785       4.18641791      27.19286769        0      -0.00000191      -0.02894004       0.00912724
H        6.43275796       2.76902825      27.19286758        0      -0.02505361       0.01446512       0.00912464
H        4.79609800       2.76902841      27.19286774        0       0.02502304       0.01445007       0.00910968
