31
Lattice="8.421641763931781 0.0 0.0 4.2108208819658905 7.293355709136913 0.0 0.0 0.0 44.584161137365626" Properties=species:S:1:pos:R:3:tags:I:1:forces:R:3 energy=-173.70989990234375 free_energy=-173.70989990234375 stress="0.010813931934535503 1.2711290353628613e-10 -4.749127757719407e-10 1.2711290353628613e-10 0.010813946835696697 1.0886319623537588e-09 -4.749127757719407e-10 1.0886319623537588e-09 0.00012008399789920077" pbc="T T T"
Pt       1.40360696       0.81037286      20.00000000        3      -0.00296092      -0.00171278      -0.00427192
Pt       4.21082088       0.81037286      20.00000000        3       0.00000137       0.00447947       0.01262984
Pt       7.01803480       0.81037286      20.00000000        3       0.00295963      -0.00171240      -0.00427204
Pt       2.80721392       3.24149143      20.00000000        3       0.00388207      -0.00224092       0.01262763
Pt       5.61442784       3.24149143      20.00000000        3      -0.00388274      -0.00224084       0.01262790
Pt       8.42164176       3.24149143      20.00000000        3       0.00000154      -0.00572868      -0.00772542
Pt       4.21082088       5.67261000      20.00000000        3       0.00000236       0.00342173      -0.00427210
Pt       7.01803480       5.67261000      20.00000000        3      -0.00496376       0.00286681      -0.00772417
Pt       9.82524872       5.67261000      20.00000000        3       0.00496058       0.00286771      -0.00772375
Pt      -0.00000000       1.62074571      22.29208057        2       0.00000139       0.00215715       0.02037173
Pt       2.80721392       1.62074571      22.29208057        2       0.06378072       0.03682209      -0.01406571
Pt       5.61442784       1.62074571      22.29208057        2      -0.06378210       0.03682186      -0.01406558
Pt       1.40360696       4.05186428      22.29208057        2       0.04977839      -0.02873893       0.04723111
Pt       4.21082088       4.05186428      22.29208057        2       0.00000122      -0.07364666      -0.01406527
Pt       7.01803480       4.05186428      22.29208057        2      -0.04978036      -0.02873887       0.04723028
Pt       2.80721392       6.48298285      22.29208057        2      -0.00186961      -0.00107864       0.02037200
Pt       5.61442784       6.48298285      22.29208057        2       0.00186885      -0.00107897       0.02037014
Pt       8.42164176       6.48298285      22.29208057        2       0.00000123       0.05748087       0.04722900
Pt       0.00000026      -0.00000018      24.59749797        1      -0.00000127      -0.00000141      -0.03699401
Pt       2.80279338      -0.00784107      24.60512663        1      -0.00181447       0.00154724      -0.01533276
Pt       5.61884853      -0.00784111      24.60512656        1       0.00181584       0.00154557      -0.01533340
Pt       1.39460666       2.43121024      24.60512734        1       0.00043111      -0.00234439      -0.01533283
Pt       4.21082086       2.43111809      24.66416238        1      -0.00000038       0.00000019      -0.02246323
Pt       7.02703532       2.43121026      24.60512752        1      -0.00043191      -0.00234605      -0.01533194
Pt       2.80263422       4.86998577      24.60512700        1       0.00224548       0.00079958      -0.01533283
Pt       5.61900758       4.86998580      24.60512670        1      -0.00224696       0.00079923      -0.01533248
Pt       8.42164125       4.86223715      24.59664143        1       0.00000234       0.00000021      -0.03495380
N        4.21082062       2.43111853      26.72911308        0      -0.00000200       0.00001171       0.01968110
H        5.05177826       1.94559190      27.05108242        0      -0.00082311       0.00047499       0.00141039
H        3.36986368       1.94559169      27.05108421        0       0.00082607       0.00047775       0.00140596
H        4.21082113       3.40217270      27.05108206        0      -0.00000064      -0.00096454       0.00140604
