31
Lattice="8.421641763931781 0.0 0.0 4.2108208819658905 7.293355709136913 0.0 0.0 0.0 44.584161137365626" Properties=species:S:1:pos:R:3:tags:I:1:forces:R:3 energy=-172.64569091796875 free_energy=-172.64569091796875 stress="0.010564271360635757 -3.323544564559633e-11 -4.677274123565667e-09 -3.323544564559633e-11 0.010564293712377548 -5.114971779462962e-10 -4.677274123565667e-09 -5.114971779462962e-10 0.00012948289804626256" pbc="T T T"
Pt       1.40360696       0.81037286      20.00000000        3      -0.00160621       0.00092598       0.00035697
Pt       4.21082088       0.81037286      20.00000000        3       0.00000182       0.00393031       0.00387195
Pt       7.01803480       0.81037286      20.00000000        3       0.00160436       0.00092524       0.00035739
Pt       2.80721392       3.24149143      20.00000000        3       0.00078933       0.00045430       0.03163311
Pt       5.61442784       3.24149143      20.00000000        3      -0.00079032       0.00045440       0.03163332
Pt       8.42164176       3.24149143      20.00000000        3       0.00000180      -0.00185513       0.00035623
Pt       4.21082088       5.67261000      20.00000000        3       0.00000205      -0.00090834       0.03163278
Pt       7.01803480       5.67261000      20.00000000        3      -0.00340641      -0.00196356       0.00386989
Pt       9.82524872       5.67261000      20.00000000        3       0.00340363      -0.00196309       0.00387001
Pt      -0.00000000       1.62074571      22.29208057        2       0.00000152      -0.00000205      -0.05205464
Pt       2.80721392       1.62074571      22.29208057        2       0.08638702       0.08268642       0.00364026
Pt       5.61442784       1.62074571      22.29208057        2      -0.08638810       0.08268569       0.00363990
Pt       1.40360696       4.05186428      22.29208057        2       0.11480259       0.03346643       0.00363821
Pt       4.21082088       4.05186428      22.29208057        2       0.00000102      -0.00000221       0.03506418
Pt       7.01803480       4.05186428      22.29208057        2      -0.11480448       0.03346610       0.00363781
Pt       2.80721392       6.48298285      22.29208057        2       0.02841733      -0.11615264       0.00363811
Pt       5.61442784       6.48298285      22.29208057        2      -0.02841878      -0.11615298       0.00363716
Pt       8.42164176       6.48298285      22.29208057        2       0.00000123       0.00000455      -0.05437942
Pt       0.00000026       0.00400354      24.58142022        1      -0.00000132       0.01598052      -0.00494798
Pt       2.80977469      -0.00147851      24.56614481        1      -0.00537999       0.00310737      -0.00713757
Pt       5.61186694      -0.00147869      24.56614460        1       0.00538118       0.00310874      -0.00713840
Pt       1.40013977       2.42911644      24.58142042        1      -0.01383935      -0.00798974      -0.00494717
Pt       4.21082081       2.40793796      24.63179896        1       0.00000052       0.01429018      -0.00862996
Pt       7.02150219       2.42911667      24.58142013        1       0.01383945      -0.00799476      -0.00494632
Pt       2.78713874       4.87382746      24.63179864        1       0.01238035      -0.00714619      -0.00861959
Pt       5.63450317       4.87382718      24.63179828        1      -0.01238353      -0.00714409      -0.00861886
Pt       8.42164165       4.86519405      24.56614545        1       0.00000324      -0.00621178      -0.00713596
N        4.21082085       4.05186435      26.88131803        0       0.00002329       0.00000172       0.03623340
H        3.41530687       3.59257376      26.36859339        0      -0.00275484      -0.00158696      -0.01072401
H        4.21082063       4.97044531      26.36859375        0       0.00000209       0.00315541      -0.01071963
H        5.00633531       3.59257303      26.36859315        0       0.00272954      -0.00156992      -0.01071143
