31
Lattice="8.421641763931781 0.0 0.0 4.2108208819658905 7.293355709136913 0.0 0.0 0.0 44.584161137365626" Properties=species:S:1:pos:R:3:tags:I:1:forces:R:3 energy=-173.7103729248047 free_energy=-173.7103729248047 stress="0.010685737244784832 -4.8986716905119465e-09 -2.105164514931701e-10 -4.8986716905119465e-09 0.010685746558010578 1.033877206069178e-09 -2.105164514931701e-10 1.033877206069178e-09 -2.564587521192152e-05" pbc="T T T"
Pt       1.40360696       0.81037286      20.00000000        3      -0.00261680      -0.00151418      -0.00632298
Pt       4.21082088       0.81037286      20.00000000        3       0.00000171       0.00467852       0.01230806
Pt       7.01803480       0.81037286      20.00000000        3       0.00261546      -0.00151430      -0.00632253
Pt       2.80721392       3.24149143      20.00000000        3       0.00405427      -0.00234008       0.01230600
Pt       5.61442784       3.24149143      20.00000000        3      -0.00405486      -0.00234023       0.01230675
Pt       8.42164176       3.24149143      20.00000000        3       0.00000074      -0.00609066      -0.00951341
Pt       4.21082088       5.67261000      20.00000000        3       0.00000210       0.00302464      -0.00632206
Pt       7.01803480       5.67261000      20.00000000        3      -0.00527719       0.00304848      -0.00951287
Pt       9.82524872       5.67261000      20.00000000        3       0.00527411       0.00304841      -0.00951147
Pt      -0.00000000       1.62074571      22.29208057        2      -0.00000006       0.00720519      -0.00248714
Pt       2.80721392       1.62074571      22.29208057        2       0.06798488       0.03924987      -0.02956118
Pt       5.61442784       1.62074571      22.29208057        2      -0.06798407       0.03924999      -0.02955804
Pt       1.40360696       4.05186428      22.29208057        2       0.05413283      -0.03125151       0.02824020
Pt       4.21082088       4.05186428      22.29208057        2       0.00000102      -0.07850067      -0.02955889
Pt       7.01803480       4.05186428      22.29208057        2      -0.05413254      -0.03125382       0.02824270
Pt       2.80721392       6.48298285      22.29208057        2      -0.00624032      -0.00360313      -0.00249013
Pt       5.61442784       6.48298285      22.29208057        2       0.00623991      -0.00360289      -0.00249213
Pt       8.42164176       6.48298285      22.29208057        2       0.00000209       0.06250682       0.02823679
Pt       0.00000110      -0.00000077      24.58864836        1      -0.00000209       0.00000304       0.00346124
Pt       2.80233672      -0.00702381      24.60075614        1       0.00325622      -0.00412570       0.00139253
Pt       5.61930646      -0.00702389      24.60075627        1      -0.00325720      -0.00412180       0.00139183
Pt       1.39508617       2.43040556      24.60075639        1      -0.00194699       0.00488060       0.00139356
Pt       4.21082045       2.43111852      24.66180642        1      -0.00000024       0.00000136       0.00860515
Pt       7.02655657       2.43040567      24.60075682        1       0.00194428       0.00488208       0.00138371
Pt       2.80357098       4.86997349      24.60075679        1      -0.00519685      -0.00075880       0.00138368
Pt       5.61807181       4.86997315      24.60075638        1       0.00520097      -0.00075981       0.00139216
Pt       8.42164287       4.86223690      24.58827049        1      -0.00000740      -0.00000077       0.00225270
N        4.21081795       2.43111927      26.72938187        0       0.00003055      -0.00001146       0.01155889
H        3.36964126       1.94546438      27.05155351        0       0.00918673       0.00530728      -0.00406989
H        4.21081881       3.40242760      27.05155221        0      -0.00000096      -0.01061670      -0.00406576
H        5.05199649       1.94546459      27.05155012        0      -0.00921018       0.00532004      -0.00406755
