31
Lattice="8.421641763931781 0.0 0.0 4.2108208819658905 7.293355709136913 0.0 0.0 0.0 44.584161137365626" Properties=species:S:1:pos:R:3:tags:I:1:forces:R:3 energy=-173.71566772460938 free_energy=-173.71566772460938 stress="0.010731200687587261 -1.4076374510452183e-09 -4.080074056389549e-09 -1.4076374510452183e-09 0.010731221176683903 3.9722652944718106e-10 -4.080074056389549e-09 3.9722652944718106e-10 2.112109723384492e-05" pbc="T T T"
Pt       1.40360696       0.81037286      20.00000000        3      -0.00180223      -0.00169912      -0.00492010
Pt       4.21082088       0.81037286      20.00000000        3       0.00013001       0.00453600       0.01195246
Pt       7.01803480       0.81037286      20.00000000        3       0.00236764      -0.00071583      -0.00492063
Pt       2.80721392       3.24149143      20.00000000        3       0.00386585      -0.00238019       0.01195112
Pt       5.61442784       3.24149143      20.00000000        3      -0.00399536      -0.00215731       0.01195091
Pt       8.42164176       3.24149143      20.00000000        3      -0.00072482      -0.00597875      -0.00801870
Pt       4.21082088       5.67261000      20.00000000        3      -0.00056520       0.00241075      -0.00491980
Pt       7.01803480       5.67261000      20.00000000        3      -0.00481715       0.00362130      -0.00801849
Pt       9.82524872       5.67261000      20.00000000        3       0.00554037       0.00236301      -0.00801817
Pt      -0.00000000       1.62074571      22.29208057        2      -0.00999627       0.00663446       0.01780169
Pt       2.80721392       1.62074571      22.29208057        2       0.05764086       0.03345928      -0.03198239
Pt       5.61442784       1.62074571      22.29208057        2      -0.05780056       0.03318552      -0.03198368
Pt       1.40360696       4.05186428      22.29208057        2       0.05194960      -0.02600396       0.04052645
Pt       4.21082088       4.05186428      22.29208057        2       0.00015983      -0.06664734      -0.03198291
Pt       7.01803480       4.05186428      22.29208057        2      -0.04849632      -0.03198639       0.04052829
Pt       2.80721392       6.48298285      22.29208057        2      -0.00074713      -0.01197575       0.01779971
Pt       5.61442784       6.48298285      22.29208057        2       0.01074500       0.00534154       0.01780119
Pt       8.42164176       6.48298285      22.29208057        2      -0.00345415       0.05799345       0.04052601
Pt       0.00000003      -0.00000018      24.59176402        1       0.00000393      -0.00000065      -0.01549613
Pt       2.80876721       0.00498575      24.60838647        1      -0.02505548      -0.03914578      -0.01027822
Pt       5.62249312      -0.01412627      24.60009102        1       0.01577558      -0.01933974      -0.01380581
Pt       1.38734092       2.43119678      24.60009131        1      -0.02464082      -0.00399299      -0.01380496
Pt       4.21082046       2.43111859      24.65833183        1      -0.00000079       0.00000052      -0.02940884
Pt       7.01294002       2.42997024      24.60838677        1       0.04642814      -0.00212228      -0.01027660
Pt       2.81075530       4.85839916      24.60838675        1      -0.02137006       0.04126691      -0.01027676
Pt       5.62262851       4.87628482      24.60009147        1       0.00886223       0.02333657      -0.01380615
Pt       8.42164192       4.86223724      24.59135537        1      -0.00000404      -0.00000299      -0.01073202
N        4.21082079       2.43111851      26.72027506        0      -0.00001854      -0.00000465       0.04298341
H        3.72502658       3.27220541      27.04137296        0      -0.00976686       0.01452178       0.00294097
H        5.18212025       2.43128523      27.04137106        0       0.01747848       0.00119891       0.00294951
H        3.72531593       1.58986456      27.04137225        0      -0.00769177      -0.01571631       0.00293898
