31
Lattice="8.421641763931781 0.0 0.0 4.2108208819658905 7.293355709136913 0.0 0.0 0.0 44.584161137365626" Properties=species:S:1:pos:R:3:tags:I:1:forces:R:3 energy=-173.7158660888672 free_energy=-173.7158660888672 stress="0.010695421136915684 2.879892324614275e-09 6.312092626359345e-09 2.879892324614275e-09 0.0106954425573349 4.777601425587363e-09 6.312092626359345e-09 4.777601425587363e-09 5.3992389439372346e-05" pbc="T T T"
Pt       1.40360696       0.81037286      20.00000000        3      -0.00274119      -0.00111014      -0.00573421
Pt       4.21082088       0.81037286      20.00000000        3      -0.00044670       0.00437317       0.01247242
Pt       7.01803480       0.81037286      20.00000000        3       0.00232788      -0.00182301      -0.00573498
Pt       2.80721392       3.24149143      20.00000000        3       0.00401351      -0.00180001       0.01247096
Pt       5.61442784       3.24149143      20.00000000        3      -0.00356675      -0.00257545       0.01247081
Pt       8.42164176       3.24149143      20.00000000        3       0.00056914      -0.00634742      -0.00905123
Pt       4.21082088       5.67261000      20.00000000        3       0.00041391       0.00293016      -0.00573441
Pt       7.01803480       5.67261000      20.00000000        3      -0.00578318       0.00268526      -0.00905001
Pt       9.82524872       5.67261000      20.00000000        3       0.00521260       0.00366811      -0.00905052
Pt      -0.00000000       1.62074571      22.29208057        2       0.00927159       0.00777694       0.00324124
Pt       2.80721392       1.62074571      22.29208057        2       0.06639559       0.03545005      -0.02262575
Pt       5.61442784       1.62074571      22.29208057        2      -0.06390142       0.03977181      -0.02262655
Pt       1.40360696       4.05186428      22.29208057        2       0.05539739      -0.03333310       0.03390519
Pt       4.21082088       4.05186428      22.29208057        2      -0.00249324      -0.07522534      -0.02262589
Pt       7.01803480       4.05186428      22.29208057        2      -0.05656730      -0.03130784       0.03390649
Pt       2.80721392       6.48298285      22.29208057        2      -0.01137087       0.00413981       0.00323963
Pt       5.61442784       6.48298285      22.29208057        2       0.00210096      -0.01191649       0.00323955
Pt       8.42164176       6.48298285      22.29208057        2       0.00116935       0.06464362       0.03390354
Pt       0.00000028      -0.00000020      24.58864065        1       0.00000000       0.00000012       0.00205091
Pt       2.79586955      -0.01940950      24.60028250        1       0.01051084       0.02521059      -0.01355320
Pt       5.61371645       0.00285075      24.60570058        1       0.00598619      -0.00342987       0.00132129
Pt       1.40643179       2.43030880      24.60570052        1      -0.00596351      -0.00347016       0.00132149
Pt       4.21082098       2.43111835      24.65962372        1      -0.00000077       0.00000231       0.02949017
Pt       7.04051582       2.43099839      24.60028249        1      -0.02708881      -0.00350054      -0.01355307
Pt       2.79607723       4.88176646      24.60028233        1       0.01658012      -0.02170920      -0.01355256
Pt       5.61231427       4.86019572      24.60570064        1      -0.00001992       0.00689825       0.00132060
Pt       8.42164186       4.86223688      24.58918306        1      -0.00000505      -0.00000052      -0.00003785
N        4.21082062       2.43111844      26.72769410        0       0.00004265       0.00001568       0.01218134
H        4.69497068       1.59012416      27.05203713        0       0.00965533      -0.01917748      -0.01453476
H        3.24042419       2.43232984      27.05203718        0      -0.02146754       0.00122237      -0.01452552
H        4.69706876       3.27090154      27.05203731        0       0.01176912       0.01793812      -0.01454513
