31
Lattice="8.421641763931781 0.0 0.0 4.2108208819658905 7.293355709136913 0.0 0.0 0.0 44.584161137365626" Properties=species:S:1:pos:R:3:tags:I:1:forces:R:3 energy=-172.64501953125 free_energy=-172.64501953125 stress="0.010480822063982487 5.048808593421938e-10 2.6799187313741868e-09 5.048808593421938e-10 0.010480819270014763 4.7367900712913524e-09 2.6799187313741868e-09 4.7367900712913524e-09 5.02872444485547e-06" pbc="T T T"
Pt       1.40360696       0.81037286      20.00000000        3      -0.00206374       0.00118985      -0.00083426
Pt       4.21082088       0.81037286      20.00000000        3       0.00000222       0.00430236       0.00125542
Pt       7.01803480       0.81037286      20.00000000        3       0.00206211       0.00118975      -0.00083429
Pt       2.80721392       3.24149143      20.00000000        3       0.00083014       0.00047832       0.03291115
Pt       5.61442784       3.24149143      20.00000000        3      -0.00083045       0.00047838       0.03291130
Pt       8.42164176       3.24149143      20.00000000        3       0.00000094      -0.00238383      -0.00083610
Pt       4.21082088       5.67261000      20.00000000        3       0.00000199      -0.00095585       0.03291228
Pt       7.01803480       5.67261000      20.00000000        3      -0.00372926      -0.00214991       0.00125414
Pt       9.82524872       5.67261000      20.00000000        3       0.00372579      -0.00214959       0.00125483
Pt      -0.00000000       1.62074571      22.29208057        2       0.00000128      -0.00000208      -0.05686323
Pt       2.80721392       1.62074571      22.29208057        2       0.08613352       0.09566998      -0.01345951
Pt       5.61442784       1.62074571      22.29208057        2      -0.08613466       0.09566990      -0.01345950
Pt       1.40360696       4.05186428      22.29208057        2       0.12592319       0.02675918      -0.01345612
Pt       4.21082088       4.05186428      22.29208057        2       0.00000039       0.00000065       0.03622441
Pt       7.01803480       4.05186428      22.29208057        2      -0.12592332       0.02675732      -0.01345811
Pt       2.80721392       6.48298285      22.29208057        2       0.03978768      -0.12242972      -0.01345689
Pt       5.61442784       6.48298285      22.29208057        2      -0.03978970      -0.12242736      -0.01346002
Pt       8.42164176       6.48298285      22.29208057        2       0.00000174       0.00000263      -0.08502245
Pt       0.00000025       0.00255817      24.58008541        1      -0.00000040       0.02804042       0.00056915
Pt       2.80869390      -0.00085453      24.55778881        1       0.00109264      -0.00063218       0.03598835
Pt       5.61294796      -0.00085456      24.55778875        1      -0.00109113      -0.00063303       0.03598884
Pt       1.40139171       2.42983925      24.58008536        1      -0.02428585      -0.01401888       0.00056918
Pt       4.21082074       2.40505186      24.63193013        1       0.00000203       0.03447274      -0.01019870
Pt       7.02025019       2.42983940      24.58008592        1       0.02428312      -0.01401985       0.00056918
Pt       2.78463997       4.87527039      24.63193041        1       0.02984944      -0.01723505      -0.01020800
Pt       5.63700205       4.87527023      24.63192993        1      -0.02985310      -0.01723715      -0.01019967
Pt       8.42164101       4.86394551      24.55778930        1       0.00000347       0.00126272       0.03598963
N        4.21082096       4.05186440      26.87787215        0      -0.00001727      -0.00002579       0.01671010
H        4.21082118       4.97111279      26.36492550        0      -0.00000022      -0.01586938      -0.00312787
H        5.00691346       3.59224018      26.36492536        0      -0.01375765       0.00794261      -0.00312236
H        3.41472800       3.59223984      26.36492533        0       0.01377502       0.00795271      -0.00311059
