31
Lattice="8.421641763931781 0.0 0.0 4.2108208819658905 7.293355709136913 0.0 0.0 0.0 44.584161137365626" Properties=species:S:1:pos:R:3:tags:I:1:forces:R:3 energy=-172.8055419921875 free_energy=-172.8055419921875 stress="0.010231121443212032 -2.077746466966346e-05 9.825522283790633e-05 -2.077746466966346e-05 0.010255124419927597 5.672452607541345e-05 9.825522283790633e-05 5.672452607541345e-05 -5.921731280977838e-05" pbc="T T T"
Pt       1.40360696       0.81037286      20.00000000        3      -0.00366948       0.00022213      -0.00474992
Pt       4.21082088       0.81037286      20.00000000        3       0.00073074       0.00307094       0.00427297
Pt       7.01803480       0.81037286      20.00000000        3      -0.00051981      -0.00030117      -0.00791025
Pt       2.80721392       3.24149143      20.00000000        3       0.00016059       0.00009155       0.03383100
Pt       5.61442784       3.24149143      20.00000000        3      -0.00297567      -0.00394557       0.00620329
Pt       8.42164176       3.24149143      20.00000000        3      -0.00163962      -0.00329068      -0.00475189
Pt       4.21082088       5.67261000      20.00000000        3      -0.00490141      -0.00060127       0.00620496
Pt       7.01803480       5.67261000      20.00000000        3      -0.00143402      -0.00082415      -0.01466116
Pt       9.82524872       5.67261000      20.00000000        3       0.00302439      -0.00090222       0.00427097
Pt      -0.00000000       1.62074571      22.29208057        2       0.10110340       0.05836842      -0.04285002
Pt       2.80721392       1.62074571      22.29208057        2       0.06775229       0.13291481       0.02001769
Pt       5.61442784       1.62074571      22.29208057        2      -0.14976291       0.10423385       0.05780830
Pt       1.40360696       4.05186428      22.29208057        2       0.14898944      -0.00778245       0.02002253
Pt       4.21082088       4.05186428      22.29208057        2      -0.08819669      -0.05091770       0.06140760
Pt       7.01803480       4.05186428      22.29208057        2       0.00215141      -0.01868598      -0.08240573
Pt       2.80721392       6.48298285      22.29208057        2       0.01539236      -0.18181689       0.05781692
Pt       5.61442784       6.48298285      22.29208057        2      -0.01510877       0.01121137      -0.08240128
Pt       8.42164176       6.48298285      22.29208057        2       0.05876581       0.03393228      -0.07098626
Pt       0.02618287       0.01409889      24.56334855        1      -0.03699654       0.00791748       0.01109165
Pt       2.83504893       0.01203231      24.56748856        1      -0.00525327      -0.01787234       0.00482458
Pt       5.64353874       0.01680783      24.56492761        1      -0.01650579      -0.00954110      -0.01173893
Pt       1.39736622       2.42751406      24.59225130        1      -0.00990584      -0.00570925       0.01753021
Pt       4.25819059       2.43372285      24.62335620        1       0.00758210      -0.01097985      -0.02258040
Pt       7.04333467       2.44674494      24.56334919        1      -0.01162513      -0.03600530       0.01109406
Pt       2.83315507       4.90195719      24.62335729        1      -0.00572374       0.01207083      -0.02259928
Pt       5.66130735       4.88930208      24.57053575        1      -0.03597922      -0.02076153      -0.01219970
Pt       8.44597833       4.88032710      24.56748664        1      -0.01809051       0.00438436       0.00483607
N        3.03972356       3.37573027      26.90603387        0      -0.01215060      -0.00697982       0.04630572
H        3.90002557       2.92327102      26.54187879        0       0.01464473      -0.00886439      -0.00789437
H        2.26262003       2.92707137      26.37849797        0       0.00048104       0.00025836       0.02805906
H        3.07803166       4.34700365      26.54187861        0      -0.00033921       0.01710524      -0.00786834
