31
Lattice="8.421641763931781 0.0 0.0 4.2108208819658905 7.293355709136913 0.0 0.0 0.0 44.584161137365626" Properties=species:S:1:pos:R:3:tags:I:1:forces:R:3 energy=-173.71566772460938 free_energy=-173.71566772460938 stress="0.010731215588748455 -1.2018823269954737e-08 8.394470896178063e-09 -1.2018823269954737e-08 0.010731250047683716 -1.0812179596086935e-08 8.394470896178063e-09 -1.0812179596086935e-08 2.1122870748513378e-05" pbc="T T T"
Pt       1.40360696       0.81037286      20.00000000        3      -0.00236929      -0.00071555      -0.00491965
Pt       4.21082088       0.81037286      20.00000000        3      -0.00012631       0.00453611       0.01195255
Pt       7.01803480       0.81037286      20.00000000        3       0.00179977      -0.00169800      -0.00492057
Pt       2.80721392       3.24149143      20.00000000        3       0.00399493      -0.00215808       0.01195124
Pt       5.61442784       3.24149143      20.00000000        3      -0.00386775      -0.00237978       0.01195142
Pt       8.42164176       3.24149143      20.00000000        3       0.00072784      -0.00597904      -0.00801951
Pt       4.21082088       5.67261000      20.00000000        3       0.00057003       0.00241057      -0.00491986
Pt       7.01803480       5.67261000      20.00000000        3      -0.00554362       0.00236308      -0.00801915
Pt       9.82524872       5.67261000      20.00000000        3       0.00481411       0.00362143      -0.00801888
Pt      -0.00000000       1.62074571      22.29208057        2       0.01000148       0.00663362       0.01779531
Pt       2.80721392       1.62074571      22.29208057        2       0.05779994       0.03318800      -0.03199102
Pt       5.61442784       1.62074571      22.29208057        2      -0.05764475       0.03345941      -0.03199190
Pt       1.40360696       4.05186428      22.29208057        2       0.04849345      -0.03198859       0.04051950
Pt       4.21082088       4.05186428      22.29208057        2      -0.00015550      -0.06665026      -0.03199127
Pt       7.01803480       4.05186428      22.29208057        2      -0.05195118      -0.02600089       0.04052074
Pt       2.80721392       6.48298285      22.29208057        2      -0.01074572       0.00534245       0.01779457
Pt       5.61442784       6.48298285      22.29208057        2       0.00074576      -0.01197722       0.01779434
Pt       8.42164176       6.48298285      22.29208057        2       0.00345682       0.05799272       0.04051812
Pt       0.00000025      -0.00000022      24.59176257        1      -0.00000017      -0.00000049      -0.01549187
Pt       2.79914976      -0.01412415      24.60008814        1      -0.01578508      -0.01935782      -0.01379123
Pt       5.61287431       0.00498621      24.60838473        1       0.02505974      -0.03915408      -0.01027305
Pt       1.40870235       2.42997011      24.60838504        1      -0.04643816      -0.00212281      -0.01027241
Pt       4.21082097       2.43111779      24.65833121        1      -0.00000266       0.00000036      -0.02935341
Pt       7.03429838       2.43119643      24.60008822        1       0.02465590      -0.00399015      -0.01378949
Pt       2.79901446       4.87628269      24.60008840        1      -0.00886875       0.02334664      -0.01379040
Pt       5.61088576       4.85839807      24.60838478        1       0.02138175       0.04127967      -0.01027319
Pt       8.42164185       4.86223722      24.59135467        1      -0.00000364      -0.00000285      -0.01072544
N        4.21082010       2.43111946      26.72028249        0       0.00008498      -0.00008219       0.04301852
H        4.69632829       1.58986141      27.04137719        0       0.00759669      -0.01555192       0.00288581
H        3.23951818       2.43128633      27.04137580        0      -0.01739204       0.00120251       0.00292911
H        4.69661751       3.27220884      27.04137449        0       0.00971155       0.01443323       0.00292096
