31
Lattice="8.421641763931781 0.0 0.0 4.2108208819658905 7.293355709136913 0.0 0.0 0.0 44.584161137365626" Properties=species:S:1:pos:R:3:tags:I:1:forces:R:3 energy=-173.71240234375 free_energy=-173.71240234375 stress="0.010804617777466774 -1.3722899483425977e-09 -7.3935829680849e-10 -1.3722899483425977e-09 0.010804642923176289 -3.139466908663735e-09 -7.3935829680849e-10 -3.139466908663735e-09 0.000119526288472116" pbc="T T T"
Pt       1.40360696       0.81037286      20.00000000        3      -0.00291293      -0.00168475      -0.00487313
Pt       4.21082088       0.81037286      20.00000000        3       0.00000179       0.00485776       0.01284924
Pt       7.01803480       0.81037286      20.00000000        3       0.00291137      -0.00168439      -0.00487351
Pt       2.80721392       3.24149143      20.00000000        3       0.00420960      -0.00242989       0.01284784
Pt       5.61442784       3.24149143      20.00000000        3      -0.00420996      -0.00242998       0.01284811
Pt       8.42164176       3.24149143      20.00000000        3       0.00000105      -0.00613952      -0.00782517
Pt       4.21082088       5.67261000      20.00000000        3       0.00000197       0.00336560      -0.00487360
Pt       7.01803480       5.67261000      20.00000000        3      -0.00531951       0.00307223      -0.00782454
Pt       9.82524872       5.67261000      20.00000000        3       0.00531653       0.00307278      -0.00782418
Pt      -0.00000000       1.62074571      22.29208057        2       0.00000122       0.00472994       0.01918767
Pt       2.80721392       1.62074571      22.29208057        2       0.06503945       0.03754859      -0.01545943
Pt       5.61442784       1.62074571      22.29208057        2      -0.06504054       0.03754811      -0.01546038
Pt       1.40360696       4.05186428      22.29208057        2       0.05057167      -0.02919706       0.05123081
Pt       4.21082088       4.05186428      22.29208057        2       0.00000115      -0.07509992      -0.01545997
Pt       7.01803480       4.05186428      22.29208057        2      -0.05057320      -0.02919653       0.05123004
Pt       2.80721392       6.48298285      22.29208057        2      -0.00409752      -0.00236532       0.01918717
Pt       5.61442784       6.48298285      22.29208057        2       0.00409685      -0.00236455       0.01918594
Pt       8.42164176       6.48298285      22.29208057        2       0.00000108       0.05839644       0.05122918
Pt       0.00000037      -0.00000020      24.59619189        1      -0.00000226      -0.00000095      -0.03323352
Pt       2.80062233      -0.00694876      24.60522794        1       0.00592688      -0.00245154      -0.01702324
Pt       5.62101951      -0.00694844      24.60522848        1      -0.00592524      -0.00245371      -0.01702388
Pt       1.39429383       2.42888419      24.60522853        1       0.00083747       0.00635654      -0.01702344
Pt       4.21082067       2.43111833      24.66367989        1       0.00000033       0.00000076      -0.02414584
Pt       7.02734772       2.42888411      24.60522795        1      -0.00083774       0.00635642      -0.01702297
Pt       2.80449243       4.87141964      24.60522823        1      -0.00508736      -0.00390223      -0.01702364
Pt       5.61714945       4.87141956      24.60522808        1       0.00508584      -0.00390478      -0.01702328
Pt       8.42164132       4.86223713      24.59631170        1       0.00000139       0.00000111      -0.03170329
N        4.21082095       2.43111890      26.72836850        0      -0.00000742      -0.00003269       0.01974654
H        4.21082122       1.46001680      27.05000672        0      -0.00000064      -0.00030448       0.00204532
H        3.36982256       2.91666933      27.05000729        0      -0.00028208       0.00016524       0.00205374
H        5.05181963       2.91666893      27.05000595        0       0.00029069       0.00017078       0.00205501
