31
Lattice="8.421641763931781 0.0 0.0 4.2108208819658905 7.293355709136913 0.0 0.0 0.0 44.584161137365626" Properties=species:S:1:pos:R:3:tags:I:1:forces:R:3 energy=-172.80897521972656 free_energy=-172.80897521972656 stress="0.010249936953186989 -2.9389913834165782e-05 1.2051390285705565e-06 -2.9389913834165782e-05 0.010283923707902431 6.988058203205583e-07 1.2051390285705565e-06 6.988058203205583e-07 -5.034954938309966e-06" pbc="T T T"
Pt       1.40360696       0.81037286      20.00000000        3      -0.00260796       0.00156728      -0.00206870
Pt       4.21082088       0.81037286      20.00000000        3       0.00154616       0.00357693       0.00241169
Pt       7.01803480       0.81037286      20.00000000        3       0.00009674       0.00005515      -0.00896937
Pt       2.80721392       3.24149143      20.00000000        3       0.00104802       0.00060407       0.03430635
Pt       5.61442784       3.24149143      20.00000000        3      -0.00173645      -0.00380917       0.00406429
Pt       8.42164176       3.24149143      20.00000000        3       0.00005693      -0.00304367      -0.00206882
Pt       4.21082088       5.67261000      20.00000000        3      -0.00416363       0.00040386       0.00406435
Pt       7.01803480       5.67261000      20.00000000        3      -0.00013006      -0.00007163      -0.01603729
Pt       9.82524872       5.67261000      20.00000000        3       0.00387024      -0.00044949       0.00241116
Pt      -0.00000000       1.62074571      22.29208057        2       0.10317198       0.05956597      -0.02880633
Pt       2.80721392       1.62074571      22.29208057        2       0.04131750       0.12694725       0.03362900
Pt       5.61442784       1.62074571      22.29208057        2      -0.15789679       0.09304652       0.05009688
Pt       1.40360696       4.05186428      22.29208057        2       0.13059716      -0.02769331       0.03362968
Pt       4.21082088       4.05186428      22.29208057        2      -0.11024884      -0.06365470       0.05075226
Pt       7.01803480       4.05186428      22.29208057        2      -0.00396838      -0.03556968      -0.07853258
Pt       2.80721392       6.48298285      22.29208057        2       0.00163291      -0.18326336       0.05008677
Pt       5.61442784       6.48298285      22.29208057        2      -0.03278755       0.01435056      -0.07853906
Pt       8.42164176       6.48298285      22.29208057        2       0.03575213       0.02064348      -0.07619899
Pt       0.00235274       0.00811730      24.56456238        1      -0.00497335      -0.01181977       0.00390667
Pt       2.81085605      -0.00332698      24.56711313        1      -0.00097479      -0.00224011       0.00480363
Pt       5.61643584       0.00115737      24.56195719        1       0.01675033       0.00969171       0.00477658
Pt       1.38424403       2.41993965      24.60122842        1       0.00206836       0.00119228       0.01021295
Pt       4.23993137       2.42001406      24.62122229        1      -0.00170749       0.00020923      -0.00540416
Pt       7.02624231       2.42909777      24.56456363        1      -0.01273899       0.00159819       0.00389689
Pt       2.81215211       4.89300165      24.62122077        1      -0.00067031      -0.00160588      -0.00538885
Pt       5.63221257       4.87250571      24.56471697        1       0.00104435       0.00059893       0.01162083
Pt       8.42058124       4.86705520      24.56711486        1      -0.00242902       0.00027244       0.00479722
N        3.00406883       3.35514776      26.92569616        0       0.01964219       0.01131786       0.02495790
H        3.85459020       2.89489534      26.54854480        0      -0.00541155      -0.00316176      -0.00567033
H        2.21068749       2.89708321      26.43661698        0      -0.01066250      -0.00610380      -0.02104623
H        3.03074305       4.32184948      26.54854823        0      -0.00548730      -0.00315532      -0.00569484
