31
Lattice="8.421641763931781 0.0 0.0 4.2108208819658905 7.293355709136913 0.0 0.0 0.0 44.584161137365626" Properties=species:S:1:pos:R:3:tags:I:1:forces:R:3 energy=-172.65090942382812 free_energy=-172.65090942382812 stress="0.010420489124953747 -1.0849636744580948e-09 4.24705914880974e-09 -1.0849636744580948e-09 0.010420504957437515 -1.6814108994012145e-09 4.24705914880974e-09 -1.6814108994012145e-09 -9.684562428446952e-06" pbc="T T T"
Pt       1.40360696       0.81037286      20.00000000        3       0.00000087      -0.00000304      -0.00922692
Pt       4.21082088       0.81037286      20.00000000        3      -0.00161695       0.00377583       0.01037943
Pt       7.01803480       0.81037286      20.00000000        3       0.00161645       0.00377526       0.01037854
Pt       2.80721392       3.24149143      20.00000000        3       0.00246358      -0.00329087       0.01037779
Pt       5.61442784       3.24149143      20.00000000        3      -0.00000241      -0.00000002       0.05188462
Pt       8.42164176       3.24149143      20.00000000        3      -0.00246086      -0.00329019       0.01037639
Pt       4.21082088       5.67261000      20.00000000        3       0.00408319      -0.00048533       0.01037821
Pt       7.01803480       5.67261000      20.00000000        3      -0.00408318      -0.00048459       0.01037693
Pt       9.82524872       5.67261000      20.00000000        3      -0.00000085       0.00000272      -0.00294697
Pt      -0.00000000       1.62074571      22.29208057        2      -0.14261983       0.08233933      -0.01449918
Pt       2.80721392       1.62074571      22.29208057        2       0.14262128       0.08234000      -0.01450042
Pt       5.61442784       1.62074571      22.29208057        2      -0.00000077       0.10560553      -0.00440093
Pt       1.40360696       4.05186428      22.29208057        2       0.00000140      -0.00523535      -0.04636945
Pt       4.21082088       4.05186428      22.29208057        2       0.09145943      -0.05280340      -0.00440160
Pt       7.01803480       4.05186428      22.29208057        2      -0.09146166      -0.05280512      -0.00440101
Pt       2.80721392       6.48298285      22.29208057        2       0.00453473       0.00261896      -0.04636986
Pt       5.61442784       6.48298285      22.29208057        2      -0.00000227      -0.16468200      -0.01450180
Pt       8.42164176       6.48298285      22.29208057        2      -0.00453233       0.00262103      -0.04636959
Pt       0.00520189       0.00300327      24.55814372        1      -0.02220087      -0.01282127       0.03848247
Pt       2.80201206       0.00300294      24.55814299        1       0.02220425      -0.01281817       0.03848192
Pt       5.61442798       0.00060291      24.57922954        1      -0.00000349      -0.02770196       0.00173289
Pt       1.40360705       2.42511202      24.55814342        1       0.00000128       0.02563682       0.03848262
Pt       4.18051122       2.41361900      24.62834526        1       0.03288868       0.01898767      -0.01524585
Pt       7.04834443       2.41361916      24.62834687        1      -0.03288944       0.01898672      -0.01525445
Pt       2.80773588       4.86193556      24.57922947        1      -0.02398908       0.01385074       0.00173412
Pt       5.61442826       4.89723553      24.62834556        1      -0.00000466      -0.03797367      -0.01524563
Pt       8.42111900       4.86193524      24.57922990        1       0.02399379       0.01385440       0.00173551
N        5.61442793       3.24149152      26.85408981        0      -0.00001882       0.00000245       0.03309074
H        6.41146243       3.70165929      26.34143899        0      -0.01376766      -0.00794634      -0.00472328
H        5.61442820       2.32115556      26.34143904        0      -0.00000285       0.01590551      -0.00471929
H        4.81739343       3.70165980      26.34143872        0       0.01378891      -0.00796168      -0.00471595
