31
Lattice="8.421641763931781 0.0 0.0 4.2108208819658905 7.293355709136913 0.0 0.0 0.0 44.584161137365626" Properties=species:S:1:pos:R:3:tags:I:1:forces:R:3 energy=-173.71255493164062 free_energy=-173.71255493164062 stress="0.010737701319158077 1.1802437249741615e-08 8.715857369168134e-09 1.1802437249741615e-08 0.010737717151641846 -2.391521425337828e-09 8.715857369168134e-09 -2.391521425337828e-09 1.2316280844970606e-05" pbc="T T T"
Pt       1.40360696       0.81037286      20.00000000        3      -0.00309183      -0.00178813      -0.00688440
Pt       4.21082088       0.81037286      20.00000000        3       0.00000184       0.00538854       0.01373199
Pt       7.01803480       0.81037286      20.00000000        3       0.00309040      -0.00178792      -0.00688541
Pt       2.80721392       3.24149143      20.00000000        3       0.00466874      -0.00269513       0.01372984
Pt       5.61442784       3.24149143      20.00000000        3      -0.00466969      -0.00269513       0.01373020
Pt       8.42164176       3.24149143      20.00000000        3       0.00000123      -0.00631326      -0.01009539
Pt       4.21082088       5.67261000      20.00000000        3       0.00000231       0.00357269      -0.00688511
Pt       7.01803480       5.67261000      20.00000000        3      -0.00547009       0.00315939      -0.01009464
Pt       9.82524872       5.67261000      20.00000000        3       0.00546691       0.00315978      -0.01009434
Pt      -0.00000000       1.62074571      22.29208057        2       0.00000173       0.00557431       0.00163827
Pt       2.80721392       1.62074571      22.29208057        2       0.07609660       0.04393160      -0.02060345
Pt       5.61442784       1.62074571      22.29208057        2      -0.07609807       0.04393186      -0.02060399
Pt       1.40360696       4.05186428      22.29208057        2       0.05734640      -0.03310852       0.03225609
Pt       4.21082088       4.05186428      22.29208057        2       0.00000191      -0.08786708      -0.02060297
Pt       7.01803480       4.05186428      22.29208057        2      -0.05734847      -0.03310762       0.03225579
Pt       2.80721392       6.48298285      22.29208057        2      -0.00482930      -0.00278749       0.00163873
Pt       5.61442784       6.48298285      22.29208057        2       0.00482817      -0.00278744       0.00163713
Pt       8.42164176       6.48298285      22.29208057        2       0.00000124       0.06621967       0.03225463
Pt       0.00000026      -0.00000012      24.59054580        1      -0.00000126      -0.00000126      -0.00889465
Pt       2.80082021      -0.00692740      24.60083906        1       0.00586141       0.00238783       0.00067501
Pt       5.62082171      -0.00692751      24.60083886        1      -0.00586044       0.00238705       0.00067462
Pt       1.39441113       2.42904483      24.60083959        1       0.00499877       0.00388223       0.00067575
Pt       4.21082116       2.43111843      24.67001042        1      -0.00000193      -0.00000024      -0.03260702
Pt       7.02723089       2.42904464      24.60083942        1      -0.00499881       0.00388126       0.00067666
Pt       2.80441175       4.87123792      24.60083949        1      -0.00086277      -0.00626823       0.00067499
Pt       5.61722984       4.87123790      24.60083930        1       0.00086208      -0.00626856       0.00067508
Pt       8.42164172       4.86223708      24.58858492        1       0.00000146       0.00000022       0.00282148
N        4.21082031       2.43111885      26.73726549        0       0.00008661      -0.00003144      -0.01462352
H        5.05409235       2.91798151      27.05381573        0      -0.04248074      -0.02452388       0.00636461
H        4.21082105       1.45739308      27.05381657        0      -0.00000237       0.04903357       0.00636992
H        3.36755053       2.91798091      27.05381579        0       0.04239795      -0.02447867       0.00639397
