31
Lattice="8.421641763931781 0.0 0.0 4.2108208819658905 7.293355709136913 0.0 0.0 0.0 44.584161137365626" Properties=species:S:1:pos:R:3:tags:I:1:forces:R:3 energy=-173.70559692382812 free_energy=-173.70559692382812 stress="0.010680962353944778 1.7453785403631628e-05 -0.00010528136772336438 1.7453785403631628e-05 0.010600600391626358 0.00012175767915323377 -0.00010528136772336438 0.00012175767915323377 4.422328402142739e-06" pbc="T T T"
Pt       1.40360696       0.81037286      20.00000000        3      -0.00224756      -0.00068944      -0.00501353
Pt       4.21082088       0.81037286      20.00000000        3       0.00095716       0.00497442       0.01107064
Pt       7.01803480       0.81037286      20.00000000        3       0.00408849      -0.00220128      -0.01003781
Pt       2.80721392       3.24149143      20.00000000        3       0.00467708      -0.00408575       0.01736653
Pt       5.61442784       3.24149143      20.00000000        3      -0.00301573      -0.00403617       0.01673979
Pt       8.42164176       3.24149143      20.00000000        3       0.00204608      -0.00818034      -0.00738090
Pt       4.21082088       5.67261000      20.00000000        3       0.00123572       0.00285406      -0.00643024
Pt       7.01803480       5.67261000      20.00000000        3      -0.00510730       0.00127145      -0.00841379
Pt       9.82524872       5.67261000      20.00000000        3       0.00621315       0.00175238      -0.01462758
Pt      -0.00000000       1.62074571      22.29208057        2       0.00650270       0.03726075       0.00007907
Pt       2.80721392       1.62074571      22.29208057        2       0.05810546       0.05580106      -0.02203125
Pt       5.61442784       1.62074571      22.29208057        2      -0.10744721       0.08023889       0.00217133
Pt       1.40360696       4.05186428      22.29208057        2       0.04110510      -0.04268732       0.01105744
Pt       4.21082088       4.05186428      22.29208057        2       0.00019069      -0.05744089      -0.04382987
Pt       7.01803480       4.05186428      22.29208057        2      -0.08085456      -0.02096764       0.02945350
Pt       2.80721392       6.48298285      22.29208057        2      -0.00737694       0.01092079      -0.02999615
Pt       5.61442784       6.48298285      22.29208057        2      -0.00455713      -0.00751188       0.00698784
Pt       8.42164176       6.48298285      22.29208057        2      -0.02817813       0.07577308       0.02054237
Pt      -0.01825423       0.02438729      24.58399834        1       0.02279162      -0.01538103       0.02071312
Pt       2.77945649       0.00926221      24.59872586        1       0.02069038      -0.01530327      -0.00513968
Pt       5.59993670       0.01568999      24.59287732        1      -0.01299792       0.00053942       0.02507180
Pt       1.38271534       2.45459196      24.60994988        1      -0.00089192      -0.02069833       0.00437945
Pt       4.18892034       2.44644847      24.67125036        1       0.03061352      -0.01336256       0.01159513
Pt       7.01045063       2.44891555      24.59968960        1       0.00169607      -0.00755734      -0.01161283
Pt       2.77457254       4.90396116      24.59095790        1       0.02726882      -0.01320614       0.00488641
Pt       5.59077471       4.88301922      24.61086156        1       0.00418408      -0.00611479      -0.00067005
Pt       8.39807608       4.88108270      24.58377747        1      -0.00082707      -0.00199720       0.02132717
N        4.01293816       2.73512765      26.71891574        0       0.01905824      -0.01661398       0.00543296
H        4.44085594       1.94838469      27.21344833        0      -0.00375993      -0.00550042      -0.04123967
H        3.01591261       2.80853735      26.94079374        0      -0.02514493      -0.02526782       0.00064017
H        4.48718889       3.61194626      26.95230731        0       0.03098182       0.01741719      -0.00309105
