31
Lattice="8.421641763931781 0.0 0.0 4.2108208819658905 7.293355709136913 0.0 0.0 0.0 44.584161137365626" Properties=species:S:1:pos:R:3:tags:I:1:forces:R:3 energy=-172.65139770507812 free_energy=-172.65139770507812 stress="0.010359590873122215 2.0686754531595852e-09 -2.2075319350278733e-09 2.0686754531595852e-09 0.010359599255025387 4.290590549516082e-09 -2.2075319350278733e-09 4.290590549516082e-09 -4.0901824831962585e-05" pbc="T T T"
Pt       1.40360696       0.81037286      20.00000000        3       0.00000123      -0.00000268      -0.00685531
Pt       4.21082088       0.81037286      20.00000000        3      -0.00128930       0.00270286       0.00972739
Pt       7.01803480       0.81037286      20.00000000        3       0.00128827       0.00270175       0.00972545
Pt       2.80721392       3.24149143      20.00000000        3       0.00169794      -0.00247136       0.00972489
Pt       5.61442784       3.24149143      20.00000000        3      -0.00000189      -0.00000044       0.04421851
Pt       8.42164176       3.24149143      20.00000000        3      -0.00169503      -0.00246948       0.00972497
Pt       4.21082088       5.67261000      20.00000000        3       0.00298980      -0.00023268       0.00972602
Pt       7.01803480       5.67261000      20.00000000        3      -0.00299001      -0.00023150       0.00972575
Pt       9.82524872       5.67261000      20.00000000        3      -0.00000109       0.00000281      -0.00171146
Pt      -0.00000000       1.62074571      22.29208057        2      -0.12750225       0.07361281      -0.01448589
Pt       2.80721392       1.62074571      22.29208057        2       0.12750508       0.07361276      -0.01448610
Pt       5.61442784       1.62074571      22.29208057        2      -0.00000258       0.08691774      -0.02148295
Pt       1.40360696       4.05186428      22.29208057        2      -0.00000162      -0.00805741      -0.05043667
Pt       4.21082088       4.05186428      22.29208057        2       0.07527605      -0.04345983      -0.02148212
Pt       7.01803480       4.05186428      22.29208057        2      -0.07527497      -0.04345806      -0.02147973
Pt       2.80721392       6.48298285      22.29208057        2       0.00697952       0.00403024      -0.05044023
Pt       5.61442784       6.48298285      22.29208057        2      -0.00000100      -0.14722815      -0.01448646
Pt       8.42164176       6.48298285      22.29208057        2      -0.00697816       0.00403023      -0.05043866
Pt       0.00346136       0.00199803      24.56004387        1      -0.00292389      -0.00168747       0.02772027
Pt       2.80375288       0.00199813      24.56004410        1       0.00292536      -0.00168896       0.02772067
Pt       5.61442788      -0.00376759      24.58110138        1      -0.00000211       0.00321327      -0.00503236
Pt       1.40360706       2.42712197      24.56004395        1       0.00000105       0.00337791       0.02772106
Pt       4.18473722       2.41605899      24.61787392        1       0.01592229       0.00919258       0.04069659
Pt       7.04411832       2.41605904      24.61787416        1      -0.01592313       0.00919272       0.04069877
Pt       2.80395147       4.86412079      24.58110138        1       0.00278126      -0.00160818      -0.00503121
Pt       5.61442775       4.89235578      24.61787382        1       0.00000087      -0.01838545       0.04069668
Pt       8.42490420       4.86412079      24.58110189        1      -0.00278216      -0.00160712      -0.00503923
N        5.61442772       3.24149168      26.85605583        0       0.00000912      -0.00001810      -0.01853301
H        6.40941567       3.70047774      26.34043644        0       0.01131345       0.00653410      -0.00213587
H        5.61442764       2.32351847      26.34043633        0       0.00000020      -0.01305467      -0.00212929
H        4.81944009       3.70047794      26.34043647        0      -0.01132230       0.00653936      -0.00214067
