31
Lattice="8.421641763931781 0.0 0.0 4.2108208819658905 7.293355709136913 0.0 0.0 0.0 44.584161137365626" Properties=species:S:1:pos:R:3:tags:I:1:forces:R:3 energy=-172.8045196533203 free_energy=-172.8045196533203 stress="0.010309034027159214 -8.257414196854995e-10 2.9383878663580276e-10 -8.257414196854995e-10 0.01030905731022358 4.386836227610047e-09 2.9383878663580276e-10 4.386836227610047e-09 -2.4531909730285406e-05" pbc="T T T"
Pt       1.40360696       0.81037286      20.00000000        3      -0.00144475       0.00135405      -0.00842524
Pt       4.21082088       0.81037286      20.00000000        3       0.00024700       0.00310480      -0.00555357
Pt       7.01803480       0.81037286      20.00000000        3       0.00189462       0.00057125      -0.00842512
Pt       2.80721392       3.24149143      20.00000000        3      -0.00004670       0.00011452       0.01854846
Pt       5.61442784       3.24149143      20.00000000        3      -0.00007770      -0.00009940       0.01854864
Pt       8.42164176       3.24149143      20.00000000        3      -0.00045029      -0.00192940      -0.00842690
Pt       4.21082088       5.67261000      20.00000000        3       0.00012577      -0.00001446       0.01855060
Pt       7.01803480       5.67261000      20.00000000        3      -0.00281475      -0.00133888      -0.00555518
Pt       9.82524872       5.67261000      20.00000000        3       0.00256659      -0.00176240      -0.00555494
Pt      -0.00000000       1.62074571      22.29208057        2       0.00000132      -0.00000291      -0.10861502
Pt       2.80721392       1.62074571      22.29208057        2       0.10750951       0.10100082       0.00855755
Pt       5.61442784       1.62074571      22.29208057        2      -0.11438870       0.09612206       0.00601594
Pt       1.40360696       4.05186428      22.29208057        2       0.14044066       0.05100039       0.00601808
Pt       4.21082088       4.05186428      22.29208057        2       0.00000067      -0.00000085       0.08442636
Pt       7.01803480       4.05186428      22.29208057        2      -0.14122480       0.04260544       0.00856104
Pt       2.80721392       6.48298285      22.29208057        2       0.03371336      -0.14360352       0.00855953
Pt       5.61442784       6.48298285      22.29208057        2      -0.02605661      -0.14712375       0.00601307
Pt       8.42164176       6.48298285      22.29208057        2       0.00000348       0.00000117      -0.08294243
Pt       0.00956754       0.01234139      24.57146187        1      -0.02428305      -0.01652969      -0.01096019
Pt       2.81016394       0.00120838      24.55878750        1      -0.01113013      -0.00655698       0.02387273
Pt       5.61399850      -0.00315942      24.55878946        1      -0.00010991       0.01291689       0.02386162
Pt       1.38813441       2.43323325      24.57146235        1       0.02645973      -0.01276515      -0.01095946
Pt       4.20451645       2.40982948      24.61359383        1       0.01066757       0.00383294       0.00527276
Pt       7.02393984       2.41666071      24.57146349        1      -0.00217627       0.02929801      -0.01095800
Pt       2.79192978       4.87834157      24.61359466        1      -0.00201792      -0.01115628       0.00526919
Pt       5.63601722       4.86742173      24.61359319        1      -0.00865403       0.00732227       0.00527158
Pt       8.41911975       4.86418790      24.55878947        1       0.01124453      -0.00636011       0.02386206
N        4.21082052       4.05186506      26.95094157        0      -0.00001594      -0.00004036      -0.01181036
H        3.43105967       4.59236411      26.52767461        0       0.00602880      -0.01644010       0.00232576
H        5.06878800       4.45690747      26.52767484        0      -0.01723853       0.00301032       0.00231608
H        4.13261493       3.10632090      26.52767503        0       0.01122646       0.01346962       0.00233565
