31
Lattice="8.421641763931781 0.0 0.0 4.2108208819658905 7.293355709136913 0.0 0.0 0.0 44.584161137365626" Properties=species:S:1:pos:R:3:tags:I:1:forces:R:3 energy=-172.8042755126953 free_energy=-172.8042755126953 stress="0.010287916287779808 -1.84737547481717e-09 4.924520791149689e-10 -1.84737547481717e-09 0.010287921875715256 4.2443382142209884e-10 4.924520791149689e-10 4.2443382142209884e-10 2.573746860434767e-05" pbc="T T T"
Pt       1.40360696       0.81037286      20.00000000        3       0.00000036      -0.00000321      -0.01219112
Pt       4.21082088       0.81037286      20.00000000        3      -0.00197855       0.00239099       0.00095519
Pt       7.01803480       0.81037286      20.00000000        3       0.00218417       0.00302401       0.00097629
Pt       2.80721392       3.24149143      20.00000000        3       0.00152979      -0.00340770       0.00097436
Pt       5.61442784       3.24149143      20.00000000        3      -0.00000185       0.00000011       0.03240579
Pt       8.42164176       3.24149143      20.00000000        3      -0.00108004      -0.00291095       0.00095004
Pt       4.21082088       5.67261000      20.00000000        3       0.00306522       0.00052077       0.00095454
Pt       7.01803480       5.67261000      20.00000000        3      -0.00371756       0.00038270       0.00097540
Pt       9.82524872       5.67261000      20.00000000        3      -0.00000090       0.00000286      -0.01433045
Pt      -0.00000000       1.62074571      22.29208057        2      -0.14873107       0.08592954       0.01205055
Pt       2.80721392       1.62074571      22.29208057        2       0.14879358       0.08583426       0.01205206
Pt       5.61442784       1.62074571      22.29208057        2       0.00260780       0.12159070       0.04921475
Pt       1.40360696       4.05186428      22.29208057        2      -0.00523190      -0.02981969      -0.07349692
Pt       4.21082088       4.05186428      22.29208057        2       0.10400239      -0.06305760       0.04921782
Pt       7.01803480       4.05186428      22.29208057        2      -0.10661943      -0.05853334       0.04921493
Pt       2.80721392       6.48298285      22.29208057        2       0.02844396       0.01037836      -0.07349123
Pt       5.61442784       6.48298285      22.29208057        2      -0.00005935      -0.17177501       0.01205760
Pt       8.42164176       6.48298285      22.29208057        2      -0.02320530       0.01945215      -0.07349420
Pt       0.00528189       0.00130238      24.56071299        1      -0.02638463      -0.00283451       0.02083831
Pt       2.80344555       0.00392315      24.56071251        1       0.01564418      -0.02143855       0.02083920
Pt       5.62303478      -0.01200480      24.56953888        1      -0.02005144       0.02606915      -0.00907220
Pt       1.40209465       2.42589242      24.56071161        1       0.01073906       0.02426863       0.02085008
Pt       4.18914737       2.41046185      24.61256644        1       0.01474491       0.02396176       0.01038124
Pt       7.04676105       2.42267630      24.61256453        1      -0.02812678       0.00079239       0.01039185
Pt       2.79251369       4.86078478      24.56953580        1       0.03260504       0.00432968      -0.00906090
Pt       5.60737490       4.89133624      24.61256704        1       0.01338001      -0.02475221       0.01037132
Pt       8.42773377       4.87569234      24.56953476        1      -0.01255132      -0.03039572      -0.00904822
N        5.61442806       3.24149111      26.94051231        0       0.00001246      -0.00000583      -0.04887810
H        5.52668165       4.18769810      26.52022037        0       0.01306645      -0.02011383       0.00246379
H        6.47773989       2.84437776      26.52021865        0      -0.02396588      -0.00124758       0.00246631
H        4.83886146       2.69239806      26.52022074        0       0.01088652       0.02136749       0.00246201
