31
Lattice="8.421641763931781 0.0 0.0 4.2108208819658905 7.293355709136913 0.0 0.0 0.0 44.584161137365626" Properties=species:S:1:pos:R:3:tags:I:1:forces:R:3 energy=-172.8055419921875 free_energy=-172.8055419921875 stress="0.01023112889379263 -2.0791692804777995e-05 9.824238804867491e-05 -2.0791692804777995e-05 0.010255116969347 5.671836333931424e-05 9.824238804867491e-05 5.671836333931424e-05 -5.917810995015316e-05" pbc="T T T"
Pt       1.40360696       0.81037286      20.00000000        3      -0.00367031       0.00022149      -0.00474769
Pt       4.21082088       0.81037286      20.00000000        3       0.00073014       0.00307067       0.00427371
Pt       7.01803480       0.81037286      20.00000000        3      -0.00051902      -0.00030080      -0.00791022
Pt       2.80721392       3.24149143      20.00000000        3       0.00016093       0.00009115       0.03382981
Pt       5.61442784       3.24149143      20.00000000        3      -0.00297520      -0.00394627       0.00620306
Pt       8.42164176       3.24149143      20.00000000        3      -0.00163978      -0.00329048      -0.00475091
Pt       4.21082088       5.67261000      20.00000000        3      -0.00490139      -0.00060007       0.00620446
Pt       7.01803480       5.67261000      20.00000000        3      -0.00143371      -0.00082378      -0.01465911
Pt       9.82524872       5.67261000      20.00000000        3       0.00302374      -0.00090246       0.00427106
Pt      -0.00000000       1.62074571      22.29208057        2       0.10110269       0.05836608      -0.04284067
Pt       2.80721392       1.62074571      22.29208057        2       0.06775253       0.13290536       0.02002841
Pt       5.61442784       1.62074571      22.29208057        2      -0.14976451       0.10423715       0.05781232
Pt       1.40360696       4.05186428      22.29208057        2       0.14897893      -0.00778272       0.02002467
Pt       4.21082088       4.05186428      22.29208057        2      -0.08819470      -0.05092103       0.06141027
Pt       7.01803480       4.05186428      22.29208057        2       0.00215785      -0.01868656      -0.08239363
Pt       2.80721392       6.48298285      22.29208057        2       0.01539792      -0.18181267       0.05781681
Pt       5.61442784       6.48298285      22.29208057        2      -0.01510587       0.01121859      -0.08239301
Pt       8.42164176       6.48298285      22.29208057        2       0.05875454       0.03392804      -0.07097597
Pt       0.02618288       0.01409945      24.56335164        1      -0.03699677       0.00791426       0.01107225
Pt       2.83504854       0.01203099      24.56749290        1      -0.00525350      -0.01786406       0.00479530
Pt       5.64353754       0.01680673      24.56492662        1      -0.01650268      -0.00953233      -0.01172480
Pt       1.39736630       2.42751495      24.59225137        1      -0.00991515      -0.00572211       0.01752304
Pt       4.25818947       2.43372197      24.62335740        1       0.00758946      -0.01098075      -0.02259661
Pt       7.04333368       2.44674249      24.56335163        1      -0.01162259      -0.03599017       0.01108256
Pt       2.83315167       4.90195677      24.62335668        1      -0.00570338       0.01207422      -0.02258486
Pt       5.66130703       4.88930289      24.57053316        1      -0.03597793      -0.02076968      -0.01218876
Pt       8.44597945       4.88032730      24.56749164        1      -0.01810812       0.00437671       0.00480637
N        3.03972818       3.37573234      26.90603117        0      -0.01212249      -0.00701167       0.04640582
H        3.07803599       4.34700592      26.54188315        0      -0.00033051       0.01718532      -0.00791261
H        3.90003158       2.92327324      26.54188196        0       0.01466288      -0.00887145      -0.00790519
H        2.26262532       2.92707567      26.37849591        0       0.00042602       0.00022036       0.02802361
