31
Lattice="8.421641763931781 0.0 0.0 4.2108208819658905 7.293355709136913 0.0 0.0 0.0 44.584161137365626" Properties=species:S:1:pos:R:3:tags:I:1:forces:R:3 energy=-172.57989501953125 free_energy=-172.57989501953125 stress="0.010525941848754883 4.705279934569262e-05 5.856724237673916e-05 4.705279934569262e-05 0.010471626184880733 3.380879934411496e-05 5.856724237673916e-05 3.380879934411496e-05 -0.0001354846463073045" pbc="T T T"
Pt       1.40360696       0.81037286      20.00000000        3      -0.00100185       0.00141483      -0.00500348
Pt       4.21082088       0.81037286      20.00000000        3      -0.00061279       0.00213169      -0.00299138
Pt       7.01803480       0.81037286      20.00000000        3       0.00014081       0.00008000      -0.00903359
Pt       2.80721392       3.24149143      20.00000000        3       0.00143673       0.00082843       0.01389852
Pt       5.61442784       3.24149143      20.00000000        3      -0.00164766      -0.00120225       0.00114858
Pt       8.42164176       3.24149143      20.00000000        3       0.00072750      -0.00157685      -0.00500599
Pt       4.21082088       5.67261000      20.00000000        3      -0.00186143      -0.00082269       0.00114989
Pt       7.01803480       5.67261000      20.00000000        3      -0.00060609      -0.00034550      -0.00966159
Pt       9.82524872       5.67261000      20.00000000        3       0.00153932      -0.00159589      -0.00299329
Pt      -0.00000000       1.62074571      22.29208057        2       0.03184412       0.01838067      -0.03857298
Pt       2.80721392       1.62074571      22.29208057        2       0.03827981       0.06413504       0.02288033
Pt       5.61442784       1.62074571      22.29208057        2      -0.05150830       0.04289718      -0.00485886
Pt       1.40360696       4.05186428      22.29208057        2       0.07468683       0.00108089       0.02287835
Pt       4.21082088       4.05186428      22.29208057        2      -0.04868802      -0.02811112       0.04124970
Pt       7.01803480       4.05186428      22.29208057        2      -0.01981317      -0.01047447      -0.03542379
Pt       2.80721392       6.48298285      22.29208057        2       0.01140031      -0.06605271      -0.00485852
Pt       5.61442784       6.48298285      22.29208057        2      -0.01897760      -0.01191538      -0.03542262
Pt       8.42164176       6.48298285      22.29208057        2       0.01025722       0.00592757      -0.04683467
Pt       0.00582061       0.01092716      24.57383992        1      -0.00109435       0.00844047       0.01765126
Pt       2.80566962      -0.00184375      24.57164948        1       0.00867197      -0.01877828       0.02614582
Pt       5.61441121      -0.00001005      24.56783156        1       0.00796748       0.00460204       0.03424039
Pt       1.41468365       2.43751334      24.59023764        1      -0.03296639      -0.01903153      -0.01324236
Pt       4.22699207       2.42112025      24.60467272        1       0.00120327      -0.00040231      -0.03185995
Pt       7.03040776       2.43069598      24.57383953        1       0.00676400      -0.00517223       0.01765361
Pt       2.80664092       4.88124098      24.60467349        1       0.00025474       0.00124288      -0.03185949
Pt       5.61450067       4.86227881      24.57686643        1       0.03598056       0.02077588       0.01433790
Pt       8.41927260       4.86182146      24.57164813        1      -0.01192429       0.01689858       0.02615753
N        3.50803548       3.64611018      27.59995758        0       0.00023125       0.00018738       0.01546073
H        3.49366722       4.58521536      27.19199356        0      -0.01610278      -0.01794116      -0.00789698
H        4.31414006       3.16411594      27.19199370        0      -0.02355888      -0.00500216      -0.00791904
H        2.67473219       3.16500376      27.25215349        0      -0.00102206      -0.00059910       0.03858592
