31
Lattice="8.421641763931781 0.0 0.0 4.2108208819658905 7.293355709136913 0.0 0.0 0.0 44.584161137365626" Properties=species:S:1:pos:R:3:tags:I:1:forces:R:3 energy=-173.71633911132812 free_energy=-173.71633911132812 stress="0.010683665983378887 1.9645367554943505e-09 8.8529139574689e-09 1.9645367554943505e-09 0.010683697648346424 -1.7208614533359423e-09 8.8529139574689e-09 -1.7208614533359423e-09 -3.694118959174375e-06" pbc="T T T"
Pt       1.40360696       0.81037286      20.00000000        3      -0.00224083      -0.00210474      -0.00605983
Pt       4.21082088       0.81037286      20.00000000        3      -0.00051966       0.00464383       0.01213470
Pt       7.01803480       0.81037286      20.00000000        3       0.00293826      -0.00089281      -0.00605899
Pt       2.80721392       3.24149143      20.00000000        3       0.00428514      -0.00187130       0.01213387
Pt       5.61442784       3.24149143      20.00000000        3      -0.00376420      -0.00277437       0.01213408
Pt       8.42164176       3.24149143      20.00000000        3      -0.00075562      -0.00624252      -0.00914127
Pt       4.21082088       5.67261000      20.00000000        3      -0.00069704       0.00299347      -0.00605971
Pt       7.01803480       5.67261000      20.00000000        3      -0.00503061       0.00377920      -0.00913924
Pt       9.82524872       5.67261000      20.00000000        3       0.00578419       0.00246896      -0.00913906
Pt      -0.00000000       1.62074571      22.29208057        2      -0.00916600       0.00726695      -0.00007234
Pt       2.80721392       1.62074571      22.29208057        2       0.06796812       0.03413963      -0.02873824
Pt       5.61442784       1.62074571      22.29208057        2      -0.06355187       0.04178865      -0.02874182
Pt       1.40360696       4.05186428      22.29208057        2       0.05687132      -0.02535156       0.03260481
Pt       4.21082088       4.05186428      22.29208057        2      -0.00441411      -0.07593048      -0.02874020
Pt       7.01803480       4.05186428      22.29208057        2      -0.05039515      -0.03657140       0.03260131
Pt       2.80721392       6.48298285      22.29208057        2      -0.00171219      -0.01157506      -0.00007097
Pt       5.61442784       6.48298285      22.29208057        2       0.01088014       0.00430435      -0.00007190
Pt       8.42164176       6.48298285      22.29208057        2      -0.00647762       0.06192841       0.03260225
Pt       0.00000067      -0.00000112      24.58917093        1      -0.00000223       0.00000254      -0.00122663
Pt       2.80292094      -0.00402886      24.60743781        1       0.00994178       0.00604834      -0.00830004
Pt       5.62164436      -0.01016263      24.59562360        1      -0.00148473      -0.00773548       0.00780167
Pt       1.39119742       2.42994924      24.59562297        1      -0.00593863       0.00515408       0.00780213
Pt       4.21082501       2.43111920      24.65951519        1      -0.00000335      -0.00000256       0.00630385
Pt       7.02367173       2.42941514      24.60743729        1      -0.01020272       0.00557979      -0.00829861
Pt       2.80587294       4.86796922      24.60743729        1       0.00025362      -0.01162993      -0.00830036
Pt       5.61962061       4.87356907      24.59562496        1       0.00743762       0.00257799       0.00779523
Pt       8.42164086       4.86223580      24.58944506        1       0.00001298       0.00000773      -0.00306812
N        4.21082267       2.43111838      26.72619041        0      -0.00006369      -0.00001421      -0.00155663
H        3.72698781       1.58797552      27.04595231        0       0.00046496      -0.00160030      -0.00037228
H        3.72255024       3.27169829      27.04595464        0      -0.00162698       0.00041037      -0.00037073
H        5.18291586       2.43368024      27.04597047        0       0.00120908       0.00120255      -0.00038674
