31
Lattice="8.421641763931781 0.0 0.0 4.2108208819658905 7.293355709136913 0.0 0.0 0.0 44.584161137365626" Properties=species:S:1:pos:R:3:tags:I:1:forces:R:3 energy=-172.57989501953125 free_energy=-172.57989501953125 stress="0.01052592508494854 4.70332961413078e-05 5.855139170307666e-05 4.70332961413078e-05 0.010471628047525883 3.380725684110075e-05 5.855139170307666e-05 3.380725684110075e-05 -0.00013548778952099383" pbc="T T T"
Pt       1.40360696       0.81037286      20.00000000        3      -0.00100193       0.00141431      -0.00500357
Pt       4.21082088       0.81037286      20.00000000        3      -0.00061219       0.00213128      -0.00299159
Pt       7.01803480       0.81037286      20.00000000        3       0.00014039       0.00008000      -0.00903273
Pt       2.80721392       3.24149143      20.00000000        3       0.00143663       0.00082826       0.01389843
Pt       5.61442784       3.24149143      20.00000000        3      -0.00164775      -0.00120188       0.00114986
Pt       8.42164176       3.24149143      20.00000000        3       0.00072664      -0.00157664      -0.00500625
Pt       4.21082088       5.67261000      20.00000000        3      -0.00186110      -0.00082274       0.00114980
Pt       7.01803480       5.67261000      20.00000000        3      -0.00060571      -0.00034573      -0.00966078
Pt       9.82524872       5.67261000      20.00000000        3       0.00153909      -0.00159534      -0.00299373
Pt      -0.00000000       1.62074571      22.29208057        2       0.03183974       0.01838110      -0.03857348
Pt       2.80721392       1.62074571      22.29208057        2       0.03828212       0.06413411       0.02287828
Pt       5.61442784       1.62074571      22.29208057        2      -0.05150612       0.04289811      -0.00485696
Pt       1.40360696       4.05186428      22.29208057        2       0.07468629       0.00108285       0.02287785
Pt       4.21082088       4.05186428      22.29208057        2      -0.04868698      -0.02811125       0.04124911
Pt       7.01803480       4.05186428      22.29208057        2      -0.01981395      -0.01047705      -0.03542233
Pt       2.80721392       6.48298285      22.29208057        2       0.01139957      -0.06605264      -0.00485817
Pt       5.61442784       6.48298285      22.29208057        2      -0.01897707      -0.01191599      -0.03542239
Pt       8.42164176       6.48298285      22.29208057        2       0.01025737       0.00592688      -0.04683486
Pt       0.00582041       0.01092671      24.57383997        1      -0.00109361       0.00844093       0.01765195
Pt       2.80566967      -0.00184402      24.57164949        1       0.00867149      -0.01877756       0.02614498
Pt       5.61441093      -0.00001016      24.56783132        1       0.00796888       0.00460280       0.03424022
Pt       1.41468283       2.43751283      24.59023751        1      -0.03296096      -0.01902863      -0.01323260
Pt       4.22699196       2.42112060      24.60467307        1       0.00120300      -0.00040470      -0.03185974
Pt       7.03040771       2.43069570      24.57384030        1       0.00676154      -0.00517158       0.01764297
Pt       2.80664131       4.88124089      24.60467316        1       0.00025074       0.00124228      -0.03186058
Pt       5.61450090       4.86227904      24.57686649        1       0.03597951       0.02077589       0.01433802
Pt       8.41927228       4.86182162      24.57164851        1      -0.01192249       0.01689837       0.02615720
N        3.50803451       3.64611018      27.59995674        0       0.00034884       0.00019419       0.01548111
H        2.67473382       3.16500428      27.25215147        0      -0.00110301      -0.00063898       0.03855412
H        3.49366750       4.58521582      27.19199379        0      -0.01610578      -0.01793286      -0.00790352
H        4.31414063       3.16411549      27.19199385        0      -0.02359304      -0.00497785      -0.00790032
