31
Lattice="8.421641763931781 0.0 0.0 4.2108208819658905 7.293355709136913 0.0 0.0 0.0 44.584161137365626" Properties=species:S:1:pos:R:3:tags:I:1:forces:R:3 energy=-173.71566772460938 free_energy=-173.71566772460938 stress="0.010731181129813194 2.404444698900221e-10 -1.7655834572138929e-09 2.404444698900221e-10 0.010731195099651814 -3.6566605299270805e-09 -1.7655834572138929e-09 -3.6566605299270805e-09 2.1034547899034806e-05" pbc="T T T"
Pt       1.40360696       0.81037286      20.00000000        3      -0.00180195      -0.00169857      -0.00491917
Pt       4.21082088       0.81037286      20.00000000        3       0.00013000       0.00453539       0.01195171
Pt       7.01803480       0.81037286      20.00000000        3       0.00236798      -0.00071546      -0.00491998
Pt       2.80721392       3.24149143      20.00000000        3       0.00386635      -0.00238014       0.01195100
Pt       5.61442784       3.24149143      20.00000000        3      -0.00399515      -0.00215708       0.01195073
Pt       8.42164176       3.24149143      20.00000000        3      -0.00072499      -0.00597931      -0.00801843
Pt       4.21082088       5.67261000      20.00000000        3      -0.00056563       0.00241055      -0.00491941
Pt       7.01803480       5.67261000      20.00000000        3      -0.00481751       0.00362149      -0.00801867
Pt       9.82524872       5.67261000      20.00000000        3       0.00554089       0.00236350      -0.00801840
Pt      -0.00000000       1.62074571      22.29208057        2      -0.00999577       0.00663342       0.01779698
Pt       2.80721392       1.62074571      22.29208057        2       0.05763670       0.03345830      -0.03198687
Pt       5.61442784       1.62074571      22.29208057        2      -0.05779708       0.03318414      -0.03198875
Pt       1.40360696       4.05186428      22.29208057        2       0.05194925      -0.02600420       0.04052558
Pt       4.21082088       4.05186428      22.29208057        2       0.00015823      -0.06664553      -0.03198848
Pt       7.01803480       4.05186428      22.29208057        2      -0.04849456      -0.03198817       0.04052331
Pt       2.80721392       6.48298285      22.29208057        2      -0.00074563      -0.01197656       0.01779431
Pt       5.61442784       6.48298285      22.29208057        2       0.01074327       0.00534452       0.01779369
Pt       8.42164176       6.48298285      22.29208057        2      -0.00345438       0.05799257       0.04052262
Pt       0.00000015      -0.00000036      24.59176414        1       0.00000073       0.00000081      -0.01549599
Pt       2.80876659       0.00498476      24.60838745        1      -0.02504521      -0.03913533      -0.01027554
Pt       5.62249445      -0.01412831      24.60009088        1       0.01576771      -0.01933081      -0.01379742
Pt       1.38733850       2.43119643      24.60009122        1      -0.02462384      -0.00399213      -0.01380405
Pt       4.21082115       2.43111797      24.65832618        1      -0.00000124       0.00000028      -0.02947357
Pt       7.01294069       2.42997050      24.60838726        1       0.04641534      -0.00212499      -0.01027471
Pt       2.81075506       4.85839943      24.60838738        1      -0.02136782       0.04125765      -0.01027529
Pt       5.62262956       4.87628646      24.60009090        1       0.00885443       0.02332159      -0.01379654
Pt       8.42164148       4.86223673      24.59135559        1       0.00000081       0.00000341      -0.01073205
N        4.21082147       2.43111899      26.72026460        0      -0.00001736      -0.00001568       0.04315460
H        5.18211933       2.43128598      27.04136831        0       0.01745440       0.00119941       0.00291546
H        3.72531636       1.58986685      27.04136909        0      -0.00767817      -0.01569779       0.00290789
H        3.72502724       3.27220440      27.04136702        0      -0.00975979       0.01451476       0.00291596
