31
Lattice="8.421641763931781 0.0 0.0 4.2108208819658905 7.293355709136913 0.0 0.0 0.0 44.584161137365626" Properties=species:S:1:pos:R:3:tags:I:1:forces:R:3 energy=-172.80076599121094 free_energy=-172.80076599121094 stress="0.01038040779531002 2.4228097306178142e-09 2.954032130020323e-09 2.4228097306178142e-09 0.01038041990250349 -2.7533784141553497e-09 2.954032130020323e-09 -2.7533784141553497e-09 0.0001381065376335755" pbc="T T T"
Pt       1.40360696       0.81037286      20.00000000        3       0.00000111      -0.00000244      -0.00917181
Pt       4.21082088       0.81037286      20.00000000        3      -0.00175582       0.00301223       0.00178018
Pt       7.01803480       0.81037286      20.00000000        3       0.00208401       0.00282764       0.00179151
Pt       2.80721392       3.24149143      20.00000000        3       0.00140917      -0.00322314       0.00179183
Pt       5.61442784       3.24149143      20.00000000        3      -0.00000227      -0.00000032       0.03522503
Pt       8.42164176       3.24149143      20.00000000        3      -0.00172945      -0.00302845       0.00177675
Pt       4.21082088       5.67261000      20.00000000        3       0.00349041       0.00001651       0.00177863
Pt       7.01803480       5.67261000      20.00000000        3      -0.00349629       0.00039470       0.00179127
Pt       9.82524872       5.67261000      20.00000000        3      -0.00000118       0.00000318      -0.01458523
Pt      -0.00000000       1.62074571      22.29208057        2      -0.14292000       0.07742982       0.03905419
Pt       2.80721392       1.62074571      22.29208057        2       0.13852052       0.08505523       0.03905176
Pt       5.61442784       1.62074571      22.29208057        2      -0.00084977       0.12743056       0.05053308
Pt       1.40360696       4.05186428      22.29208057        2       0.00004405      -0.03188431      -0.06164516
Pt       4.21082088       4.05186428      22.29208057        2       0.11078469      -0.06298236       0.05053309
Pt       7.01803480       4.05186428      22.29208057        2      -0.10993906      -0.06444960       0.05053407
Pt       2.80721392       6.48298285      22.29208057        2       0.02759195       0.01598064      -0.06164630
Pt       5.61442784       6.48298285      22.29208057        2       0.00440089      -0.16248880       0.03905089
Pt       8.42164176       6.48298285      22.29208057        2      -0.02763257       0.01590838      -0.06164730
Pt       0.00295078      -0.00331922      24.56545263        1       0.00255479       0.02800947      -0.00533101
Pt       2.80861282       0.00421393      24.56545240        1      -0.02553170      -0.01178793      -0.00533101
Pt       5.61588291      -0.00628348      24.56941573        1       0.00359510      -0.02450984      -0.00741860
Pt       1.39925831       2.43022263      24.56545296        1       0.02297455      -0.01621508      -0.00532949
Pt       4.18525732       2.41955824      24.61813993        1       0.01125588      -0.01080537      -0.00876813
Pt       7.04082784       2.41476010      24.61814008        1       0.00372946       0.01514804      -0.00876709
Pt       2.80104511       4.86411863      24.56941631        1      -0.02302628       0.00914206      -0.00741722
Pt       5.61719795       4.89015557      24.61813967        1      -0.01498403      -0.00434715      -0.00876644
Pt       8.42635512       4.86663921      24.56941598        1       0.01943142       0.01536599      -0.00741711
N        5.61442819       3.24149162      26.94318268        0      -0.00001586       0.00001733      -0.00910267
H        5.45525892       4.17741386      26.52136305        0       0.02451612      -0.00400069      -0.01077733
H        6.50454481       2.91137549      26.52136257        0      -0.01570877      -0.01923963      -0.01078847
H        4.88347940       2.63568681      26.52136207        0      -0.00879118       0.02322327      -0.01078222
