31
Lattice="8.421641763931781 0.0 0.0 4.2108208819658905 7.293355709136913 0.0 0.0 0.0 44.584161137365626" Properties=species:S:1:pos:R:3:tags:I:1:forces:R:3 energy=-172.80453491210938 free_energy=-172.80453491210938 stress="0.01030901912599802 -4.215770399440544e-09 4.396699004871607e-09 -4.215770399440544e-09 0.010309028439223766 -3.642036672246718e-09 4.396699004871607e-09 -3.642036672246718e-09 -2.461697658873163e-05" pbc="T T T"
Pt       1.40360696       0.81037286      20.00000000        3      -0.00144521       0.00135329      -0.00842473
Pt       4.21082088       0.81037286      20.00000000        3       0.00024685       0.00310514      -0.00555390
Pt       7.01803480       0.81037286      20.00000000        3       0.00189497       0.00057106      -0.00842416
Pt       2.80721392       3.24149143      20.00000000        3      -0.00004688       0.00011431       0.01854751
Pt       5.61442784       3.24149143      20.00000000        3      -0.00007741      -0.00009919       0.01854825
Pt       8.42164176       3.24149143      20.00000000        3      -0.00045044      -0.00192974      -0.00842687
Pt       4.21082088       5.67261000      20.00000000        3       0.00012560      -0.00001405       0.01854861
Pt       7.01803480       5.67261000      20.00000000        3      -0.00281529      -0.00133846      -0.00555557
Pt       9.82524872       5.67261000      20.00000000        3       0.00256719      -0.00176240      -0.00555483
Pt      -0.00000000       1.62074571      22.29208057        2       0.00000173      -0.00000252      -0.10863029
Pt       2.80721392       1.62074571      22.29208057        2       0.10751186       0.10099557       0.00855833
Pt       5.61442784       1.62074571      22.29208057        2      -0.11438838       0.09611884       0.00601787
Pt       1.40360696       4.05186428      22.29208057        2       0.14043772       0.05100073       0.00601760
Pt       4.21082088       4.05186428      22.29208057        2       0.00000131      -0.00000062       0.08441239
Pt       7.01803480       4.05186428      22.29208057        2      -0.14122523       0.04260850       0.00855846
Pt       2.80721392       6.48298285      22.29208057        2       0.03371237      -0.14360449       0.00855784
Pt       5.61442784       6.48298285      22.29208057        2      -0.02605202      -0.14712003       0.00601689
Pt       8.42164176       6.48298285      22.29208057        2       0.00000108       0.00000370      -0.08293304
Pt       0.00956570       0.01234518      24.57146181        1      -0.02427566      -0.01656035      -0.01096027
Pt       2.81016432       0.00121070      24.55878981        1      -0.01112221      -0.00656992       0.02385743
Pt       5.61400137      -0.00316074      24.55879000        1      -0.00012888       0.01291847       0.02385746
Pt       1.38813314       2.43322981      24.57146178        1       0.02647819      -0.01274542      -0.01095958
Pt       4.20451900       2.40983224      24.61358971        1       0.01066886       0.00379103       0.00525986
Pt       7.02394330       2.41666181      24.57146226        1      -0.00220465       0.02930276      -0.01095885
Pt       2.79193078       4.87833730      24.61358999        1      -0.00204985      -0.01113106       0.00525853
Pt       5.63601329       4.86742234      24.61358935        1      -0.00861707       0.00734226       0.00525823
Pt       8.41911808       4.86418680      24.55879005        1       0.01125164      -0.00634625       0.02386022
N        4.21082121       4.05186435      26.95091573        0      -0.00002974       0.00001659      -0.01175171
H        5.06877920       4.45693317      26.52765427        0      -0.01727070       0.00298315       0.00232859
H        4.13264148       3.10631573      26.52765582        0       0.01122637       0.01346660       0.00232662
H        3.43104133       4.59234342      26.52765461        0       0.00607374      -0.01646734       0.00234344
