31
Lattice="8.421641763931781 0.0 0.0 4.2108208819658905 7.293355709136913 0.0 0.0 0.0 44.584161137365626" Properties=species:S:1:pos:R:3:tags:I:1:forces:R:3 energy=-173.71240234375 free_energy=-173.71240234375 stress="0.010804630815982819 2.203714544180002e-09 4.1848219334283954e-10 2.203714544180002e-09 0.010804638266563416 3.1456734994605995e-09 4.1848219334283954e-10 3.1456734994605995e-09 0.00011952536442549899" pbc="T T T"
Pt       1.40360696       0.81037286      20.00000000        3      -0.00291292      -0.00168462      -0.00487351
Pt       4.21082088       0.81037286      20.00000000        3       0.00000174       0.00485811       0.01284894
Pt       7.01803480       0.81037286      20.00000000        3       0.00291151      -0.00168444      -0.00487372
Pt       2.80721392       3.24149143      20.00000000        3       0.00420962      -0.00243015       0.01284745
Pt       5.61442784       3.24149143      20.00000000        3      -0.00421020      -0.00242956       0.01284781
Pt       8.42164176       3.24149143      20.00000000        3       0.00000098      -0.00613967      -0.00782475
Pt       4.21082088       5.67261000      20.00000000        3       0.00000200       0.00336613      -0.00487381
Pt       7.01803480       5.67261000      20.00000000        3      -0.00531965       0.00307236      -0.00782374
Pt       9.82524872       5.67261000      20.00000000        3       0.00531651       0.00307283      -0.00782382
Pt      -0.00000000       1.62074571      22.29208057        2       0.00000100       0.00473035       0.01918739
Pt       2.80721392       1.62074571      22.29208057        2       0.06503891       0.03754857      -0.01545932
Pt       5.61442784       1.62074571      22.29208057        2      -0.06504019       0.03754862      -0.01546051
Pt       1.40360696       4.05186428      22.29208057        2       0.05056986      -0.02919579       0.05123275
Pt       4.21082088       4.05186428      22.29208057        2       0.00000154      -0.07509989      -0.01545942
Pt       7.01803480       4.05186428      22.29208057        2      -0.05057120      -0.02919587       0.05123229
Pt       2.80721392       6.48298285      22.29208057        2      -0.00409750      -0.00236534       0.01918692
Pt       5.61442784       6.48298285      22.29208057        2       0.00409730      -0.00236482       0.01918602
Pt       8.42164176       6.48298285      22.29208057        2       0.00000081       0.05839410       0.05123073
Pt       0.00000031      -0.00000019      24.59619158        1      -0.00000211       0.00000003      -0.03323340
Pt       2.80062248      -0.00694864      24.60522752        1       0.00592541      -0.00245338      -0.01702316
Pt       5.62101957      -0.00694841      24.60522849        1      -0.00592524      -0.00245444      -0.01702243
Pt       1.39429407       2.42888399      24.60522805        1       0.00083764       0.00635719      -0.01702298
Pt       4.21082069       2.43111836      24.66367987        1       0.00000008      -0.00000013      -0.02414489
Pt       7.02734776       2.42888400      24.60522850        1      -0.00083676       0.00635761      -0.01702192
Pt       2.80449248       4.87141962      24.60522838        1      -0.00508746      -0.00390312      -0.01702306
Pt       5.61714935       4.87141967      24.60522873        1       0.00508722      -0.00390559      -0.01702264
Pt       8.42164135       4.86223718      24.59631275        1       0.00000123       0.00000071      -0.03171334
N        4.21082072       2.43111855      26.72836901        0       0.00000687       0.00001407       0.01974225
H        3.36982236       2.91666937      27.05000770        0      -0.00028401       0.00016372       0.00205214
H        5.05181925       2.91666925      27.05000660        0       0.00027696       0.00015938       0.00204987
H        4.21082083       1.46001729      27.05000718        0       0.00000004      -0.00033703       0.00205604
