31
Lattice="8.421641763931781 0.0 0.0 4.2108208819658905 7.293355709136913 0.0 0.0 0.0 44.584161137365626" Properties=species:S:1:pos:R:3:tags:I:1:forces:R:3 energy=-172.65139770507812 free_energy=-172.65139770507812 stress="0.01035960204899311 1.8707269067164134e-09 -7.480262631531787e-09 1.8707269067164134e-09 0.010359612293541431 1.8120059896986618e-09 -7.480262631531787e-09 1.8120059896986618e-09 -4.0887051000026986e-05" pbc="T T T"
Pt       1.40360696       0.81037286      20.00000000        3       0.00000091      -0.00000282      -0.00685471
Pt       4.21082088       0.81037286      20.00000000        3      -0.00128951       0.00270285       0.00972706
Pt       7.01803480       0.81037286      20.00000000        3       0.00128838       0.00270163       0.00972536
Pt       2.80721392       3.24149143      20.00000000        3       0.00169807      -0.00247076       0.00972524
Pt       5.61442784       3.24149143      20.00000000        3      -0.00000176      -0.00000023       0.04421833
Pt       8.42164176       3.24149143      20.00000000        3      -0.00169526      -0.00246996       0.00972480
Pt       4.21082088       5.67261000      20.00000000        3       0.00298960      -0.00023247       0.00972614
Pt       7.01803480       5.67261000      20.00000000        3      -0.00298977      -0.00023146       0.00972593
Pt       9.82524872       5.67261000      20.00000000        3      -0.00000149       0.00000306      -0.00171110
Pt      -0.00000000       1.62074571      22.29208057        2      -0.12749900       0.07361316      -0.01448211
Pt       2.80721392       1.62074571      22.29208057        2       0.12750198       0.07361190      -0.01448068
Pt       5.61442784       1.62074571      22.29208057        2      -0.00000305       0.08691765      -0.02148179
Pt       1.40360696       4.05186428      22.29208057        2      -0.00000066      -0.00806053      -0.05043434
Pt       4.21082088       4.05186428      22.29208057        2       0.07527448      -0.04345990      -0.02148107
Pt       7.01803480       4.05186428      22.29208057        2      -0.07527500      -0.04345797      -0.02147866
Pt       2.80721392       6.48298285      22.29208057        2       0.00698044       0.00402989      -0.05043977
Pt       5.61442784       6.48298285      22.29208057        2       0.00000064      -0.14722578      -0.01448449
Pt       8.42164176       6.48298285      22.29208057        2      -0.00698049       0.00403156      -0.05043724
Pt       0.00346118       0.00199799      24.56004378        1      -0.00292304      -0.00168728       0.02772051
Pt       2.80375304       0.00199796      24.56004456        1       0.00292209      -0.00168677       0.02771123
Pt       5.61442780      -0.00376777      24.58110128        1       0.00000096       0.00321481      -0.00503153
Pt       1.40360706       2.42712210      24.56004452        1       0.00000200       0.00337487       0.02771106
Pt       4.18473721       2.41605894      24.61787432        1       0.01592164       0.00919279       0.04069540
Pt       7.04411850       2.41605886      24.61787440        1      -0.01592380       0.00919388       0.04069850
Pt       2.80395115       4.86412078      24.58110133        1       0.00278319      -0.00160848      -0.00503221
Pt       5.61442767       4.89235605      24.61787372        1       0.00000047      -0.01838570       0.04069628
Pt       8.42490432       4.86412073      24.58110175        1      -0.00278287      -0.00160826      -0.00503808
N        5.61442771       3.24149164      26.85605586        0       0.00002953      -0.00000838      -0.01854035
H        4.81944016       3.70047797      26.34043647        0      -0.01132645       0.00653782      -0.00214213
H        6.40941601       3.70047815      26.34043625        0       0.01129912       0.00652373      -0.00212523
H        5.61442788       2.32351822      26.34043626        0      -0.00000148      -0.01305299      -0.00213021
