31
Lattice="8.421641763931781 0.0 0.0 4.2108208819658905 7.293355709136913 0.0 0.0 0.0 44.584161137365626" Properties=species:S:1:pos:R:3:tags:I:1:forces:R:3 energy=-172.5950164794922 free_energy=-172.5950164794922 stress="0.01054078433662653 7.478525354542853e-09 -6.758292592223825e-09 7.478525354542853e-09 0.010540819726884365 1.0417673834695051e-08 -6.758292592223825e-09 1.0417673834695051e-08 -0.00010156368080060929" pbc="T T T"
Pt       1.40360696       0.81037286      20.00000000        3       0.00000071      -0.00000264      -0.00804311
Pt       4.21082088       0.81037286      20.00000000        3      -0.00033445       0.00056160      -0.00361922
Pt       7.01803480       0.81037286      20.00000000        3       0.00033371       0.00056099      -0.00362045
Pt       2.80721392       3.24149143      20.00000000        3       0.00032114      -0.00057312      -0.00362071
Pt       5.61442784       3.24149143      20.00000000        3      -0.00000213       0.00000012       0.00280079
Pt       8.42164176       3.24149143      20.00000000        3      -0.00031822      -0.00057236      -0.00362155
Pt       4.21082088       5.67261000      20.00000000        3       0.00065838       0.00001033      -0.00362027
Pt       7.01803480       5.67261000      20.00000000        3      -0.00065782       0.00001211      -0.00362056
Pt       9.82524872       5.67261000      20.00000000        3      -0.00000112       0.00000227      -0.00902003
Pt      -0.00000000       1.62074571      22.29208057        2      -0.02765039       0.01596225      -0.01667354
Pt       2.80721392       1.62074571      22.29208057        2       0.02765203       0.01596336      -0.01667485
Pt       5.61442784       1.62074571      22.29208057        2      -0.00000208       0.02752957       0.02987088
Pt       1.40360696       4.05186428      22.29208057        2      -0.00000057      -0.01516586      -0.02844941
Pt       4.21082088       4.05186428      22.29208057        2       0.02384432      -0.01376610       0.02987116
Pt       7.01803480       4.05186428      22.29208057        2      -0.02384421      -0.01376483       0.02987691
Pt       2.80721392       6.48298285      22.29208057        2       0.01313499       0.00758490      -0.02845048
Pt       5.61442784       6.48298285      22.29208057        2      -0.00000067      -0.03192784      -0.01667690
Pt       8.42164176       6.48298285      22.29208057        2      -0.01313337       0.00758385      -0.02845046
Pt       0.00435927       0.00251539      24.57790541        1      -0.02783446      -0.01606198       0.01101166
Pt       2.80285587       0.00251594      24.57790519        1       0.02782897      -0.01606614       0.01101339
Pt       5.61442780      -0.00781484      24.57844217        1       0.00000215       0.04039229       0.01040041
Pt       1.40360668       2.42608584      24.57790549        1       0.00000142       0.03213293       0.01101401
Pt       4.20815417       2.42957875      24.59062882        1      -0.02004179      -0.01157039       0.00456089
Pt       7.02070117       2.42957780      24.59062865        1       0.02004345      -0.01156559       0.00456113
Pt       2.80044652       4.86614440      24.57844241        1       0.03497944      -0.02019693       0.01040199
Pt       5.61442702       4.86531687      24.59062875        1       0.00000703       0.02313552       0.00456057
Pt       8.42840971       4.86614429      24.57844371        1      -0.03498678      -0.02019852       0.01039237
N        5.61442746       3.24149161      27.94718871        0       0.00004543      -0.00007866      -0.00694615
H        5.61442828       2.30042162      27.54979919        0      -0.00000151       0.00780007       0.00361260
H        4.79943901       3.71202548      27.54980022        0       0.00666961      -0.00384898       0.00356854
H        6.42941762       3.71202590      27.54980104        0      -0.00671317      -0.00387236       0.00359036
