31
Lattice="8.421641763931781 0.0 0.0 4.2108208819658905 7.293355709136913 0.0 0.0 0.0 44.584161137365626" Properties=species:S:1:pos:R:3:tags:I:1:forces:R:3 energy=-172.79193115234375 free_energy=-172.79193115234375 stress="0.010310125537216663 -4.493284855300317e-09 1.4311037910275104e-09 -4.493284855300317e-09 0.010310139507055283 4.4674379751086235e-09 1.4311037910275104e-09 4.4674379751086235e-09 -5.319816409610212e-05" pbc="T T T"
Pt       1.40360696       0.81037286      20.00000000        3      -0.00150176       0.00007916      -0.00642642
Pt       4.21082088       0.81037286      20.00000000        3       0.00026974       0.00262426      -0.00198051
Pt       7.01803480       0.81037286      20.00000000        3       0.00081976       0.00125789      -0.00642687
Pt       2.80721392       3.24149143      20.00000000        3       0.00013355      -0.00073330       0.01711312
Pt       5.61442784       3.24149143      20.00000000        3       0.00056659       0.00048081       0.01711309
Pt       8.42164176       3.24149143      20.00000000        3       0.00068145      -0.00134171      -0.00642869
Pt       4.21082088       5.67261000      20.00000000        3      -0.00069796       0.00025349       0.01711422
Pt       7.01803480       5.67261000      20.00000000        3      -0.00240991      -0.00107782      -0.00198242
Pt       9.82524872       5.67261000      20.00000000        3       0.00213797      -0.00154251      -0.00198141
Pt      -0.00000000       1.62074571      22.29208057        2       0.00000155      -0.00000235      -0.12336018
Pt       2.80721392       1.62074571      22.29208057        2       0.11871526       0.08205728       0.00725742
Pt       5.61442784       1.62074571      22.29208057        2      -0.10594115       0.07567581       0.01753135
Pt       1.40360696       4.05186428      22.29208057        2       0.11850968       0.05390771       0.01753192
Pt       4.21082088       4.05186428      22.29208057        2       0.00000130       0.00000003       0.07267080
Pt       7.01803480       4.05186428      22.29208057        2      -0.13042371       0.06178105       0.00726035
Pt       2.80721392       6.48298285      22.29208057        2       0.01170637      -0.14383677       0.00725908
Pt       5.61442784       6.48298285      22.29208057        2      -0.01257218      -0.12958424       0.01752761
Pt       8.42164176       6.48298285      22.29208057        2       0.00000346       0.00000217      -0.04818339
Pt      -0.00871751       0.01462071      24.57019439        1       0.02185005      -0.03447142      -0.00114784
Pt       2.81544881       0.00938950      24.56825721        1      -0.01508225      -0.02342555      -0.02905637
Pt       5.61844229      -0.01182665      24.56825761        1      -0.01274771       0.02477727      -0.02906756
Pt       1.39530382       2.41625815      24.57019428        1       0.01892865       0.03615978      -0.00114681
Pt       4.22910467       2.40891814      24.60961012        1      -0.02603269      -0.01960719      -0.00390491
Pt       7.03505571       2.43135788      24.57019435        1      -0.04078053      -0.00168952      -0.00114509
Pt       2.77884566       4.85750325      24.60960988        1      -0.00396240       0.03234885      -0.00390444
Pt       5.62451203       4.88917188      24.60961022        1       0.02999523      -0.01274546      -0.00390565
Pt       8.40939241       4.86467358      24.56825808        1       0.02783151      -0.00134733      -0.02906573
N        4.21082103       4.05186451      26.91368985        0      -0.00001298      -0.00002663       0.03992981
H        4.88686423       4.71230425      26.47645021        0       0.01107194      -0.03057081       0.02026105
H        4.44475728       3.13617319      26.47644936        0      -0.03202034       0.00572906       0.02027483
H        3.30084137       4.30711495      26.47645059        0       0.02096152       0.02486819       0.02026995
