31
Lattice="8.421641763931781 0.0 0.0 4.2108208819658905 7.293355709136913 0.0 0.0 0.0 44.584161137365626" Properties=species:S:1:pos:R:3:tags:I:1:forces:R:3 energy=-173.70556640625 free_energy=-173.70556640625 stress="0.010679900646209717 1.805818646971602e-05 -0.00010511657455936074 1.805818646971602e-05 0.010598577558994293 0.00012217150651849806 -0.00010511657455936074 0.00012217150651849806 2.2028332296031294e-06" pbc="T T T"
Pt       1.40360696       0.81037286      20.00000000        3      -0.00222947      -0.00067185      -0.00495568
Pt       4.21082088       0.81037286      20.00000000        3       0.00095391       0.00494786       0.01098794
Pt       7.01803480       0.81037286      20.00000000        3       0.00406337      -0.00217969      -0.00999784
Pt       2.80721392       3.24149143      20.00000000        3       0.00466443      -0.00409556       0.01731595
Pt       5.61442784       3.24149143      20.00000000        3      -0.00299886      -0.00400844       0.01669553
Pt       8.42164176       3.24149143      20.00000000        3       0.00205215      -0.00816865      -0.00731596
Pt       4.21082088       5.67261000      20.00000000        3       0.00124945       0.00284295      -0.00632772
Pt       7.01803480       5.67261000      20.00000000        3      -0.00511502       0.00124854      -0.00838447
Pt       9.82524872       5.67261000      20.00000000        3       0.00619593       0.00172226      -0.01458517
Pt      -0.00000000       1.62074571      22.29208057        2       0.00662689       0.03738208       0.00044375
Pt       2.80721392       1.62074571      22.29208057        2       0.05757756       0.05556652      -0.02255746
Pt       5.61442784       1.62074571      22.29208057        2      -0.10702232       0.07995272       0.00196845
Pt       1.40360696       4.05186428      22.29208057        2       0.04084310      -0.04247294       0.01113730
Pt       4.21082088       4.05186428      22.29208057        2       0.00029217      -0.05663107      -0.04439366
Pt       7.01803480       4.05186428      22.29208057        2      -0.08073069      -0.02079082       0.02946961
Pt       2.80721392       6.48298285      22.29208057        2      -0.00707937       0.01071541      -0.02885472
Pt       5.61442784       6.48298285      22.29208057        2      -0.00493919      -0.00751977       0.00720730
Pt       8.42164176       6.48298285      22.29208057        2      -0.02805986       0.07556043       0.02046571
Pt      -0.01811043       0.02477026      24.58411569        1       0.02133983      -0.01686210       0.02003917
Pt       2.77939999       0.00930233      24.59872592        1       0.02064994      -0.01531349      -0.00505431
Pt       5.59993127       0.01559347      24.59286644        1      -0.01153701      -0.00013486       0.02494738
Pt       1.38294705       2.45486676      24.61009044        1      -0.00261928      -0.02139027       0.00394794
Pt       4.18908994       2.44627402      24.67092179        1       0.03120576      -0.01393986       0.01026776
Pt       7.01037453       2.44910388      24.59967649        1       0.00281459      -0.00813589      -0.01153718
Pt       2.77470863       4.90357754      24.59103374        1       0.02650874      -0.00938869       0.00397667
Pt       5.59064817       4.88310056      24.61101227        1       0.00433589      -0.00564812      -0.00108971
Pt       8.39788450       4.88129054      24.58384639        1       0.00010914      -0.00278521       0.02106977
N        4.01255017       2.73586202      26.71815676        0       0.01997906      -0.01735064       0.00638062
H        3.01549813       2.80925857      26.93955628        0      -0.02837665      -0.02427039       0.00173204
H        4.48673330       3.61269433      26.95131985        0       0.03155570       0.02075484      -0.00267678
H        4.44026207       1.94956876      27.21341136        0      -0.00231007      -0.00893542      -0.04032192
