31
Lattice="8.421641763931781 0.0 0.0 4.2108208819658905 7.293355709136913 0.0 0.0 0.0 44.584161137365626" Properties=species:S:1:pos:R:3:tags:I:1:forces:R:3 energy=-172.5950164794922 free_energy=-172.5950164794922 stress="0.010540739633142948 -1.5965170518938976e-08 1.7367778326615735e-08 -1.5965170518938976e-08 0.010540781542658806 1.8432944060009504e-08 1.7367778326615735e-08 1.8432944060009504e-08 -0.00010160238161915913" pbc="T T T"
Pt       1.40360696       0.81037286      20.00000000        3       0.00000143      -0.00000293      -0.00804326
Pt       4.21082088       0.81037286      20.00000000        3      -0.00033382       0.00056192      -0.00361896
Pt       7.01803480       0.81037286      20.00000000        3       0.00033347       0.00056071      -0.00362056
Pt       2.80721392       3.24149143      20.00000000        3       0.00032147      -0.00057260      -0.00362042
Pt       5.61442784       3.24149143      20.00000000        3      -0.00000258       0.00000027       0.00280094
Pt       8.42164176       3.24149143      20.00000000        3      -0.00031867      -0.00057204      -0.00362191
Pt       4.21082088       5.67261000      20.00000000        3       0.00065808       0.00001040      -0.00361910
Pt       7.01803480       5.67261000      20.00000000        3      -0.00065820       0.00001173      -0.00362140
Pt       9.82524872       5.67261000      20.00000000        3      -0.00000081       0.00000240      -0.00901872
Pt      -0.00000000       1.62074571      22.29208057        2      -0.02764729       0.01596073      -0.01667690
Pt       2.80721392       1.62074571      22.29208057        2       0.02764895       0.01596404      -0.01668087
Pt       5.61442784       1.62074571      22.29208057        2      -0.00000146       0.02752715       0.02986664
Pt       1.40360696       4.05186428      22.29208057        2       0.00000104      -0.01516524      -0.02845092
Pt       4.21082088       4.05186428      22.29208057        2       0.02384188      -0.01376509       0.02986355
Pt       7.01803480       4.05186428      22.29208057        2      -0.02384393      -0.01376527       0.02986883
Pt       2.80721392       6.48298285      22.29208057        2       0.01313354       0.00758413      -0.02845327
Pt       5.61442784       6.48298285      22.29208057        2      -0.00000290      -0.03192519      -0.01668229
Pt       8.42164176       6.48298285      22.29208057        2      -0.01313062       0.00758432      -0.02845565
Pt       0.00435875       0.00251498      24.57790533        1      -0.02783014      -0.01606110       0.01101223
Pt       2.80285662       0.00251594      24.57790422        1       0.02782453      -0.01606680       0.01102209
Pt       5.61442761      -0.00781522      24.57844156        1       0.00000336       0.04039346       0.01039949
Pt       1.40360689       2.42608599      24.57790507        1       0.00000041       0.03213397       0.01101214
Pt       4.20815392       2.42957875      24.59062836        1      -0.02003563      -0.01157307       0.00456902
Pt       7.02070200       2.42957773      24.59062745        1       0.02003590      -0.01156695       0.00456978
Pt       2.80044764       4.86614357      24.57844108        1       0.03497074      -0.02019555       0.01040089
Pt       5.61442669       4.86531708      24.59062784        1       0.00001011       0.02313532       0.00457051
Pt       8.42840905       4.86614412      24.57844192        1      -0.03497867      -0.02019921       0.01040128
N        5.61442959       3.24149271      27.94718805        0      -0.00012515      -0.00013003      -0.00692517
H        6.42941605       3.71202577      27.54979823        0      -0.00660615      -0.00381441       0.00353570
H        5.61442733       2.30042246      27.54979779        0       0.00001196       0.00781082       0.00362054
H        4.79943839       3.71202566      27.54979822        0       0.00671935      -0.00386596       0.00359576
