31
Lattice="8.421641763931781 0.0 0.0 4.2108208819658905 7.293355709136913 0.0 0.0 0.0 44.584161137365626" Properties=species:S:1:pos:R:3:tags:I:1:forces:R:3 energy=-172.64569091796875 free_energy=-172.64569091796875 stress="0.010564301162958145 7.052833428389249e-09 7.426231629636959e-09 7.052833428389249e-09 0.010564295575022697 8.468950873918857e-09 7.426231629636959e-09 8.468950873918857e-09 0.00012950283417012542" pbc="T T T"
Pt       1.40360696       0.81037286      20.00000000        3      -0.00160601       0.00092496       0.00035623
Pt       4.21082088       0.81037286      20.00000000        3       0.00000213       0.00393032       0.00387245
Pt       7.01803480       0.81037286      20.00000000        3       0.00160449       0.00092553       0.00035548
Pt       2.80721392       3.24149143      20.00000000        3       0.00078925       0.00045458       0.03163388
Pt       5.61442784       3.24149143      20.00000000        3      -0.00079046       0.00045509       0.03163335
Pt       8.42164176       3.24149143      20.00000000        3       0.00000143      -0.00185505       0.00035495
Pt       4.21082088       5.67261000      20.00000000        3       0.00000211      -0.00090872       0.03163362
Pt       7.01803480       5.67261000      20.00000000        3      -0.00340685      -0.00196372       0.00387013
Pt       9.82524872       5.67261000      20.00000000        3       0.00340380      -0.00196324       0.00387067
Pt      -0.00000000       1.62074571      22.29208057        2       0.00000175      -0.00000040      -0.05205581
Pt       2.80721392       1.62074571      22.29208057        2       0.08638964       0.08268867       0.00364401
Pt       5.61442784       1.62074571      22.29208057        2      -0.08639088       0.08268847       0.00364253
Pt       1.40360696       4.05186428      22.29208057        2       0.11480716       0.03346960       0.00364463
Pt       4.21082088       4.05186428      22.29208057        2       0.00000109      -0.00000075       0.03506952
Pt       7.01803480       4.05186428      22.29208057        2      -0.11480839       0.03346942       0.00364407
Pt       2.80721392       6.48298285      22.29208057        2       0.02841617      -0.11615974       0.00364137
Pt       5.61442784       6.48298285      22.29208057        2      -0.02841729      -0.11615885       0.00364099
Pt       8.42164176       6.48298285      22.29208057        2       0.00000105       0.00000313      -0.05437810
Pt       0.00000003       0.00400357      24.58141991        1       0.00000206       0.01598139      -0.00493905
Pt       2.80977481      -0.00147854      24.56614464        1      -0.00538307       0.00310631      -0.00713846
Pt       5.61186690      -0.00147865      24.56614442        1       0.00538133       0.00310565      -0.00713795
Pt       1.40013974       2.42911627      24.58142065        1      -0.01383951      -0.00798788      -0.00494756
Pt       4.21082102       2.40793852      24.63180145        1      -0.00000053       0.01428650      -0.00863560
Pt       7.02150193       2.42911619      24.58142009        1       0.01383917      -0.00798807      -0.00494735
Pt       2.78713985       4.87382695      24.63180126        1       0.01236855      -0.00714480      -0.00863703
Pt       5.63450211       4.87382690      24.63180170        1      -0.01237047      -0.00714313      -0.00863777
Pt       8.42164179       4.86519408      24.56614513        1       0.00000239      -0.00621472      -0.00713551
N        4.21082148       4.05186444      26.88132071        0      -0.00003871      -0.00004657       0.03626618
H        4.21082057       4.97044491      26.36859943        0       0.00000475       0.00320278      -0.01074228
H        5.00633627       3.59257374      26.36859908        0       0.00274088      -0.00158550      -0.01073164
H        3.41530523       3.59257385      26.36859889        0      -0.00270694      -0.00157126      -0.01071048
