31
Lattice="8.421641763931781 0.0 0.0 4.2108208819658905 7.293355709136913 0.0 0.0 0.0 44.584161137365626" Properties=species:S:1:pos:R:3:tags:I:1:forces:R:3 energy=-172.8059844970703 free_energy=-172.8059844970703 stress="0.010280258022248745 9.877079154563262e-10 1.510004898896966e-10 9.877079154563262e-10 0.010280277580022812 2.663169240690877e-09 1.510004898896966e-10 2.663169240690877e-09 -5.3957402997184545e-05" pbc="T T T"
Pt       1.40360696       0.81037286      20.00000000        3      -0.00104941       0.00060391      -0.00947347
Pt       4.21082088       0.81037286      20.00000000        3       0.00000176       0.00276190      -0.00425187
Pt       7.01803480       0.81037286      20.00000000        3       0.00104736       0.00060418      -0.00947398
Pt       2.80721392       3.24149143      20.00000000        3       0.00059250       0.00034104       0.01770321
Pt       5.61442784       3.24149143      20.00000000        3      -0.00059329       0.00034127       0.01770443
Pt       8.42164176       3.24149143      20.00000000        3       0.00000132      -0.00121217      -0.00947535
Pt       4.21082088       5.67261000      20.00000000        3       0.00000218      -0.00068161       0.01770389
Pt       7.01803480       5.67261000      20.00000000        3      -0.00239513      -0.00137984      -0.00425401
Pt       9.82524872       5.67261000      20.00000000        3       0.00239232      -0.00137897      -0.00425315
Pt      -0.00000000       1.62074571      22.29208057        2       0.00000188      -0.00000259      -0.09937713
Pt       2.80721392       1.62074571      22.29208057        2       0.11651091       0.09124207       0.00165032
Pt       5.61442784       1.62074571      22.29208057        2      -0.11651191       0.09124255       0.00164987
Pt       1.40360696       4.05186428      22.29208057        2       0.13727498       0.05527817       0.00165048
Pt       4.21082088       4.05186428      22.29208057        2       0.00000164      -0.00000036       0.08201113
Pt       7.01803480       4.05186428      22.29208057        2      -0.13727739       0.05527873       0.00165093
Pt       2.80721392       6.48298285      22.29208057        2       0.02076580      -0.14652050       0.00164983
Pt       5.61442784       6.48298285      22.29208057        2      -0.02076658      -0.14652053       0.00164997
Pt       8.42164176       6.48298285      22.29208057        2       0.00000102       0.00000282      -0.07235131
Pt       0.00000023       0.00600166      24.56729906        1       0.00000098       0.04489913       0.00588265
Pt       2.80788474      -0.00038735      24.56074755        1       0.00382773      -0.00221018       0.01202261
Pt       5.61375708      -0.00038749      24.56074729        1      -0.00382863      -0.00220898       0.01202172
Pt       1.39840935       2.42811763      24.56729905        1      -0.03888347      -0.02244973       0.00588401
Pt       4.21082097       2.40924922      24.61408978        1      -0.00000127       0.00593990       0.00152527
Pt       7.02323233       2.42811754      24.56729906        1       0.03888369      -0.02245004       0.00588420
Pt       2.78827448       4.87317185      24.61408992        1       0.00514538      -0.00297235       0.00152881
Pt       5.63336700       4.87317173      24.61409000        1      -0.00514486      -0.00296995       0.00152772
Pt       8.42164176       4.86301149      24.56074765        1       0.00000060       0.00442083       0.01202320
N        4.21082122       4.05186434      26.95105536        0      -0.00000945      -0.00001768       0.00446227
H        5.03073151       4.52523986      26.52528308        0       0.02163276       0.01249284       0.00170219
H        4.21082100       3.10511295      26.52528285        0       0.00000004      -0.02496143       0.00171478
H        3.39091010       4.52524015      26.52528350        0      -0.02162325       0.01248735       0.00170678
