31
Lattice="8.421641763931781 0.0 0.0 4.2108208819658905 7.293355709136913 0.0 0.0 0.0 44.584161137365626" Properties=species:S:1:pos:R:3:tags:I:1:forces:R:3 energy=-172.8042755126953 free_energy=-172.8042755126953 stress="0.010287951678037643 -7.209933761131992e-10 3.4961376016440227e-09 -7.209933761131992e-10 0.010287974961102009 -5.595860663731855e-09 3.4961376016440227e-09 -5.595860663731855e-09 2.5788796847336926e-05" pbc="T T T"
Pt       1.40360696       0.81037286      20.00000000        3       0.00000047      -0.00000234      -0.01219064
Pt       4.21082088       0.81037286      20.00000000        3      -0.00197883       0.00239123       0.00095350
Pt       7.01803480       0.81037286      20.00000000        3       0.00218475       0.00302540       0.00097692
Pt       2.80721392       3.24149143      20.00000000        3       0.00152954      -0.00340782       0.00097510
Pt       5.61442784       3.24149143      20.00000000        3      -0.00000169      -0.00000019       0.03240660
Pt       8.42164176       3.24149143      20.00000000        3      -0.00108070      -0.00291163       0.00095209
Pt       4.21082088       5.67261000      20.00000000        3       0.00306487       0.00052077       0.00095236
Pt       7.01803480       5.67261000      20.00000000        3      -0.00371774       0.00038205       0.00097495
Pt       9.82524872       5.67261000      20.00000000        3      -0.00000116       0.00000261      -0.01433024
Pt      -0.00000000       1.62074571      22.29208057        2      -0.14873205       0.08593622       0.01205663
Pt       2.80721392       1.62074571      22.29208057        2       0.14879040       0.08583812       0.01205706
Pt       5.61442784       1.62074571      22.29208057        2       0.00261013       0.12159268       0.04922148
Pt       1.40360696       4.05186428      22.29208057        2      -0.00523392      -0.02982293      -0.07348678
Pt       4.21082088       4.05186428      22.29208057        2       0.10399988      -0.06306168       0.04921870
Pt       7.01803480       4.05186428      22.29208057        2      -0.10661401      -0.05853783       0.04921843
Pt       2.80721392       6.48298285      22.29208057        2       0.02844216       0.01037799      -0.07348442
Pt       5.61442784       6.48298285      22.29208057        2      -0.00005903      -0.17177391       0.01205418
Pt       8.42164176       6.48298285      22.29208057        2      -0.02320436       0.01944949      -0.07348736
Pt       0.00528387       0.00130344      24.56071261        1      -0.02640266      -0.00284357       0.02083959
Pt       2.80344401       0.00392334      24.56071279        1       0.01565555      -0.02144366       0.02083951
Pt       5.62303455      -0.01200364      24.56953736        1      -0.02004471       0.02605879      -0.00907238
Pt       1.40209338       2.42589151      24.56071549        1       0.01074514       0.02428102       0.02083017
Pt       4.18914611       2.41046012      24.61256727        1       0.01475345       0.02396791       0.01037762
Pt       7.04676139       2.42267649      24.61256778        1      -0.02813225       0.00079205       0.01037746
Pt       2.79251530       4.86078382      24.56953537        1       0.03259455       0.00433839      -0.00906160
Pt       5.60737520       4.89133556      24.61256630        1       0.01337730      -0.02475493       0.01038371
Pt       8.42773295       4.87569282      24.56953711        1      -0.01254459      -0.03039366      -0.00905953
N        5.61442850       3.24149168      26.94051528        0      -0.00003482       0.00002916      -0.04892501
H        4.83886946       2.69238847      26.52022049        0       0.01090990       0.02138628       0.00247937
H        5.52667016       4.18769674      26.52021800        0       0.01307326      -0.02015999       0.00248646
H        6.47774399       2.84438935      26.52021935        0      -0.02394868      -0.00125596       0.00246588
