31
Lattice="8.421641763931781 0.0 0.0 4.2108208819658905 7.293355709136913 0.0 0.0 0.0 44.584161137365626" Properties=species:S:1:pos:R:3:tags:I:1:forces:R:3 energy=-172.575439453125 free_energy=-172.575439453125 stress="0.010545257478952408 4.3551484850468114e-05 -5.488157967192819e-06 4.3551484850468114e-05 0.010495178401470184 1.1603206985455472e-05 -5.488157967192819e-06 1.1603206985455472e-05 -0.00012014647654723376" pbc="T T T"
Pt       1.40360696       0.81037286      20.00000000        3      -0.00110878       0.00043873      -0.00392619
Pt       4.21082088       0.81037286      20.00000000        3       0.00031218       0.00118374      -0.00138918
Pt       7.01803480       0.81037286      20.00000000        3       0.00068397       0.00036260      -0.00524226
Pt       2.80721392       3.24149143      20.00000000        3       0.00089909      -0.00012368       0.00689575
Pt       5.61442784       3.24149143      20.00000000        3      -0.00062106      -0.00083738       0.00243402
Pt       8.42164176       3.24149143      20.00000000        3      -0.00004186      -0.00116397      -0.00411156
Pt       4.21082088       5.67261000      20.00000000        3      -0.00045147       0.00034943       0.00005889
Pt       7.01803480       5.67261000      20.00000000        3      -0.00032483      -0.00015915      -0.00613126
Pt       9.82524872       5.67261000      20.00000000        3       0.00062881      -0.00010229      -0.00393930
Pt      -0.00000000       1.62074571      22.29208057        2       0.01000800       0.00574827      -0.04594727
Pt       2.80721392       1.62074571      22.29208057        2       0.03564682       0.04295261       0.02674796
Pt       5.61442784       1.62074571      22.29208057        2      -0.04664600       0.03454252       0.00318340
Pt       1.40360696       4.05186428      22.29208057        2       0.04505006       0.00011380       0.01556636
Pt       4.21082088       4.05186428      22.29208057        2      -0.02154106      -0.02878688       0.04390666
Pt       7.01803480       4.05186428      22.29208057        2      -0.02308456      -0.00963875      -0.02192735
Pt       2.80721392       6.48298285      22.29208057        2       0.00669342      -0.04164981      -0.00911018
Pt       5.61442784       6.48298285      22.29208057        2      -0.01601486      -0.01162739      -0.02391999
Pt       8.42164176       6.48298285      22.29208057        2       0.00854056       0.00961617      -0.02985814
Pt       0.00087460       0.00640711      24.57873337        1       0.00308061      -0.00562897      -0.00410250
Pt       2.80604546      -0.00534719      24.57862977        1      -0.00284775       0.01129127      -0.00653553
Pt       5.61479635      -0.00055047      24.57622528        1      -0.00006633       0.00036772      -0.00779530
Pt       1.39524156       2.42715493      24.58337341        1       0.02899335       0.01774819       0.00005081
Pt       4.21890008       2.41812441      24.59781649        1      -0.00626728       0.01011783       0.02197278
Pt       7.02350818       2.42922034      24.57886136        1      -0.00716055       0.00706740      -0.00327221
Pt       2.80037529       4.87495290      24.58785889        1       0.00773005      -0.01306619       0.00253633
Pt       5.62153191       4.86705179      24.58331955        1      -0.02939701      -0.01537388      -0.00193708
Pt       8.41594811       4.86450610      24.57851487        1       0.00427924      -0.00535311      -0.00740898
N        3.50915064       3.64625197      27.58833529        0       0.00995883      -0.01813702      -0.00559852
H        2.56151818       3.64498013      27.20167710        0       0.02174836       0.00799382       0.03819874
H        3.98400032       4.46647520      27.20180030        0      -0.01915436      -0.01505437       0.03898164
H        3.98187520       2.82761534      27.19136915        0      -0.00952546       0.01680863      -0.00838061
