31
Lattice="8.421641763931781 0.0 0.0 4.2108208819658905 7.293355709136913 0.0 0.0 0.0 44.584161137365626" Properties=species:S:1:pos:R:3:tags:I:1:forces:R:3 energy=-172.65139770507812 free_energy=-172.65139770507812 stress="0.010359596461057663 2.8967455101280848e-09 -3.6726448549018187e-09 2.8967455101280848e-09 0.010359604842960835 2.93838797738033e-09 -3.6726448549018187e-09 2.93838797738033e-09 -4.0895796701079234e-05" pbc="T T T"
Pt       1.40360696       0.81037286      20.00000000        3       0.00000092      -0.00000308      -0.00685558
Pt       4.21082088       0.81037286      20.00000000        3      -0.00128933       0.00270276       0.00972661
Pt       7.01803480       0.81037286      20.00000000        3       0.00128878       0.00270200       0.00972548
Pt       2.80721392       3.24149143      20.00000000        3       0.00169803      -0.00247097       0.00972560
Pt       5.61442784       3.24149143      20.00000000        3      -0.00000239      -0.00000032       0.04421803
Pt       8.42164176       3.24149143      20.00000000        3      -0.00169523      -0.00246996       0.00972492
Pt       4.21082088       5.67261000      20.00000000        3       0.00298976      -0.00023244       0.00972635
Pt       7.01803480       5.67261000      20.00000000        3      -0.00298980      -0.00023178       0.00972563
Pt       9.82524872       5.67261000      20.00000000        3      -0.00000088       0.00000301      -0.00171113
Pt      -0.00000000       1.62074571      22.29208057        2      -0.12750283       0.07361217      -0.01448519
Pt       2.80721392       1.62074571      22.29208057        2       0.12750509       0.07361320      -0.01448554
Pt       5.61442784       1.62074571      22.29208057        2      -0.00000268       0.08691660      -0.02148327
Pt       1.40360696       4.05186428      22.29208057        2       0.00000100      -0.00805579      -0.05043398
Pt       4.21082088       4.05186428      22.29208057        2       0.07527337      -0.04345775      -0.02148130
Pt       7.01803480       4.05186428      22.29208057        2      -0.07527476      -0.04345718      -0.02148002
Pt       2.80721392       6.48298285      22.29208057        2       0.00697944       0.00402742      -0.05043706
Pt       5.61442784       6.48298285      22.29208057        2      -0.00000141      -0.14722839      -0.01448635
Pt       8.42164176       6.48298285      22.29208057        2      -0.00697719       0.00402932      -0.05043665
Pt       0.00346152       0.00199812      24.56004357        1      -0.00292637      -0.00169021       0.02772063
Pt       2.80375272       0.00199827      24.56004398        1       0.00292760      -0.00169022       0.02772057
Pt       5.61442786      -0.00376756      24.58110128        1      -0.00000183       0.00321148      -0.00503249
Pt       1.40360709       2.42712172      24.56004415        1      -0.00000061       0.00337912       0.02772127
Pt       4.18473766       2.41605919      24.61787412        1       0.01591802       0.00918843       0.04069610
Pt       7.04411815       2.41605905      24.61787413        1      -0.01591860       0.00919175       0.04069796
Pt       2.80395141       4.86412066      24.58110158        1       0.00278218      -0.00160523      -0.00504009
Pt       5.61442769       4.89235539      24.61787398        1       0.00000081      -0.01837994       0.04069573
Pt       8.42490401       4.86412059      24.58110207        1      -0.00278153      -0.00160491      -0.00503941
N        5.61442756       3.24149182      26.85605559        0       0.00001580      -0.00001927      -0.01852819
H        5.61442773       2.32351860      26.34043734        0      -0.00000045      -0.01305442      -0.00213027
H        4.81944015       3.70047809      26.34043714        0      -0.01132973       0.00654142      -0.00214329
H        6.40941571       3.70047794      26.34043726        0       0.01131489       0.00653291      -0.00213534
