31
Lattice="8.421641763931781 0.0 0.0 4.2108208819658905 7.293355709136913 0.0 0.0 0.0 44.584161137365626" Properties=species:S:1:pos:R:3:tags:I:1:forces:R:3 energy=-173.7161865234375 free_energy=-173.7161865234375 stress="0.010666695423424244 -4.492264782385291e-09 -4.2504599839787716e-09 -4.492264782385291e-09 0.010666705667972565 8.407054497006072e-10 -4.2504599839787716e-09 8.407054497006072e-10 -1.8183261545345886e-06" pbc="T T T"
Pt       1.40360696       0.81037286      20.00000000        3      -0.00237093      -0.00214305      -0.00628385
Pt       4.21082088       0.81037286      20.00000000        3      -0.00053757       0.00469146       0.01202175
Pt       7.01803480       0.81037286      20.00000000        3       0.00303751      -0.00098571      -0.00628507
Pt       2.80721392       3.24149143      20.00000000        3       0.00433494      -0.00187979       0.01202071
Pt       5.61442784       3.24149143      20.00000000        3      -0.00379649      -0.00281396       0.01201990
Pt       8.42164176       3.24149143      20.00000000        3      -0.00067025      -0.00618672      -0.00957540
Pt       4.21082088       5.67261000      20.00000000        3      -0.00066634       0.00312605      -0.00628522
Pt       7.01803480       5.67261000      20.00000000        3      -0.00502406       0.00367821      -0.00957596
Pt       9.82524872       5.67261000      20.00000000        3       0.00569336       0.00251405      -0.00957546
Pt      -0.00000000       1.62074571      22.29208057        2      -0.00845829       0.00598749      -0.00398054
Pt       2.80721392       1.62074571      22.29208057        2       0.07003633       0.03508574      -0.02903139
Pt       5.61442784       1.62074571      22.29208057        2      -0.06540589       0.04310968      -0.02903269
Pt       1.40360696       4.05186428      22.29208057        2       0.05739974      -0.02607729       0.02847157
Pt       4.21082088       4.05186428      22.29208057        2      -0.00463221      -0.07819749      -0.02903222
Pt       7.01803480       4.05186428      22.29208057        2      -0.05128249      -0.03667175       0.02847039
Pt       2.80721392       6.48298285      22.29208057        2      -0.00095439      -0.01032080      -0.00398382
Pt       5.61442784       6.48298285      22.29208057        2       0.00941556       0.00433669      -0.00398456
Pt       8.42164176       6.48298285      22.29208057        2      -0.00611611       0.06274984       0.02846771
Pt       0.00000061      -0.00000007      24.58900202        1       0.00000068       0.00000099      -0.00093982
Pt       2.80275894      -0.00565696      24.60592499        1       0.01109155       0.01446869      -0.00246528
Pt       5.62155130      -0.00947781      24.59462571        1      -0.00212712      -0.00500569       0.01185375
Pt       1.39183730       2.42968910      24.59462679        1      -0.00327133       0.00434186       0.01184462
Pt       4.21082043       2.43111760      24.65974615        1      -0.00000064      -0.00000037       0.03700304
Pt       7.02516061       2.43008926      24.60592510        1      -0.01807352       0.00237063      -0.00246485
Pt       2.80454387       4.86892375      24.60592492        1       0.00697963      -0.01683962      -0.00246502
Pt       5.61907470       4.87314469      24.59462602        1       0.00539433       0.00066022       0.01185380
Pt       8.42164203       4.86223770      24.58874899        1       0.00000107      -0.00000327      -0.00018594
N        4.21082022       2.43111718      26.72996526        0      -0.00004172       0.00001244      -0.04315281
H        3.72729198       1.58706242      27.04813748        0       0.00426348       0.00505604       0.00141484
H        3.72161050       3.27189364      27.04813374        0       0.00226124      -0.00623065       0.00141910
H        5.18355801       2.43439758      27.04813270        0      -0.00648020       0.00116611       0.00143833
