31
Lattice="8.421641763931781 0.0 0.0 4.2108208819658905 7.293355709136913 0.0 0.0 0.0 44.584161137365626" Properties=species:S:1:pos:R:3:tags:I:1:forces:R:3 energy=-172.80453491210938 free_energy=-172.80453491210938 stress="0.010308971628546715 -3.9994724199132747e-10 2.9411086899244765e-09 -3.9994724199132747e-10 0.010308973491191864 -4.0719121408017145e-09 2.9411086899244765e-09 -4.0719121408017145e-09 -2.4851231501088478e-05" pbc="T T T"
Pt       1.40360696       0.81037286      20.00000000        3      -0.00189629       0.00057100      -0.00842461
Pt       4.21082088       0.81037286      20.00000000        3      -0.00024364       0.00310640      -0.00555280
Pt       7.01803480       0.81037286      20.00000000        3       0.00144307       0.00135360      -0.00842565
Pt       2.80721392       3.24149143      20.00000000        3       0.00007743      -0.00009910       0.01854649
Pt       5.61442784       3.24149143      20.00000000        3       0.00004570       0.00011510       0.01854640
Pt       8.42164176       3.24149143      20.00000000        3       0.00045293      -0.00192923      -0.00842714
Pt       4.21082088       5.67261000      20.00000000        3      -0.00012112      -0.00001452       0.01854762
Pt       7.01803480       5.67261000      20.00000000        3      -0.00257099      -0.00176363      -0.00555447
Pt       9.82524872       5.67261000      20.00000000        3       0.00281272      -0.00133906      -0.00555429
Pt      -0.00000000       1.62074571      22.29208057        2       0.00000225      -0.00000192      -0.10868172
Pt       2.80721392       1.62074571      22.29208057        2       0.11439776       0.09611011       0.00602173
Pt       5.61442784       1.62074571      22.29208057        2      -0.10752886       0.10099155       0.00854910
Pt       1.40360696       4.05186428      22.29208057        2       0.14122531       0.04262362       0.00855235
Pt       4.21082088       4.05186428      22.29208057        2       0.00000219      -0.00000007       0.08438896
Pt       7.01803480       4.05186428      22.29208057        2      -0.14043607       0.05101570       0.00602333
Pt       2.80721392       6.48298285      22.29208057        2       0.02604021      -0.14712659       0.00601874
Pt       5.61442784       6.48298285      22.29208057        2      -0.03369910      -0.14361456       0.00855212
Pt       8.42164176       6.48298285      22.29208057        2      -0.00000123       0.00000178      -0.08290887
Pt      -0.00956046       0.01235238      24.57145879        1       0.02425918      -0.01662907      -0.01094167
Pt       2.80763481      -0.00316348      24.55879183        1       0.00017349       0.01291333       0.02383688
Pt       5.61147786       0.00121677      24.55879055        1       0.01109613      -0.00660640       0.02384813
Pt       1.39768961       2.41666186      24.57145921        1       0.00227233       0.02932380      -0.01093955
Pt       4.21711667       2.40983881      24.61358373        1      -0.01066866       0.00368956       0.00520316
Pt       7.03351213       2.43322201      24.57145905        1      -0.02652601      -0.01269275      -0.01093976
Pt       2.78563810       4.86742432      24.61358448        1       0.00852811       0.00739137       0.00520588
Pt       5.62970904       4.87832927      24.61358391        1       0.00213770      -0.01108168       0.00520153
Pt       8.42417107       4.86418345      24.55879155        1      -0.01127389      -0.00630797       0.02383773
N        4.21082132       4.05186413      26.95085163        0      -0.00000642       0.00002872      -0.01157698
H        4.28890214       3.10629916      26.52760618        0      -0.01121276       0.01353711       0.00234003
H        3.35289632       4.45702627      26.52760640        0       0.01735459       0.00292647       0.00235288
H        4.99066331       4.59226735      26.52760594        0      -0.00613599      -0.01649258       0.00235422
