31
Lattice="8.421641763931781 0.0 0.0 4.2108208819658905 7.293355709136913 0.0 0.0 0.0 44.584161137365626" Properties=species:S:1:pos:R:3:tags:I:1:forces:R:3 energy=-172.76148986816406 free_energy=-172.76148986816406 stress="0.010398839600384235 -8.091465861070901e-05 -6.97640425642021e-05 -8.091465861070901e-05 0.010346867144107819 -0.00012504804180935025 -6.97640425642021e-05 -0.00012504804180935025 3.0792805773671716e-05" pbc="T T T"
Pt       1.40360696       0.81037286      20.00000000        3       0.00042728       0.00079366      -0.00353751
Pt       4.21082088       0.81037286      20.00000000        3       0.00037802       0.00380533       0.00172430
Pt       7.01803480       0.81037286      20.00000000        3       0.00233046       0.00270158       0.00237915
Pt       2.80721392       3.24149143      20.00000000        3       0.00085811      -0.00218567       0.01590502
Pt       5.61442784       3.24149143      20.00000000        3      -0.00110908       0.00289394       0.03659818
Pt       8.42164176       3.24149143      20.00000000        3      -0.00055788      -0.00220328       0.00321701
Pt       4.21082088       5.67261000      20.00000000        3       0.00323246       0.00077529       0.01940987
Pt       7.01803480       5.67261000      20.00000000        3      -0.00290746      -0.00062422       0.00399801
Pt       9.82524872       5.67261000      20.00000000        3       0.00287965      -0.00069231      -0.00485629
Pt      -0.00000000       1.62074571      22.29208057        2      -0.06586698       0.01851140      -0.05669916
Pt       2.80721392       1.62074571      22.29208057        2       0.10449625       0.07611500       0.01836655
Pt       5.61442784       1.62074571      22.29208057        2      -0.05972671       0.07665193      -0.01966743
Pt       1.40360696       4.05186428      22.29208057        2       0.03736860      -0.02237759      -0.04282051
Pt       4.21082088       4.05186428      22.29208057        2       0.07248828      -0.00916239       0.02686999
Pt       7.01803480       4.05186428      22.29208057        2      -0.13662697       0.01731450       0.02739587
Pt       2.80721392       6.48298285      22.29208057        2       0.03788651      -0.05533027      -0.03392365
Pt       5.61442784       6.48298285      22.29208057        2      -0.02943758      -0.19373722       0.06492700
Pt       8.42164176       6.48298285      22.29208057        2      -0.02046368      -0.00894078      -0.05894040
Pt      -0.02062651       0.00201129      24.57390674        1       0.01588449       0.00024097      -0.02147718
Pt       2.79931737      -0.00607376      24.55895348        1      -0.01372576       0.00371442       0.00540510
Pt       5.60797363      -0.03069458      24.57063995        1       0.00461053      -0.00566466      -0.00686967
Pt       1.37135997       2.41553443      24.57289327        1      -0.01375470      -0.01776244      -0.01404595
Pt       4.17720752       2.38958334      24.61622909        1      -0.01147619       0.01140637       0.00466678
Pt       6.99006706       2.41441491      24.60179903        1       0.04128256      -0.00646078       0.00962451
Pt       2.79677678       4.83508842      24.60072261        1      -0.00157052       0.02197147       0.01102196
Pt       5.62270688       4.89399493      24.62803421        1      -0.00349758       0.02343261      -0.01594430
Pt       8.42181551       4.84999653      24.57091273        1      -0.00341483      -0.00233288      -0.01212755
N        4.91671809       3.62806926      26.87165583        0       0.01618848       0.02756596       0.02695253
H        4.02247081       3.72122850      26.33079365        0       0.02666105       0.00907583      -0.00592586
H        5.41091227       4.49370970      26.56866775        0      -0.00002033       0.00509469       0.01815750
H        5.44901016       2.90626566      26.32759880        0      -0.00281654       0.02540941       0.00021577
