36
Lattice="8.421641763931781 0.0 0.0 4.2108208819658905 7.293355709136913 0.0 0.0 0.0 46.87624170604845" Properties=species:S:1:pos:R:3:tags:I:1:forces:R:3 charge=0 spin=0 energy=-187.00367709663286 free_energy=-187.00367709663286 stress="0.010496653616428375 1.6284359971585616e-10 2.078071492661593e-09 1.6284359971585616e-10 0.010496672242879868 -9.957898949863875e-10 2.078071492661593e-09 -9.957898949863875e-10 4.6234665205702186e-05" pbc="T T T"
Pt      -0.00000012      -0.00000006      19.95723441        4      -0.00000121       0.00000388       0.01626845
Pt       2.80721404      -0.00000017      19.95723443        4      -0.00000072       0.00000244       0.01627021
Pt       5.61442783      -0.00000005      19.95723453        4       0.00000014       0.00000280       0.01627173
Pt       1.40360720       2.43111842      19.95723431        4      -0.00000117       0.00000232       0.01628127
Pt       4.21082084       2.43111836      19.95723443        4       0.00000234       0.00000130       0.01627173
Pt       7.01803480       2.43111843      19.95723433        4      -0.00000029       0.00000097       0.01628053
Pt       2.80721418       4.86223732      19.95723411        4      -0.00000326      -0.00000418       0.01627841
Pt       5.61442792       4.86223738      19.95723437        4       0.00000144      -0.00000549       0.01627672
Pt       8.42164145       4.86223723      19.95723430        4       0.00000243      -0.00000473       0.01627962
Pt       1.40360725       0.81037259      22.29206789        3      -0.00000132       0.00000497      -0.04298082
Pt       4.21082133       0.81037255      22.29206790        3      -0.00000167       0.00000430      -0.04298234
Pt       7.01803475       0.81037262      22.29206783        3       0.00000060       0.00000228      -0.04298422
Pt       2.80721447       3.24149125      22.29206776        3      -0.00000871       0.00000310      -0.04298427
Pt       5.61442765       3.24149122      22.29206786        3       0.00000444       0.00000151      -0.04298536
Pt       8.42164161       3.24149125      22.29206807        3       0.00000352       0.00000152      -0.04298919
Pt       4.21082093       5.67260998      22.29206752        3      -0.00000410       0.00000140      -0.04296486
Pt       7.01803462       5.67261035      22.29206778        3       0.00000085      -0.00000622      -0.04298272
Pt       9.82524815       5.67261058      22.29206811        3       0.00000646      -0.00001117      -0.04298620
Pt      -0.00000054       1.62074569      24.58417372        2       0.00000439      -0.00000104       0.04298847
Pt       2.80721439       1.62074548      24.58417398        2      -0.00000700       0.00000372       0.04298297
Pt       5.61442784       1.62074539      24.58417372        2       0.00000043       0.00000665       0.04298496
Pt       1.40360641       4.05186439      24.58417382        2       0.00000679      -0.00000284       0.04298573
Pt       4.21082087       4.05186397      24.58417389        2       0.00000033       0.00000840       0.04298175
Pt       7.01803504       4.05186406      24.58417403        2      -0.00000373       0.00000367       0.04298684
Pt       2.80721278       6.48298347      24.58417386        2       0.00001649      -0.00000958       0.04298047
Pt       5.61442806       6.48298329      24.58417398        2      -0.00000770      -0.00000446       0.04298122
Pt       8.42164224       6.48298341      24.58417375        2      -0.00000879      -0.00000690       0.04298451
Pt       0.00000039      -0.00000002      26.91900745        1      -0.00000027       0.00000286      -0.01628070
Pt       2.80721393      -0.00000014      26.91900723        1      -0.00000071       0.00000187      -0.01627099
Pt       5.61442789      -0.00000013      26.91900710        1       0.00000029       0.00000182      -0.01626891
Pt       1.40360735       2.43111850      26.91900744        1      -0.00000147       0.00000112      -0.01628163
Pt       4.21082082       2.43111857      26.91900726        1       0.00000226       0.00000081      -0.01627230
Pt       7.01803487       2.43111864      26.91900731        1       0.00000010      -0.00000068      -0.01627989
Pt       2.80721397       4.86223726      26.91900755        1      -0.00000344      -0.00000230      -0.01628136
Pt       5.61442795       4.86223739      26.91900730        1      -0.00000043      -0.00000303      -0.01628053
Pt       8.42164127       4.86223716      26.91900737        1       0.00000242      -0.00000103      -0.01627956
