36
Lattice="8.421641763931781 0.0 0.0 4.2108208819658905 7.293355709136913 0.0 0.0 0.0 46.87624170604845" Properties=species:S:1:pos:R:3:tags:I:1:forces:R:3 charge=0 spin=0 energy=-186.93033381965532 free_energy=-186.93033381965532 stress="0.00856211967766285 -1.4948292603733648e-09 3.1956681745271e-10 -1.4948292603733648e-09 0.008562123402953148 -1.874901789378214e-09 3.1956681745271e-10 -1.874901789378214e-09 -0.0033283387310802937" pbc="T T T"
Pt       0.00000000       0.00000000      20.00000000        4       0.00000203      -0.00000293      -0.22563674
Pt       2.80721392       0.00000000      20.00000000        4       0.00000033      -0.00000211      -0.22563581
Pt       5.61442784       0.00000000      20.00000000        4      -0.00000255      -0.00000121      -0.22563501
Pt       1.40360696       2.43111857      20.00000000        4       0.00000135       0.00000011      -0.22563788
Pt       4.21082088       2.43111857      20.00000000        4       0.00000194      -0.00000002      -0.22563602
Pt       7.01803480       2.43111857      20.00000000        4      -0.00000273      -0.00000035      -0.22563832
Pt       2.80721392       4.86223714      20.00000000        4       0.00000077       0.00000090      -0.22563779
Pt       5.61442784       4.86223714      20.00000000        4      -0.00000231       0.00000169      -0.22563612
Pt       8.42164176       4.86223714      20.00000000        4       0.00000151       0.00000275      -0.22563747
Pt       1.40360696       0.81037286      22.29208057        3       0.00000153      -0.00000386       0.21236116
Pt       4.21082088       0.81037286      22.29208057        3       0.00000375      -0.00000323       0.21236086
Pt       7.01803480       0.81037286      22.29208057        3      -0.00000400      -0.00000293       0.21236150
Pt       2.80721392       3.24149143      22.29208057        3       0.00000091      -0.00000071       0.21235909
Pt       5.61442784       3.24149143      22.29208057        3      -0.00000339       0.00000004       0.21236056
Pt       8.42164176       3.24149143      22.29208057        3       0.00000264       0.00000085       0.21236110
Pt       4.21082088       5.67261000      22.29208057        3       0.00000481       0.00000155       0.21235888
Pt       7.01803480       5.67261000      22.29208057        3      -0.00000232       0.00000351       0.21235994
Pt       9.82524872       5.67261000      22.29208057        3      -0.00000264       0.00000405       0.21236134
Pt       0.00000000       1.62074571      24.58416114        2       0.00000316      -0.00000139      -0.21236031
Pt       2.80721392       1.62074571      24.58416114        2       0.00000086      -0.00000288      -0.21236001
Pt       5.61442784       1.62074571      24.58416114        2      -0.00000287      -0.00000309      -0.21236070
Pt       1.40360696       4.05186428      24.58416114        2      -0.00000304       0.00000155      -0.21236053
Pt       4.21082088       4.05186428      24.58416114        2       0.00000486      -0.00000006      -0.21235988
Pt       7.01803480       4.05186428      24.58416114        2      -0.00000247       0.00000022      -0.21236065
Pt       2.80721392       6.48298285      24.58416114        2      -0.00000719       0.00000229      -0.21236086
Pt       5.61442784       6.48298285      24.58416114        2      -0.00000160       0.00000213      -0.21236086
Pt       8.42164176       6.48298285      24.58416114        2       0.00000517       0.00000374      -0.21235976
Pt       0.00000000       0.00000000      26.87624171        1       0.00000258      -0.00000204       0.22563724
Pt       2.80721392       0.00000000      26.87624171        1       0.00000065      -0.00000141       0.22563587
Pt       5.61442784       0.00000000      26.87624171        1      -0.00000219      -0.00000197       0.22563426
Pt       1.40360696       2.43111857      26.87624171        1       0.00000113      -0.00000034       0.22563814
Pt       4.21082088       2.43111857      26.87624171        1       0.00000200      -0.00000045       0.22563651
Pt       7.01803480       2.43111857      26.87624171        1      -0.00000240       0.00000009       0.22563823
Pt       2.80721392       4.86223714      26.87624171        1       0.00000043       0.00000167       0.22563736
Pt       5.61442784       4.86223714      26.87624171        1      -0.00000225       0.00000102       0.22563581
Pt       8.42164176       4.86223714      26.87624171        1       0.00000155       0.00000279       0.22563696
