36
Lattice="8.421641763931781 0.0 0.0 4.2108208819658905 7.293355709136913 0.0 0.0 0.0 46.87624170604845" Properties=species:S:1:pos:R:3:tags:I:1:forces:R:3 charge=0 spin=0 energy=-187.00367709663286 free_energy=-187.00367709663286 stress="0.010496646165847778 -6.212005909667084e-11 9.266247213979284e-10 -6.212005909667084e-11 0.010496657341718674 -8.237298620983324e-10 9.266247213979284e-10 -8.237298620983324e-10 4.621818152372725e-05" pbc="T T T"
Pt       0.00000001       0.00000022      19.95723437        4       0.00000191      -0.00000159       0.01627977
Pt       2.80721395      -0.00000019      19.95723451        4      -0.00000319       0.00000272       0.01627088
Pt       5.61442781      -0.00000015      19.95723452        4       0.00000089       0.00000376       0.01627129
Pt       1.40360719       2.43111837      19.95723437        4      -0.00000118       0.00000076       0.01628125
Pt       4.21082081       2.43111836      19.95723446        4       0.00000224       0.00000205       0.01627203
Pt       7.01803482       2.43111848      19.95723434        4      -0.00000112       0.00000093       0.01628043
Pt       2.80721406       4.86223725      19.95723406        4       0.00000189      -0.00000259       0.01628096
Pt       5.61442807       4.86223733      19.95723425        4      -0.00000284      -0.00000272       0.01628002
Pt       8.42164141       4.86223722      19.95723441        4       0.00000121      -0.00000446       0.01627158
Pt       1.40360726       0.81037259      22.29206792        3      -0.00000291       0.00000360      -0.04298402
Pt       4.21082127       0.81037250      22.29206797        3      -0.00000121       0.00000547      -0.04298262
Pt       7.01803474       0.81037256      22.29206789        3       0.00000211       0.00000229      -0.04298656
Pt       2.80721450       3.24149124      22.29206781        3      -0.00000869       0.00000276      -0.04298444
Pt       5.61442761       3.24149125      22.29206792        3       0.00000450       0.00000120      -0.04298609
Pt       8.42164154       3.24149129      22.29206811        3       0.00000326      -0.00000081      -0.04298604
Pt       4.21082092       5.67260996      22.29206802        3      -0.00000244       0.00000371      -0.04298519
Pt       7.01803486       5.67261036      22.29206779        3      -0.00000425      -0.00000484      -0.04298039
Pt       9.82524821       5.67261064      22.29206811        3       0.00000887      -0.00000989      -0.04298344
Pt      -0.00000056       1.62074568      24.58417368        2       0.00000622      -0.00000193       0.04298508
Pt       2.80721445       1.62074548      24.58417389        2      -0.00000686       0.00000376       0.04298289
Pt       5.61442782       1.62074538      24.58417372        2      -0.00000142       0.00000557       0.04298171
Pt       1.40360637       4.05186441      24.58417385        2       0.00000688      -0.00000300       0.04298614
Pt       4.21082090       4.05186400      24.58417377        2      -0.00000148       0.00000452       0.04298319
Pt       7.01803502       4.05186405      24.58417403        2      -0.00000190       0.00000448       0.04298152
Pt       2.80721280       6.48298343      24.58417368        2       0.00001388      -0.00000897       0.04298404
Pt       5.61442797       6.48298325      24.58417384        2      -0.00000499      -0.00000160       0.04298071
Pt       8.42164223       6.48298339      24.58417376        2      -0.00000838      -0.00000674       0.04298453
Pt       0.00000045      -0.00000002      26.91900747        1      -0.00000039       0.00000274      -0.01628062
Pt       2.80721391      -0.00000014      26.91900723        1      -0.00000052       0.00000235      -0.01627116
Pt       5.61442788      -0.00000012      26.91900707        1       0.00000015       0.00000081      -0.01626936
Pt       1.40360734       2.43111854      26.91900742        1      -0.00000066       0.00000127      -0.01628134
Pt       4.21082083       2.43111856      26.91900721        1       0.00000103       0.00000050      -0.01627254
Pt       7.01803487       2.43111867      26.91900725        1       0.00000038      -0.00000146      -0.01627097
Pt       2.80721394       4.86223727      26.91900750        1      -0.00000434      -0.00000209      -0.01628121
Pt       5.61442796       4.86223739      26.91900725        1      -0.00000071      -0.00000226      -0.01627214
Pt       8.42164125       4.86223711      26.91900731        1       0.00000388      -0.00000020      -0.01627981
