36
Lattice="8.421641763931781 0.0 0.0 4.2108208819658905 7.293355709136913 0.0 0.0 0.0 46.87624170604845" Properties=species:S:1:pos:R:3:tags:I:1:forces:R:3 charge=0 spin=0 energy=-186.93033381965532 free_energy=-186.93033381965532 stress="0.00856211967766285 -1.7951000685911822e-09 -2.2572101132656286e-10 -1.7951000685911822e-09 0.008562121540307999 -2.8593416523392534e-09 -2.2572101132656286e-10 -2.8593416523392534e-09 -0.0033283422235399485" pbc="T T T"
Pt       0.00000000       0.00000000      20.00000000        4       0.00000199      -0.00000291      -0.22563669
Pt       2.80721392       0.00000000      20.00000000        4       0.00000032      -0.00000214      -0.22563581
Pt       5.61442784       0.00000000      20.00000000        4      -0.00000247      -0.00000127      -0.22563517
Pt       1.40360696       2.43111857      20.00000000        4       0.00000125       0.00000006      -0.22563793
Pt       4.21082088       2.43111857      20.00000000        4       0.00000196       0.00000004      -0.22563612
Pt       7.01803480       2.43111857      20.00000000        4      -0.00000265      -0.00000022      -0.22563814
Pt       2.80721392       4.86223714      20.00000000        4       0.00000084       0.00000103      -0.22563757
Pt       5.61442784       4.86223714      20.00000000        4      -0.00000229       0.00000168      -0.22563598
Pt       8.42164176       4.86223714      20.00000000        4       0.00000140       0.00000258      -0.22563733
Pt       1.40360696       0.81037286      22.29208057        3       0.00000146      -0.00000388       0.21236123
Pt       4.21082088       0.81037286      22.29208057        3       0.00000365      -0.00000319       0.21236090
Pt       7.01803480       0.81037286      22.29208057        3      -0.00000390      -0.00000295       0.21236154
Pt       2.80721392       3.24149143      22.29208057        3       0.00000088      -0.00000072       0.21235915
Pt       5.61442784       3.24149143      22.29208057        3      -0.00000337       0.00000011       0.21236061
Pt       8.42164176       3.24149143      22.29208057        3       0.00000268       0.00000094       0.21236101
Pt       4.21082088       5.67261000      22.29208057        3       0.00000479       0.00000161       0.21235864
Pt       7.01803480       5.67261000      22.29208057        3      -0.00000228       0.00000349       0.21235976
Pt       9.82524872       5.67261000      22.29208057        3      -0.00000261       0.00000394       0.21236129
Pt       0.00000000       1.62074571      24.58416114        2       0.00000323      -0.00000152      -0.21236046
Pt       2.80721392       1.62074571      24.58416114        2       0.00000095      -0.00000284      -0.21235998
Pt       5.61442784       1.62074571      24.58416114        2      -0.00000301      -0.00000309      -0.21236070
Pt       1.40360696       4.05186428      24.58416114        2      -0.00000298       0.00000157      -0.21236056
Pt       4.21082088       4.05186428      24.58416114        2       0.00000485      -0.00000007      -0.21235983
Pt       7.01803480       4.05186428      24.58416114        2      -0.00000247       0.00000015      -0.21236068
Pt       2.80721392       6.48298285      24.58416114        2      -0.00000715       0.00000226      -0.21236086
Pt       5.61442784       6.48298285      24.58416114        2      -0.00000174       0.00000225      -0.21236086
Pt       8.42164176       6.48298285      24.58416114        2       0.00000522       0.00000375      -0.21235976
Pt       0.00000000       0.00000000      26.87624171        1       0.00000257      -0.00000208       0.22563727
Pt       2.80721392       0.00000000      26.87624171        1       0.00000070      -0.00000141       0.22563596
Pt       5.61442784       0.00000000      26.87624171        1      -0.00000220      -0.00000204       0.22563432
Pt       1.40360696       2.43111857      26.87624171        1       0.00000122      -0.00000024       0.22563832
Pt       4.21082088       2.43111857      26.87624171        1       0.00000199      -0.00000044       0.22563632
Pt       7.01803480       2.43111857      26.87624171        1      -0.00000251       0.00000013       0.22563832
Pt       2.80721392       4.86223714      26.87624171        1       0.00000042       0.00000169       0.22563742
Pt       5.61442784       4.86223714      26.87624171        1      -0.00000223       0.00000110       0.22563587
Pt       8.42164176       4.86223714      26.87624171        1       0.00000165       0.00000277       0.22563691
