36
Lattice="8.421641763931781 0.0 0.0 4.2108208819658905 7.293355709136913 0.0 0.0 0.0 46.87624170604845" Properties=species:S:1:pos:R:3:tags:I:1:forces:R:3 charge=0 spin=0 energy=-187.00367709663286 free_energy=-187.00367709663286 stress="0.010496596805751324 1.5305680056698634e-09 -7.58033191772256e-10 1.5305680056698634e-09 0.010496632196009159 -1.8823640424159294e-09 -7.58033191772256e-10 -1.8823640424159294e-09 4.615713260136545e-05" pbc="T T T"
Pt       0.00000027       0.00000006      19.95723547        4       0.00000075      -0.00000068       0.01627040
Pt       2.80721396      -0.00000013      19.95723559        4       0.00000049       0.00000205       0.01627133
Pt       5.61442771      -0.00000010      19.95723557        4      -0.00000153       0.00000270       0.01627245
Pt       1.40360714       2.43111835      19.95723548        4       0.00000065       0.00000184       0.01627237
Pt       4.21082076       2.43111845      19.95723552        4       0.00000196      -0.00000057       0.01627252
Pt       7.01803480       2.43111853      19.95723548        4      -0.00000162      -0.00000096       0.01627243
Pt       2.80721420       4.86223725      19.95723525        4      -0.00000149      -0.00000219       0.01627309
Pt       5.61442799       4.86223735      19.95723551        4      -0.00000081      -0.00000314       0.01627048
Pt       8.42164137       4.86223713      19.95723549        4       0.00000255      -0.00000027       0.01627061
Pt       1.40360718       0.81037256      22.29206812        3      -0.00000013       0.00000268      -0.04297790
Pt       4.21082125       0.81037253      22.29206814        3      -0.00000229       0.00000327      -0.04298232
Pt       7.01803477       0.81037260      22.29206826        3      -0.00000028       0.00000136      -0.04298155
Pt       2.80721440       3.24149113      22.29206797        3      -0.00000721       0.00000396      -0.04297904
Pt       5.61442776       3.24149138      22.29206813        3       0.00000235      -0.00000058      -0.04298104
Pt       8.42164138       3.24149147      22.29206811        3       0.00000404      -0.00000201      -0.04297808
Pt       4.21082120       5.67261003      22.29206790        3      -0.00000371       0.00000204      -0.04297724
Pt       7.01803478       5.67260991      22.29206788        3      -0.00000274       0.00000035      -0.04297722
Pt       9.82524818       5.67261064      22.29206820        3       0.00000772      -0.00000879      -0.04298151
Pt      -0.00000052       1.62074555      24.58417355        2       0.00000389       0.00000141       0.04297987
Pt       2.80721441       1.62074558      24.58417367        2      -0.00000612       0.00000098       0.04297974
Pt       5.61442775       1.62074545      24.58417357        2       0.00000220       0.00000405       0.04298085
Pt       1.40360648       4.05186439      24.58417369        2      -0.00000062      -0.00000317       0.04297691
Pt       4.21082102       4.05186402      24.58417370        2      -0.00000324       0.00000397       0.04298119
Pt       7.01803465       4.05186413      24.58417361        2       0.00000313       0.00000324       0.04297927
Pt       2.80721283       6.48298338      24.58417350        2       0.00001145      -0.00000617       0.04297782
Pt       5.61442777       6.48298325      24.58417370        2       0.00000074      -0.00000116       0.04297865
Pt       8.42164225       6.48298343      24.58417343        2      -0.00000917      -0.00000648       0.04298110
Pt       0.00000040      -0.00000005      26.91900639        1      -0.00000059       0.00000249      -0.01627154
Pt       2.80721395      -0.00000004      26.91900617        1      -0.00000022       0.00000242      -0.01627165
Pt       5.61442783      -0.00000007      26.91900613        1      -0.00000081       0.00000264      -0.01626887
Pt       1.40360724       2.43111858      26.91900631        1      -0.00000060      -0.00000011      -0.01627313
Pt       4.21082080       2.43111860      26.91900616        1       0.00000183       0.00000019      -0.01627148
Pt       7.01803484       2.43111867      26.91900621        1      -0.00000119      -0.00000125      -0.01627173
Pt       2.80721423       4.86223722      26.91900650        1      -0.00000017      -0.00000242      -0.01627239
Pt       5.61442793       4.86223739      26.91900613        1      -0.00000104      -0.00000226      -0.01627233
Pt       8.42164144       4.86223703      26.91900629        1       0.00000201       0.00000054      -0.01627201
