36
Lattice="8.421641763931781 0.0 0.0 4.2108208819658905 7.293355709136913 0.0 0.0 0.0 46.87624170604845" Properties=species:S:1:pos:R:3:tags:I:1:forces:R:3 charge=0 spin=0 energy=-186.93033381965532 free_energy=-186.93033381965532 stress="0.00856211967766285 -4.070690007296207e-09 -3.2872085609092494e-10 -4.070690007296207e-09 0.008562118746340275 -1.392019166601699e-09 -3.2872085609092494e-10 -1.392019166601699e-09 -0.00332834105938673" pbc="T T T"
Pt       0.00000000       0.00000000      20.00000000        4       0.00000223      -0.00000262      -0.22563648
Pt       2.80721392       0.00000000      20.00000000        4       0.00000040      -0.00000158      -0.22563553
Pt       5.61442784       0.00000000      20.00000000        4      -0.00000267      -0.00000121      -0.22563498
Pt       1.40360696       2.43111857      20.00000000        4       0.00000120       0.00000008      -0.22563779
Pt       4.21082088       2.43111857      20.00000000        4       0.00000149      -0.00000006      -0.22563581
Pt       7.01803480       2.43111857      20.00000000        4      -0.00000261      -0.00000030      -0.22563814
Pt       2.80721392       4.86223714      20.00000000        4       0.00000083       0.00000039      -0.22563758
Pt       5.61442784       4.86223714      20.00000000        4      -0.00000224       0.00000168      -0.22563602
Pt       8.42164176       4.86223714      20.00000000        4       0.00000148       0.00000264      -0.22563708
Pt       1.40360696       0.81037286      22.29208057        3       0.00000185      -0.00000371       0.21236111
Pt       4.21082088       0.81037286      22.29208057        3       0.00000319      -0.00000246       0.21236070
Pt       7.01803480       0.81037286      22.29208057        3      -0.00000396      -0.00000272       0.21236134
Pt       2.80721392       3.24149143      22.29208057        3       0.00000133      -0.00000106       0.21235900
Pt       5.61442784       3.24149143      22.29208057        3      -0.00000334       0.00000004       0.21236044
Pt       8.42164176       3.24149143      22.29208057        3       0.00000281       0.00000095       0.21236099
Pt       4.21082088       5.67261000      22.29208057        3       0.00000462       0.00000102       0.21235849
Pt       7.01803480       5.67261000      22.29208057        3      -0.00000240       0.00000334       0.21235974
Pt       9.82524872       5.67261000      22.29208057        3      -0.00000266       0.00000382       0.21236093
Pt      -0.00000000       1.62074571      24.58416114        2       0.00000326      -0.00000147      -0.21236038
Pt       2.80721392       1.62074571      24.58416114        2       0.00000118      -0.00000242      -0.21235989
Pt       5.61442784       1.62074571      24.58416114        2      -0.00000315      -0.00000279      -0.21236064
Pt       1.40360696       4.05186428      24.58416114        2      -0.00000298       0.00000164      -0.21236034
Pt       4.21082088       4.05186428      24.58416114        2       0.00000462      -0.00000067      -0.21235976
Pt       7.01803480       4.05186428      24.58416114        2      -0.00000259       0.00000020      -0.21236056
Pt       2.80721392       6.48298285      24.58416114        2      -0.00000720       0.00000223      -0.21236065
Pt       5.61442784       6.48298285      24.58416114        2      -0.00000154       0.00000207      -0.21236064
Pt       8.42164176       6.48298285      24.58416114        2       0.00000509       0.00000378      -0.21235935
Pt       0.00000000       0.00000000      26.87624171        1       0.00000275      -0.00000209       0.22563693
Pt       2.80721392       0.00000000      26.87624171        1       0.00000075      -0.00000104       0.22563566
Pt       5.61442784       0.00000000      26.87624171        1      -0.00000223      -0.00000200       0.22563423
Pt       1.40360696       2.43111857      26.87624171        1       0.00000139      -0.00000036       0.22563793
Pt       4.21082088       2.43111857      26.87624171        1       0.00000147      -0.00000035       0.22563623
Pt       7.01803480       2.43111857      26.87624171        1      -0.00000256       0.00000012       0.22563832
Pt       2.80721392       4.86223714      26.87624171        1       0.00000070       0.00000121       0.22563747
Pt       5.61442784       4.86223714      26.87624171        1      -0.00000207       0.00000098       0.22563589
Pt       8.42164176       4.86223714      26.87624171        1       0.00000163       0.00000265       0.22563672
