27
Lattice="8.421641763931781 0.0 0.0 4.2108208819658905 7.293355709136913 0.0 0.0 0.0 44.584161137365626" Properties=species:S:1:pos:R:3:tags:I:1:forces:R:3 energy=-153.11451721191406 free_energy=-153.11451721191406 stress="0.01073230616748333 -5.351389109620186e-09 -1.0893280721901988e-10 -5.351389109620186e-09 0.010732297785580158 7.491319231611726e-10 -1.0893280721901988e-10 7.491319231611726e-10 -5.5466676712967455e-05" pbc="T T T"
Pt       1.40360696       0.81037286      20.00000000        3       0.00000073      -0.00000299      -0.00368533
Pt       4.21082088       0.81037286      20.00000000        3       0.00000202      -0.00000176      -0.00368446
Pt       7.01803480       0.81037286      20.00000000        3      -0.00000243      -0.00000229      -0.00368583
Pt       2.80721392       3.24149143      20.00000000        3       0.00000141      -0.00000011      -0.00368622
Pt       5.61442784       3.24149143      20.00000000        3      -0.00000209      -0.00000034      -0.00368613
Pt       8.42164176       3.24149143      20.00000000        3       0.00000106       0.00000066      -0.00368783
Pt       4.21082088       5.67261000      20.00000000        3       0.00000209       0.00000143      -0.00368512
Pt       7.01803480       5.67261000      20.00000000        3      -0.00000201       0.00000211      -0.00368637
Pt       9.82524872       5.67261000      20.00000000        3      -0.00000099       0.00000272      -0.00368589
Pt      -0.00000000       1.62074571      22.29208057        2       0.00000178      -0.00000241       0.00000908
Pt       2.80721392       1.62074571      22.29208057        2       0.00000145      -0.00000166       0.00000846
Pt       5.61442784       1.62074571      22.29208057        2      -0.00000236      -0.00000135       0.00000879
Pt       1.40360696       4.05186428      22.29208057        2       0.00000157       0.00000035       0.00000884
Pt       4.21082088       4.05186428      22.29208057        2       0.00000145      -0.00000020       0.00000900
Pt       7.01803480       4.05186428      22.29208057        2      -0.00000337       0.00000056       0.00000929
Pt       2.80721392       6.48298285      22.29208057        2       0.00000048       0.00000112       0.00000878
Pt       5.61442784       6.48298285      22.29208057        2      -0.00000192       0.00000184       0.00000848
Pt       8.42164176       6.48298285      22.29208057        2       0.00000138       0.00000326       0.00000850
Pt       0.00000000       0.00000000      24.58416114        1       0.00000195      -0.00000216       0.00367618
Pt       2.80721392       0.00000000      24.58416114        1       0.00000038      -0.00000070       0.00367671
Pt       5.61442784       0.00000000      24.58416114        1      -0.00000224      -0.00000066       0.00367638
Pt       1.40360696       2.43111857      24.58416114        1       0.00000082      -0.00000047       0.00367823
Pt       4.21082088       2.43111857      24.58416114        1       0.00000197      -0.00000049       0.00367606
Pt       7.01803480       2.43111857      24.58416114        1      -0.00000310      -0.00000047       0.00367773
Pt       2.80721392       4.86223714      24.58416114        1       0.00000073       0.00000034       0.00367770
Pt       5.61442784       4.86223714      24.58416114        1      -0.00000207       0.00000075       0.00367743
Pt       8.42164176       4.86223714      24.58416114        1       0.00000126       0.00000274       0.00367767
