40
Lattice="8.421641763931781 0.0 0.0 4.2108208819658905 7.293355709136913 0.0 0.0 0.0 46.87624170604845" Properties=species:S:1:pos:R:3:tags:I:1:forces:R:3 charge=0 spin=0 energy=-206.42544628104332 free_energy=-206.42544628104332 stress="0.010499779134988785 3.5111806937493384e-06 -1.506844910181826e-06 3.5111806937493384e-06 0.010546742007136345 -1.0723047125793528e-05 -1.506844910181826e-06 -1.0723047125793528e-05 -3.386162279639393e-05" pbc="T T T"
Pt      -0.00000003       0.00000022      19.95723434        4      -0.00039289       0.00085533       0.01864842
Pt       2.80721396      -0.00000018      19.95723452        4      -0.00035306       0.00102321       0.01841827
Pt       5.61442778      -0.00000004      19.95723454        4       0.00014230       0.00052394       0.01873625
Pt       1.40360719       2.43111838      19.95723440        4      -0.00006946       0.00142046       0.01755807
Pt       4.21082079       2.43111832      19.95723449        4      -0.00025226       0.00086410       0.01754274
Pt       7.01803484       2.43111842      19.95723441        4      -0.00018882       0.00101672       0.01851161
Pt       2.80721406       4.86223725      19.95723409        4       0.00030707       0.00118328       0.01829378
Pt       5.61442803       4.86223733      19.95723425        4      -0.00019671       0.00110839       0.01884916
Pt       8.42164141       4.86223723      19.95723442        4       0.00009176       0.00125445       0.01884730
Pt       1.40360730       0.81037260      22.29206788        3      -0.00070548       0.00281956      -0.05105087
Pt       4.21082126       0.81037254      22.29206791        3       0.00060910       0.00388714      -0.05150044
Pt       7.01803479       0.81037259      22.29206783        3       0.00059723       0.00479874      -0.05458851
Pt       2.80721452       3.24149125      22.29206775        3       0.00014727       0.00503019      -0.04563587
Pt       5.61442760       3.24149123      22.29206789        3       0.00144170       0.00404202      -0.05310445
Pt       8.42164156       3.24149116      22.29206803        3      -0.00033385       0.00502667      -0.05341375
Pt       4.21082093       5.67260998      22.29206800        3       0.00023699       0.00347936      -0.05211674
Pt       7.01803487       5.67261039      22.29206775        3       0.00002493       0.00345841      -0.05071802
Pt       9.82524824       5.67261062      22.29206803        3      -0.00066045       0.00419915      -0.05205934
Pt      -0.00000058       1.62074570      24.58417378        2       0.01435956      -0.01590199       0.04363551
Pt       2.80721444       1.62074548      24.58417392        2      -0.00054309      -0.00022755       0.04196218
Pt       5.61442778       1.62074537      24.58417373        2      -0.01208191      -0.01549469       0.04230316
Pt       1.40360636       4.05186440      24.58417384        2       0.00505618      -0.01258606       0.05287822
Pt       4.21082088       4.05186399      24.58417380        2      -0.00527712      -0.01245725       0.05264666
Pt       7.01803502       4.05186406      24.58417406        2      -0.00029875      -0.00869068       0.02410660
Pt       2.80721280       6.48298341      24.58417369        2      -0.00065742      -0.01657698       0.05644711
Pt       5.61442796       6.48298324      24.58417387        2      -0.00722008      -0.01290036       0.03680343
Pt       8.42164221       6.48298340      24.58417380        2       0.00517702      -0.01122124       0.03585190
Pt       0.00020533      -0.01765201      26.91957378        1      -0.00227075       0.01466615      -0.01697707
Pt       2.80722409      -0.01377348      26.91235562        1       0.00073822       0.00716600       0.01369780
Pt       5.61369982      -0.01784965      26.91923584        1       0.00345756       0.01379039      -0.01561349
Pt       1.40366593       2.41627929      26.92242751        1       0.00034633      -0.00289013      -0.02724161
Pt       4.21015686       2.41714599      26.92139569        1      -0.00079707      -0.00412036      -0.02372101
Pt       7.01742034       2.41280786      26.91062887        1      -0.00079394       0.00686250       0.01838294
Pt       2.80667454       4.84612934      26.92319241        1       0.00065083       0.00659120      -0.03026819
Pt       5.61456441       4.84639962      26.91729122        1      -0.01289371       0.00714009      -0.00357876
Pt       8.42081581       4.84549427      26.91664839        1       0.01248972       0.00803600      -0.00200551
N        7.02313857       4.84217235      30.82805486        0       0.00097597       0.01139185       0.01546162
H        7.01887616       5.81944091      30.50920970        0      -0.00230944       0.00850685      -0.00190609
H        7.84284020       4.39851676      30.39391522        0      -0.01100349      -0.01049391      -0.00639254
H        6.19353289       4.39721189      30.41451044        0       0.01245001      -0.00658090      -0.00769071
