40
Lattice="8.421641763931781 0.0 0.0 4.2108208819658905 7.293355709136913 0.0 0.0 0.0 46.87624170604845" Properties=species:S:1:pos:R:3:tags:I:1:forces:R:3 charge=0 spin=0 energy=-206.42558361014488 free_energy=-206.42558361014488 stress="0.010512664914131165 3.2154748623725027e-06 1.8729125486061093e-06 3.2154748623725027e-06 0.010533238761126995 -3.1514259717368986e-06 1.8729125486061093e-06 -3.1514259717368986e-06 -3.250807276344858e-05" pbc="T T T"
Pt      -0.00000003       0.00000022      19.95723434        4      -0.00045469       0.00034803       0.01861931
Pt       2.80721396      -0.00000018      19.95723452        4      -0.00026974       0.00052549       0.01842489
Pt       5.61442778      -0.00000004      19.95723454        4       0.00023849      -0.00001854       0.01866227
Pt       1.40360719       2.43111838      19.95723440        4      -0.00015300       0.00073214       0.01767063
Pt       4.21082079       2.43111832      19.95723449        4      -0.00013558       0.00021307       0.01754287
Pt       7.01803484       2.43111842      19.95723441        4      -0.00013710       0.00034942       0.01848803
Pt       2.80721406       4.86223725      19.95723409        4       0.00035132       0.00071800       0.01828036
Pt       5.61442803       4.86223733      19.95723425        4      -0.00023811       0.00049328       0.01890817
Pt       8.42164141       4.86223723      19.95723442        4       0.00013941       0.00066838       0.01884064
Pt       1.40360730       0.81037260      22.29206788        3      -0.00067139       0.00023884      -0.05076616
Pt       4.21082126       0.81037254      22.29206791        3       0.00031999       0.00165626      -0.05091274
Pt       7.01803479       0.81037259      22.29206783        3       0.00033412       0.00269460      -0.05403072
Pt       2.80721452       3.24149125      22.29206775        3       0.00005039       0.00291106      -0.04573112
Pt       5.61442760       3.24149123      22.29206789        3       0.00115933       0.00193783      -0.05361950
Pt       8.42164156       3.24149116      22.29206803        3      -0.00074627       0.00315383      -0.05347556
Pt       4.21082093       5.67260998      22.29206800        3       0.00043210       0.00130664      -0.05177555
Pt       7.01803487       5.67261039      22.29206775        3      -0.00007802       0.00132214      -0.05209154
Pt       9.82524824       5.67261062      22.29206803        3      -0.00102687       0.00186204      -0.05177866
Pt      -0.00000058       1.62074570      24.58417378        2       0.01430058      -0.01030604       0.04395577
Pt       2.80721444       1.62074548      24.58417392        2      -0.00060076       0.00662464       0.03963497
Pt       5.61442778       1.62074537      24.58417373        2      -0.01120329      -0.01003958       0.04350969
Pt       1.40360636       4.05186440      24.58417384        2       0.00657006      -0.00648814       0.05178951
Pt       4.21082088       4.05186399      24.58417380        2      -0.00487674      -0.00584731       0.05222685
Pt       7.01803502       4.05186406      24.58417406        2      -0.00016952      -0.00296646       0.02416275
Pt       2.80721280       6.48298341      24.58417369        2      -0.00050704      -0.00953702       0.05743498
Pt       5.61442796       6.48298324      24.58417387        2      -0.00794732      -0.00664362       0.03775467
Pt       8.42164221       6.48298340      24.58417380        2       0.00665147      -0.00387373       0.03562488
Pt       0.00012532      -0.00866483      26.92012935        1      -0.00073482       0.01086515      -0.01920718
Pt       2.80778798      -0.00492243      26.91171273        1       0.00135849       0.00293901       0.01505596
Pt       5.61439331      -0.00911719      26.92026831        1       0.00201911       0.01127453      -0.01845076
Pt       1.40391888       2.42538900      26.92198117        1       0.00029812      -0.00661600      -0.02622586
Pt       4.21074783       2.42620135      26.92072049        1      -0.00095038      -0.00730348      -0.02269701
Pt       7.01781156       2.42112599      26.91081112        1       0.00046032       0.00567253       0.01874193
Pt       2.80808513       4.85514991      26.92320447        1      -0.00179176       0.00237817      -0.02950552
Pt       5.61543824       4.85524628      26.91734681        1      -0.01281537       0.00365582      -0.00490628
Pt       8.42161805       4.85420749      26.91578552        1       0.01161542       0.00503366       0.00146039
N        7.02725204       4.85895163      30.84018081        0      -0.00897955       0.00156520       0.01357617
H        6.54233926       5.67865541      30.45300956        0       0.00561758       0.00754095      -0.00421848
H        7.96666468       4.85058521      30.42213240        0      -0.00756330      -0.00292956      -0.00565677
H        6.53646779       4.03264965      30.47498300        0       0.01013432      -0.00611114      -0.00531624
