40
Lattice="8.421641763931781 0.0 0.0 4.2108208819658905 7.293355709136913 0.0 0.0 0.0 46.87624170604845" Properties=species:S:1:pos:R:3:tags:I:1:forces:R:3 charge=0 spin=0 energy=-206.4211547466195 free_energy=-206.4211547466195 stress="0.010377481579780579 9.94741731119575e-06 -1.7489555830252357e-06 9.94741731119575e-06 0.010540624149143696 -1.6499976482009515e-05 -1.7489555830252357e-06 -1.6499976482009515e-05 -0.00017750548431649804" pbc="T T T"
Pt      -0.00000003       0.00000022      19.95723434        4      -0.00083668       0.00318587       0.01843110
Pt       2.80721396      -0.00000018      19.95723452        4      -0.00065183       0.00295661       0.01838163
Pt       5.61442778      -0.00000004      19.95723454        4      -0.00023452       0.00287465       0.01839601
Pt       1.40360719       2.43111838      19.95723440        4      -0.00036659       0.00308168       0.01729804
Pt       4.21082079       2.43111832      19.95723449        4      -0.00049182       0.00271052       0.01724463
Pt       7.01803484       2.43111842      19.95723441        4      -0.00054710       0.00289294       0.01861776
Pt       2.80721406       4.86223725      19.95723409        4      -0.00007419       0.00342593       0.01845871
Pt       5.61442803       4.86223733      19.95723425        4      -0.00025207       0.00302168       0.01876708
Pt       8.42164141       4.86223723      19.95723442        4      -0.00051502       0.00307078       0.01880826
Pt       1.40360730       0.81037260      22.29206788        3      -0.00000805       0.01040290      -0.05099127
Pt       4.21082126       0.81037254      22.29206791        3      -0.00038890       0.01125306      -0.05145273
Pt       7.01803479       0.81037259      22.29206783        3       0.00031128       0.01199732      -0.05107692
Pt       2.80721452       3.24149125      22.29206775        3      -0.00003805       0.01416477      -0.04807783
Pt       5.61442760       3.24149123      22.29206789        3       0.00010350       0.01256996      -0.05105713
Pt       8.42164156       3.24149116      22.29206803        3       0.00029466       0.01357932      -0.05138161
Pt       4.21082093       5.67260998      22.29206800        3      -0.00044609       0.01101551      -0.05429047
Pt       7.01803487       5.67261039      22.29206775        3      -0.00035931       0.01175633      -0.05050305
Pt       9.82524824       5.67261062      22.29206803        3      -0.00040828       0.01169060      -0.05405365
Pt      -0.00000058       1.62074570      24.58417378        2       0.00058166      -0.03382817       0.02237778
Pt       2.80721444       1.62074548      24.58417392        2       0.00153284      -0.03371929       0.02135268
Pt       5.61442778       1.62074537      24.58417373        2       0.00398149      -0.03397666       0.02156685
Pt       1.40360636       4.05186440      24.58417384        2       0.00027742      -0.03563026       0.02622933
Pt       4.21082088       4.05186399      24.58417380        2       0.00229324      -0.03556261       0.02637458
Pt       7.01803502       4.05186406      24.58417406        2       0.00165033      -0.03740964       0.01380716
Pt       2.80721280       6.48298341      24.58417369        2       0.00046469      -0.03341067       0.03399251
Pt       5.61442796       6.48298324      24.58417387        2       0.00034410      -0.03325672       0.02866359
Pt       8.42164221       6.48298340      24.58417380        2       0.00001789      -0.03182516       0.02825696
Pt       0.00175141      -0.04463140      26.91509598        1      -0.00519794       0.00488230       0.00719951
Pt       2.80880706      -0.04561946      26.91721819        1      -0.00038680       0.01858077      -0.00432512
Pt       5.61535048      -0.04528600      26.91501970        1       0.00352204       0.00503180       0.00759818
Pt       1.40260536       2.38167483      26.91391200        1       0.01427591       0.03089533       0.01310887
Pt       4.21394501       2.38232382      26.91345886        1      -0.01602408       0.02948722       0.01420732
Pt       7.01854062       2.38481210      26.91650138        1       0.00024180       0.01234402       0.00141104
Pt       2.80835866       4.81461248      26.91347988        1      -0.00135961       0.02285707       0.00682564
Pt       5.61566545       4.81572833      26.91410941        1      -0.01287829       0.02310043       0.01172191
Pt       8.42260126       4.81499681      26.91387295        1       0.01185571       0.02279257       0.01236850
N        7.01784667       4.86662713      30.76941712        0       0.00031808      -0.00158503       0.03982402
H        6.19145940       4.34602473      30.44955548        0      -0.00810833       0.00992853      -0.01510201
H        7.01317641       5.76649899      30.27236470        0      -0.00022238      -0.01512405      -0.00448735
H        7.83953840       4.34720598      30.43585920        0       0.00772945       0.00977767      -0.01449020
