40
Lattice="8.421641763931781 0.0 0.0 4.2108208819658905 7.293355709136913 0.0 0.0 0.0 46.87624170604845" Properties=species:S:1:pos:R:3:tags:I:1:forces:R:3 charge=0 spin=0 energy=-206.42544628104332 free_energy=-206.42544628104332 stress="0.010507269762456417 3.852569989248877e-06 -3.489099299258669e-06 3.852569989248877e-06 0.010538513772189617 -4.157547664362937e-06 -3.489099299258669e-06 -4.157547664362937e-06 -3.381496208021417e-05" pbc="T T T"
Pt      -0.00000003       0.00000022      19.95723434        4      -0.00049747       0.00059800       0.01861973
Pt       2.80721396      -0.00000018      19.95723452        4      -0.00042109       0.00070692       0.01838839
Pt       5.61442778      -0.00000004      19.95723454        4       0.00025446       0.00022014       0.01869899
Pt       1.40360719       2.43111838      19.95723440        4      -0.00014592       0.00098057       0.01754281
Pt       4.21082079       2.43111832      19.95723449        4      -0.00014095       0.00046369       0.01765525
Pt       7.01803484       2.43111842      19.95723441        4      -0.00016204       0.00056185       0.01847987
Pt       2.80721406       4.86223725      19.95723409        4       0.00022060       0.00091413       0.01832709
Pt       5.61442803       4.86223733      19.95723425        4      -0.00019702       0.00077889       0.01882274
Pt       8.42164141       4.86223723      19.95723442        4       0.00012040       0.00087971       0.01889354
Pt       1.40360730       0.81037260      22.29206788        3      -0.00064152       0.00155499      -0.05057647
Pt       4.21082126       0.81037254      22.29206791        3       0.00026236       0.00215127      -0.05156920
Pt       7.01803479       0.81037259      22.29206783        3       0.00030878       0.00371574      -0.05385976
Pt       2.80721452       3.24149125      22.29206775        3      -0.00021848       0.00375984      -0.04556926
Pt       5.61442760       3.24149123      22.29206789        3       0.00150350       0.00319678      -0.05311121
Pt       8.42164156       3.24149116      22.29206803        3      -0.00057639       0.00381338      -0.05398609
Pt       4.21082093       5.67260998      22.29206800        3       0.00027625       0.00205330      -0.05201051
Pt       7.01803487       5.67261039      22.29206775        3      -0.00021743       0.00228217      -0.05181493
Pt       9.82524824       5.67261062      22.29206803        3      -0.00105680       0.00300611      -0.05170021
Pt      -0.00000058       1.62074570      24.58417378        2       0.01410988      -0.01349714       0.04442450
Pt       2.80721444       1.62074548      24.58417392        2       0.00006471       0.00370671       0.03986964
Pt       5.61442778       1.62074537      24.58417373        2      -0.01099126      -0.01211445       0.04259238
Pt       1.40360636       4.05186440      24.58417384        2       0.00476452      -0.00840919       0.05338220
Pt       4.21082088       4.05186399      24.58417380        2      -0.00648158      -0.00895590       0.05068786
Pt       7.01803502       4.05186406      24.58417406        2       0.00213396      -0.00610803       0.02395721
Pt       2.80721280       6.48298341      24.58417369        2       0.00004011      -0.01225310       0.05728224
Pt       5.61442796       6.48298324      24.58417387        2      -0.00817999      -0.00774131       0.03630402
Pt       8.42164221       6.48298340      24.58417380        2       0.00631629      -0.00824051       0.03671859
Pt       0.00061854      -0.01252407      26.92077543        1      -0.00216692       0.01334627      -0.02044685
Pt       2.80790890      -0.00869057      26.91177494        1      -0.00040620       0.00496993       0.01531807
Pt       5.61471023      -0.01283819      26.91952594        1       0.00221252       0.01220912      -0.01703661
Pt       1.40412607       2.42156488      26.92170728        1       0.00028182      -0.00454734      -0.02573106
Pt       4.21094423       2.42236923      26.92092284        1      -0.00099232      -0.00594270      -0.02245513
Pt       7.01822150       2.41750187      26.91087149        1      -0.00229173       0.00644554       0.01817855
Pt       2.80645988       4.85157952      26.92323771        1       0.00246568       0.00391468      -0.02960259
Pt       5.61498388       4.85151624      26.91580105        1      -0.01269241       0.00535343       0.00151384
Pt       8.42114960       4.85049631      26.91738656        1       0.01235178       0.00623611      -0.00495974
N        7.00878632       4.86228667      30.83566462        0       0.00898437      -0.00152147       0.01418826
H        7.49795820       5.69339102      30.47934273        0      -0.01040623       0.00605206      -0.00591812
H        7.49614383       4.04758806      30.44108137        0      -0.00547045      -0.00745265      -0.00383466
H        6.06975115       4.87244140      30.41682536        0       0.00768179       0.00291253      -0.00566347
