40
Lattice="8.421641763931781 0.0 0.0 4.2108208819658905 7.293355709136913 0.0 0.0 0.0 46.87624170604845" Properties=species:S:1:pos:R:3:tags:I:1:forces:R:3 charge=0 spin=0 energy=-206.4258754344857 free_energy=-206.4258754344857 stress="0.010521335527300835 2.9274349344632355e-06 2.1806524586054365e-08 2.9274349344632355e-06 0.01052505150437355 3.5927373573940713e-06 2.1806524586054365e-08 3.5927373573940713e-06 -3.079826637986116e-05" pbc="T T T"
Pt      -0.00000003       0.00000022      19.95723434        4      -0.00054057       0.00002053       0.01856789
Pt       2.80721396      -0.00000018      19.95723452        4      -0.00033376       0.00018938       0.01838869
Pt       5.61442778      -0.00000004      19.95723454        4       0.00033536      -0.00038362       0.01863693
Pt       1.40360719       2.43111838      19.95723440        4      -0.00019884       0.00027212       0.01761778
Pt       4.21082079       2.43111832      19.95723449        4      -0.00005647      -0.00021890       0.01765453
Pt       7.01803484       2.43111842      19.95723441        4      -0.00012516      -0.00012005       0.01849812
Pt       2.80721406       4.86223725      19.95723409        4       0.00025765       0.00041919       0.01829692
Pt       5.61442803       4.86223733      19.95723425        4      -0.00024259       0.00016625       0.01887484
Pt       8.42164141       4.86223723      19.95723442        4       0.00017714       0.00029208       0.01891201
Pt       1.40360730       0.81037260      22.29206788        3      -0.00072499      -0.00103838      -0.05028841
Pt       4.21082126       0.81037254      22.29206791        3      -0.00003975      -0.00010834      -0.05091013
Pt       7.01803479       0.81037259      22.29206783        3       0.00001955       0.00137001      -0.05323585
Pt       2.80721452       3.24149125      22.29206775        3      -0.00032019       0.00136665      -0.04592328
Pt       5.61442760       3.24149123      22.29206789        3       0.00110932       0.00101082      -0.05362503
Pt       8.42164156       3.24149116      22.29206803        3      -0.00089456       0.00181284      -0.05403379
Pt       4.21082093       5.67260998      22.29206800        3       0.00047632      -0.00019990      -0.05165702
Pt       7.01803487       5.67261039      22.29206775        3      -0.00034120       0.00000866      -0.05303052
Pt       9.82524824       5.67261062      22.29206803        3      -0.00148101       0.00049512      -0.05145661
Pt      -0.00000058       1.62074570      24.58417378        2       0.01398837      -0.00750251       0.04471822
Pt       2.80721444       1.62074548      24.58417392        2       0.00005832       0.01108151       0.03731626
Pt       5.61442778       1.62074537      24.58417373        2      -0.00986552      -0.00614522       0.04373853
Pt       1.40360636       4.05186440      24.58417384        2       0.00529564      -0.00175651       0.05214576
Pt       4.21082088       4.05186399      24.58417380        2      -0.00514330      -0.00207884       0.05028700
Pt       7.01803502       4.05186406      24.58417406        2       0.00240012       0.00024335       0.02560323
Pt       2.80721280       6.48298341      24.58417369        2       0.00025573      -0.00427531       0.05778278
Pt       5.61442796       6.48298324      24.58417387        2      -0.00853136      -0.00153717       0.03791735
Pt       8.42164221       6.48298340      24.58417380        2       0.00774062      -0.00096528       0.03738102
Pt       0.00070974      -0.00315650      26.92139280        1      -0.00029925       0.00972326      -0.02251334
Pt       2.80851303       0.00081421      26.91115020        1       0.00034073      -0.00134860       0.01664050
Pt       5.61552034      -0.00356527      26.92070423        1       0.00034540       0.00956147      -0.01994246
Pt       1.40445395       2.43120674      26.92121270        1      -0.00057581      -0.00894787      -0.02407050
Pt       4.21160430       2.43176005      26.92032591        1      -0.00059129      -0.00939084      -0.02107350
Pt       7.01878606       2.42597913      26.91112181        1      -0.00130504       0.00697081       0.01801325
Pt       2.80796605       4.86100602      26.92266737        1       0.00000012      -0.00041024      -0.02825096
Pt       5.61589836       4.86070981      26.91630979        1      -0.01172463       0.00171136      -0.00156232
Pt       8.42206482       4.85982094      26.91700949        1       0.01066651       0.00257984      -0.00339906
N        7.01250991       4.87884653      30.84398666        0      -0.00064384      -0.00837182       0.00918483
H        7.84280153       5.32607011      30.43400588        0      -0.01270043       0.00421405      -0.00578858
H        7.01689515       3.90377463      30.51816273        0       0.00189122      -0.00626771      -0.00094044
H        6.19412480       5.32581288      30.41048973        0       0.01132155       0.00755819      -0.00447452
