40
Lattice="8.421641763931781 0.0 0.0 4.2108208819658905 7.293355709136913 0.0 0.0 0.0 46.87624170604845" Properties=species:S:1:pos:R:3:tags:I:1:forces:R:3 charge=0 spin=0 energy=-206.42440868338707 free_energy=-206.42440868338707 stress="0.010450795292854309 1.08016738522565e-05 -6.51523123451625e-06 1.08016738522565e-05 0.010481051169335842 -5.820891146868235e-07 -6.51523123451625e-06 -5.820891146868235e-07 -0.0001249191991519183" pbc="T T T"
Pt      -0.00000003       0.00000022      19.95723434        4      -0.00043000       0.00054624       0.01847211
Pt       2.80721396      -0.00000018      19.95723452        4      -0.00042844      -0.00005033       0.01836541
Pt       5.61442778      -0.00000004      19.95723454        4      -0.00028196       0.00005804       0.01834948
Pt       1.40360719       2.43111838      19.95723440        4      -0.00059507       0.00028699       0.01808273
Pt       4.21082079       2.43111832      19.95723449        4       0.00001109      -0.00000645       0.01761123
Pt       7.01803484       2.43111842      19.95723441        4      -0.00034353       0.00000397       0.01830854
Pt       2.80721406       4.86223725      19.95723409        4       0.00006923       0.00067042       0.01809499
Pt       5.61442803       4.86223733      19.95723425        4      -0.00018557       0.00016180       0.01856471
Pt       8.42164141       4.86223723      19.95723442        4      -0.00022109       0.00021208       0.01880572
Pt       1.40360730       0.81037260      22.29206788        3      -0.00000491      -0.00010481      -0.05113842
Pt       4.21082126       0.81037254      22.29206791        3      -0.00163861      -0.00048483      -0.05085111
Pt       7.01803479       0.81037259      22.29206783        3      -0.00079310       0.00149649      -0.05140160
Pt       2.80721452       3.24149125      22.29206775        3      -0.00162449       0.00252541      -0.04961487
Pt       5.61442760       3.24149123      22.29206789        3      -0.00006842       0.00195169      -0.05134562
Pt       8.42164156       3.24149116      22.29206803        3      -0.00078747       0.00218839      -0.05110556
Pt       4.21082093       5.67260998      22.29206800        3      -0.00025255      -0.00011625      -0.05284318
Pt       7.01803487       5.67261039      22.29206775        3      -0.00121716       0.00065743      -0.05253794
Pt       9.82524824       5.67261062      22.29206803        3      -0.00116741       0.00062684      -0.05296769
Pt      -0.00000058       1.62074570      24.58417378        2       0.00710505      -0.00411155       0.03184535
Pt       2.80721444       1.62074548      24.58417392        2       0.00216578       0.00008554       0.02392962
Pt       5.61442778       1.62074537      24.58417373        2      -0.00035915      -0.00277245       0.03136625
Pt       1.40360636       4.05186440      24.58417384        2      -0.00055404      -0.00440222       0.03256097
Pt       4.21082088       4.05186399      24.58417380        2       0.00060791      -0.00940865       0.02777051
Pt       7.01803502       4.05186406      24.58417406        2       0.00603433      -0.00248405       0.02659766
Pt       2.80721280       6.48298341      24.58417369        2       0.00153759      -0.00075469       0.03279151
Pt       5.61442796       6.48298324      24.58417387        2      -0.00321815       0.00100697       0.03326024
Pt       8.42164221       6.48298340      24.58417380        2       0.00458572      -0.00237832       0.03598133
Pt       0.00020254      -0.00100174      26.91673913        1       0.01574543      -0.01055218      -0.00352219
Pt       2.81014985      -0.00297136      26.91455654        1      -0.00144171      -0.00675541       0.00675742
Pt       5.61953947      -0.00349302      26.91652677        1      -0.01457031      -0.00171161      -0.00178827
Pt       1.40741870       2.42662119      26.91559545        1      -0.00617898       0.00145771       0.00032920
Pt       4.21305312       2.42384660      26.91549484        1       0.00416718       0.01634889      -0.00033132
Pt       7.02091811       2.42830122      26.91418101        1      -0.00374991       0.00302285       0.00919319
Pt       2.81013831       4.85797482      26.91223069        1       0.00403902       0.00330212       0.00926444
Pt       5.61606761       4.85932303      26.91338506        1      -0.00248748       0.00306317       0.00209802
Pt       8.42502009       4.85817838      26.91661252        1      -0.00349357       0.00606615       0.00153708
N        7.05215145       4.95893773      31.00611413        0      -0.00134497       0.00871040       0.01024628
H        6.79528622       4.11779130      30.47293848        0       0.00407681      -0.00352527      -0.00247033
H        6.78368768       5.76039142      30.42062714        0      -0.01755263       0.01092431      -0.00922377
H        8.07930635       4.97066695      31.04863906        0       0.01484576      -0.01575494       0.00095785
