40
Lattice="8.421641763931781 0.0 0.0 4.2108208819658905 7.293355709136913 0.0 0.0 0.0 46.87624170604845" Properties=species:S:1:pos:R:3:tags:I:1:forces:R:3 charge=0 spin=0 energy=-206.4243514629281 free_energy=-206.4243514629281 stress="0.010458135977387428 7.110008482413832e-06 -2.4261287308036117e-06 7.110008482413832e-06 0.010513541288673878 -9.328886335424613e-06 -2.4261287308036117e-06 -9.328886335424613e-06 -9.872170630842447e-05" pbc="T T T"
Pt      -0.00000003       0.00000022      19.95723434        4      -0.00084941       0.00157731       0.01850610
Pt       2.80721396      -0.00000018      19.95723452        4      -0.00052470       0.00157290       0.01856570
Pt       5.61442778      -0.00000004      19.95723454        4       0.00028681       0.00126715       0.01855659
Pt       1.40360719       2.43111838      19.95723440        4       0.00003411       0.00181713       0.01719618
Pt       4.21082079       2.43111832      19.95723449        4      -0.00058767       0.00140801       0.01729626
Pt       7.01803484       2.43111842      19.95723441        4      -0.00040189       0.00148362       0.01870190
Pt       2.80721406       4.86223725      19.95723409        4       0.00003642       0.00183279       0.01851768
Pt       5.61442803       4.86223733      19.95723425        4       0.00000511       0.00163312       0.01887527
Pt       8.42164141       4.86223723      19.95723442        4      -0.00036076       0.00165370       0.01881392
Pt       1.40360730       0.81037260      22.29206788        3      -0.00022626       0.00531971      -0.05183330
Pt       4.21082126       0.81037254      22.29206791        3      -0.00061125       0.00574508      -0.05283996
Pt       7.01803479       0.81037259      22.29206783        3       0.00026754       0.00709695      -0.05165521
Pt       2.80721452       3.24149125      22.29206775        3      -0.00007916       0.00762644      -0.04566538
Pt       5.61442760       3.24149123      22.29206789        3       0.00068804       0.00680122      -0.05209992
Pt       8.42164156       3.24149116      22.29206803        3      -0.00024869       0.00759850      -0.05364485
Pt       4.21082093       5.67260998      22.29206800        3      -0.00013804       0.00573656      -0.05333736
Pt       7.01803487       5.67261039      22.29206775        3      -0.00031413       0.00612438      -0.04981651
Pt       9.82524824       5.67261062      22.29206803        3      -0.00113549       0.00648646      -0.05282597
Pt      -0.00000058       1.62074570      24.58417378        2       0.00266900      -0.01963350       0.02994631
Pt       2.80721444       1.62074548      24.58417392        2       0.00195480      -0.01482487       0.03207869
Pt       5.61442778       1.62074537      24.58417373        2       0.00061310      -0.01758743       0.02938698
Pt       1.40360636       4.05186440      24.58417384        2       0.00423145      -0.01738195       0.03679335
Pt       4.21082088       4.05186399      24.58417380        2      -0.00039987      -0.01681588       0.03821713
Pt       7.01803502       4.05186406      24.58417406        2       0.00016128      -0.01713979       0.03381871
Pt       2.80721280       6.48298341      24.58417369        2       0.00078627      -0.02240063       0.04282463
Pt       5.61442796       6.48298324      24.58417387        2       0.00215779      -0.02282430       0.03569432
Pt       8.42164221       6.48298340      24.58417380        2      -0.00285134      -0.01929261       0.03137705
Pt       0.00336190      -0.02540106      26.91553798        1      -0.01282250       0.01105418       0.00347266
Pt       2.80866375      -0.02290682      26.91646507        1      -0.00072182       0.00300421      -0.00681463
Pt       5.61358749      -0.02555228      26.91438248        1       0.01315503       0.01004050       0.00676024
Pt       1.40173597       2.40548260      26.91527893        1       0.01796007       0.01014320       0.00367497
Pt       4.21466299       2.40667469      26.91545944        1      -0.01793757       0.00692039       0.00293229
Pt       7.01875079       2.40432270      26.91628167        1      -0.00140865       0.01312451      -0.00415164
Pt       2.80827789       4.83673549      26.91938779        1      -0.00233661       0.01109841      -0.01562801
Pt       5.61230125       4.83663231      26.91792602        1       0.01366359       0.01626101      -0.00585806
Pt       8.42579724       4.83641136      26.91614554        1      -0.01444447       0.01326471      -0.00356401
N        7.03315227       4.87240531      30.74376457        0       0.00709082      -0.00008502      -0.03647195
H        7.48774258       5.70187938      30.33995948        0      -0.01782228       0.02333887       0.01734530
H        7.48882163       4.05990702      30.30792409        0      -0.01434761      -0.02443581       0.01807086
H        6.06187081       4.87800275      30.40390513        0       0.02480862       0.00139076       0.00878367
