40
Lattice="8.421641763931781 0.0 0.0 4.2108208819658905 7.293355709136913 0.0 0.0 0.0 46.87624170604845" Properties=species:S:1:pos:R:3:tags:I:1:forces:R:3 charge=0 spin=0 energy=-206.42440677603844 free_energy=-206.42440677603844 stress="0.01045086607336998 1.0800979907799046e-05 -6.495531579275848e-06 1.0800979907799046e-05 0.010481135919690132 -5.918545866734348e-07 -6.495531579275848e-06 -5.918545866734348e-07 -0.0001248178887180984" pbc="T T T"
Pt      -0.00000003       0.00000022      19.95723434        4      -0.00043038       0.00054559       0.01847211
Pt       2.80721396      -0.00000018      19.95723452        4      -0.00042887      -0.00005034       0.01836530
Pt       5.61442778      -0.00000004      19.95723454        4      -0.00028191       0.00005751       0.01834963
Pt       1.40360719       2.43111838      19.95723440        4      -0.00059519       0.00028655       0.01808275
Pt       4.21082079       2.43111832      19.95723449        4       0.00001068      -0.00000670       0.01761119
Pt       7.01803484       2.43111842      19.95723441        4      -0.00034384       0.00000400       0.01830845
Pt       2.80721406       4.86223725      19.95723409        4       0.00006902       0.00066996       0.01809499
Pt       5.61442803       4.86223733      19.95723425        4      -0.00018565       0.00016145       0.01856458
Pt       8.42164141       4.86223723      19.95723442        4      -0.00022139       0.00021155       0.01880574
Pt       1.40360730       0.81037260      22.29206788        3      -0.00000640      -0.00010579      -0.05113966
Pt       4.21082126       0.81037254      22.29206791        3      -0.00164007      -0.00048629      -0.05085322
Pt       7.01803479       0.81037259      22.29206783        3      -0.00079495       0.00149505      -0.05140354
Pt       2.80721452       3.24149125      22.29206775        3      -0.00162562       0.00252308      -0.04961395
Pt       5.61442760       3.24149123      22.29206789        3      -0.00006890       0.00194958      -0.05134533
Pt       8.42164156       3.24149116      22.29206803        3      -0.00078891       0.00218680      -0.05110603
Pt       4.21082093       5.67260998      22.29206800        3      -0.00025393      -0.00011737      -0.05284305
Pt       7.01803487       5.67261039      22.29206775        3      -0.00121874       0.00065675      -0.05253634
Pt       9.82524824       5.67261062      22.29206803        3      -0.00116865       0.00062604      -0.05296668
Pt      -0.00000058       1.62074570      24.58417378        2       0.00711054      -0.00410651       0.03185710
Pt       2.80721444       1.62074548      24.58417392        2       0.00216994       0.00009593       0.02395111
Pt       5.61442778       1.62074537      24.58417373        2      -0.00035833      -0.00276362       0.03138646
Pt       1.40360636       4.05186440      24.58417384        2      -0.00055061      -0.00439363       0.03257870
Pt       4.21082088       4.05186399      24.58417380        2       0.00060944      -0.00940027       0.02779348
Pt       7.01803502       4.05186406      24.58417406        2       0.00603690      -0.00248052       0.02661840
Pt       2.80721280       6.48298341      24.58417369        2       0.00154120      -0.00075788       0.03280683
Pt       5.61442796       6.48298324      24.58417387        2      -0.00321217       0.00100544       0.03327136
Pt       8.42164221       6.48298340      24.58417380        2       0.00458920      -0.00238125       0.03598671
Pt       0.00020946      -0.00099868      26.91673904        1       0.01573433      -0.01054792      -0.00352488
Pt       2.81015770      -0.00296504      26.91455700        1      -0.00145953      -0.00675390       0.00675393
Pt       5.61954111      -0.00348909      26.91652770        1      -0.01455799      -0.00170310      -0.00178946
Pt       1.40742124       2.42663072      26.91560009        1      -0.00616765       0.00143162       0.00031427
Pt       4.21305787       2.42385764      26.91550116        1       0.00416632       0.01632267      -0.00035698
Pt       7.02092525       2.42830285      26.91418424        1      -0.00376852       0.00303173       0.00917548
Pt       2.81014059       4.85797951      26.91223973        1       0.00406393       0.00330781       0.00922421
Pt       5.61607260       4.85932665      26.91339160        1      -0.00249434       0.00306500       0.00207364
Pt       8.42502300       4.85818272      26.91661842        1      -0.00349354       0.00606767       0.00151543
N        7.05214955       4.95893542      31.00607365        0      -0.00137915       0.00877472       0.01031219
H        8.07930422       4.97066672      31.04860071        0       0.01484741      -0.01575760       0.00093452
H        6.79527866       4.11778610      30.47290677        0       0.00407886      -0.00351233      -0.00251076
H        6.78367676       5.76039512      30.42059778        0      -0.01753234       0.01084857      -0.00921887
