40
Lattice="8.421641763931781 0.0 0.0 4.2108208819658905 7.293355709136913 0.0 0.0 0.0 46.87624170604845" Properties=species:S:1:pos:R:3:tags:I:1:forces:R:3 charge=0 spin=0 energy=-206.42513919791344 free_energy=-206.42513919791344 stress="0.010473895817995071 4.1235534808947705e-06 -1.125882249652932e-06 4.1235534808947705e-06 0.010501489043235779 -2.658864332261146e-06 -1.125882249652932e-06 -2.658864332261146e-06 -9.136255539488047e-05" pbc="T T T"
Pt      -0.00000003       0.00000022      19.95723434        4      -0.00084835       0.00097124       0.01851174
Pt       2.80721396      -0.00000018      19.95723452        4      -0.00034682       0.00096575       0.01861409
Pt       5.61442778      -0.00000004      19.95723454        4       0.00039565       0.00061335       0.01853256
Pt       1.40360719       2.43111838      19.95723440        4       0.00003754       0.00112340       0.01726125
Pt       4.21082079       2.43111832      19.95723449        4      -0.00044555       0.00071669       0.01732398
Pt       7.01803484       2.43111842      19.95723441        4      -0.00026888       0.00078356       0.01868195
Pt       2.80721406       4.86223725      19.95723409        4       0.00015643       0.00122641       0.01851466
Pt       5.61442803       4.86223733      19.95723425        4       0.00002823       0.00097624       0.01886562
Pt       8.42164141       4.86223723      19.95723442        4      -0.00023122       0.00099177       0.01887041
Pt       1.40360730       0.81037260      22.29206788        3       0.00003344       0.00271560      -0.05187066
Pt       4.21082126       0.81037254      22.29206791        3      -0.00060923       0.00328598      -0.05238206
Pt       7.01803479       0.81037259      22.29206783        3       0.00022703       0.00473142      -0.05124524
Pt       2.80721452       3.24149125      22.29206775        3      -0.00008942       0.00495845      -0.04568258
Pt       5.61442760       3.24149123      22.29206789        3       0.00073722       0.00452754      -0.05291259
Pt       8.42164156       3.24149116      22.29206803        3      -0.00022456       0.00528658      -0.05346269
Pt       4.21082093       5.67260998      22.29206800        3       0.00044561       0.00337086      -0.05295317
Pt       7.01803487       5.67261039      22.29206775        3      -0.00028221       0.00368013      -0.05080926
Pt       9.82524824       5.67261062      22.29206803        3      -0.00120098       0.00395928      -0.05254780
Pt      -0.00000058       1.62074570      24.58417378        2       0.00296605      -0.01258765       0.03034438
Pt       2.80721444       1.62074548      24.58417392        2       0.00052874      -0.00735901       0.03146013
Pt       5.61442778       1.62074537      24.58417373        2       0.00007905      -0.01136826       0.03047234
Pt       1.40360636       4.05186440      24.58417384        2       0.00220982      -0.01004036       0.03868633
Pt       4.21082088       4.05186399      24.58417380        2      -0.00187811      -0.01036321       0.03753728
Pt       7.01803502       4.05186406      24.58417406        2       0.00203512      -0.00962061       0.03586788
Pt       2.80721280       6.48298341      24.58417369        2      -0.00020490      -0.01489346       0.04295394
Pt       5.61442796       6.48298324      24.58417387        2       0.00205811      -0.01532669       0.03566161
Pt       8.42164221       6.48298340      24.58417380        2      -0.00300631      -0.01338811       0.03446278
Pt       0.00258132      -0.01550878      26.91543511        1      -0.01156911       0.00771033       0.00346666
Pt       2.80825368      -0.01283212      26.91626671        1      -0.00003511      -0.00401200      -0.00687046
Pt       5.61321766      -0.01608286      26.91518951        1       0.01172840       0.00881868       0.00422333
Pt       1.40125459       2.41573452      26.91538395        1       0.01585802       0.00507285       0.00214910
Pt       4.21408909       2.41630905      26.91507298        1      -0.01669000       0.00411247       0.00325996
Pt       7.01826579       2.41364223      26.91595857        1      -0.00007765       0.01214009      -0.00299844
Pt       2.80775365       4.84670852      26.91922621        1       0.00023370       0.00600830      -0.01555880
Pt       5.61176271       4.84637779      26.91727054        1       0.01555832       0.01282285      -0.00655596
Pt       8.42561887       4.84620720      26.91739477        1      -0.01722246       0.00986242      -0.00657687
N        7.01398132       4.87202794      30.75549779        0      -0.00003503      -0.01013221      -0.03834184
H        6.19205242       5.34864428      30.36054444        0       0.02625998       0.01661467       0.01294248
H        7.84175024       5.34857250      30.37286881        0      -0.02671922       0.01579697       0.01163823
H        7.01680963       3.92658733      30.35116195        0       0.00040849      -0.02475214       0.02046570
