40
Lattice="8.421641763931781 0.0 0.0 4.2108208819658905 7.293355709136913 0.0 0.0 0.0 46.87624170604845" Properties=species:S:1:pos:R:3:tags:I:1:forces:R:3 charge=0 spin=0 energy=-206.4244048686898 free_energy=-206.4244048686898 stress="0.01045035570859909 -1.0178024240303785e-05 5.43997293789289e-06 -1.0178024240303785e-05 0.010484129190444946 5.357291001928388e-07 5.43997293789289e-06 5.357291001928388e-07 -0.00012368365423753858" pbc="T T T"
Pt      -0.00000003       0.00000022      19.95723434        4       0.00002262       0.00051020       0.01831806
Pt       2.80721396      -0.00000018      19.95723452        4       0.00000242      -0.00002406       0.01821657
Pt       5.61442778      -0.00000004      19.95723454        4       0.00033719       0.00026942       0.01836708
Pt       1.40360719       2.43111838      19.95723440        4      -0.00004720       0.00047081       0.01774787
Pt       4.21082079       2.43111832      19.95723449        4       0.00052137      -0.00007630       0.01796011
Pt       7.01803484       2.43111842      19.95723441        4       0.00006250       0.00015017       0.01835847
Pt       2.80721406       4.86223725      19.95723409        4       0.00047737       0.00070617       0.01828265
Pt       5.61442803       4.86223733      19.95723425        4       0.00025518       0.00023850       0.01892028
Pt       8.42164141       4.86223723      19.95723442        4       0.00024514       0.00043289       0.01851439
Pt       1.40360730       0.81037260      22.29206788        3       0.00165777      -0.00064760      -0.05077986
Pt       4.21082126       0.81037254      22.29206791        3      -0.00024831       0.00035382      -0.05130265
Pt       7.01803479       0.81037259      22.29206783        3       0.00154697       0.00144572      -0.05136447
Pt       2.80721452       3.24149125      22.29206775        3       0.00184074       0.00230309      -0.04958311
Pt       5.61442760       3.24149123      22.29206789        3       0.00131235       0.00116259      -0.05094119
Pt       8.42164156       3.24149116      22.29206803        3       0.00049806       0.00285305      -0.05161672
Pt       4.21082093       5.67260998      22.29206800        3       0.00131064       0.00045421      -0.05298074
Pt       7.01803487       5.67261039      22.29206775        3       0.00098173       0.00078187      -0.05242725
Pt       9.82524824       5.67261062      22.29206803        3      -0.00018446       0.00075538      -0.05277649
Pt      -0.00000058       1.62074570      24.58417378        2       0.00168955      -0.00456454       0.03099277
Pt       2.80721444       1.62074548      24.58417392        2      -0.00184104      -0.00047722       0.02452978
Pt       5.61442778       1.62074537      24.58417373        2      -0.00502747      -0.00303622       0.03086107
Pt       1.40360636       4.05186440      24.58417384        2      -0.00022169      -0.00856909       0.02770259
Pt       4.21082088       4.05186399      24.58417380        2       0.00038021      -0.00463021       0.03207411
Pt       7.01803502       4.05186406      24.58417406        2      -0.00479670      -0.00204172       0.02659063
Pt       2.80721280       6.48298341      24.58417369        2      -0.00395715      -0.00243332       0.03361655
Pt       5.61442796       6.48298324      24.58417387        2      -0.00728330      -0.00470999       0.03763955
Pt       8.42164221       6.48298340      24.58417380        2       0.00136912       0.00290322       0.03309041
Pt      -0.00550042      -0.00341788      26.91658201        1       0.01579785      -0.00021559      -0.00249713
Pt       2.80417730      -0.00353342      26.91436044        1       0.00409565      -0.00511184       0.00586474
Pt       5.61394058      -0.00145865      26.91672917        1      -0.01419182      -0.01044452      -0.00366890
Pt       1.40096853       2.42375303      26.91545005        1      -0.00419805       0.01488512      -0.00017979
Pt       4.20679002       2.42639181      26.91547755        1       0.00601241       0.00247181       0.00086181
Pt       7.01415466       2.42819307      26.91425505        1       0.00397898       0.00244082       0.01053097
Pt       2.80459518       4.85779662      26.91246318        1      -0.00662064       0.00349168       0.00884728
Pt       5.61083424       4.85788230      26.91709287        1       0.00339250       0.00683278      -0.00024050
Pt       8.42008965       4.85859745      26.91318846        1       0.00071942       0.00067815       0.00306840
N        6.98543680       4.96157074      31.01009832        0       0.00055681       0.00828674       0.00943598
H        7.24802628       4.12680265      30.46977360        0      -0.00433729      -0.00188634      -0.00229153
H        5.95806431       4.96776733      31.04915875        0      -0.01423563      -0.01658940       0.00102268
H        7.25187021       5.76989258      30.43306325        0       0.01812605       0.01057940      -0.00876463
