40
Lattice="8.421641763931781 0.0 0.0 4.2108208819658905 7.293355709136913 0.0 0.0 0.0 46.87624170604845" Properties=species:S:1:pos:R:3:tags:I:1:forces:R:3 charge=0 spin=0 energy=-206.4258754344857 free_energy=-206.4258754344857 stress="0.010521321557462215 2.9232037377369124e-06 3.383196656159271e-08 2.9232037377369124e-06 0.010525044985115528 3.599781621232978e-06 3.383196656159271e-08 3.599781621232978e-06 -3.0797371437074617e-05" pbc="T T T"
Pt      -0.00000003       0.00000022      19.95723434        4      -0.00054041       0.00002041       0.01856801
Pt       2.80721396      -0.00000018      19.95723452        4      -0.00033377       0.00018929       0.01838865
Pt       5.61442778      -0.00000004      19.95723454        4       0.00033529      -0.00038354       0.01863712
Pt       1.40360719       2.43111838      19.95723440        4      -0.00019887       0.00027182       0.01761772
Pt       4.21082079       2.43111832      19.95723449        4      -0.00005642      -0.00021888       0.01765434
Pt       7.01803484       2.43111842      19.95723441        4      -0.00012535      -0.00012020       0.01849823
Pt       2.80721406       4.86223725      19.95723409        4       0.00025766       0.00041930       0.01829681
Pt       5.61442803       4.86223733      19.95723425        4      -0.00024258       0.00016630       0.01887495
Pt       8.42164141       4.86223723      19.95723442        4       0.00017719       0.00029213       0.01891220
Pt       1.40360730       0.81037260      22.29206788        3      -0.00072524      -0.00103907      -0.05028845
Pt       4.21082126       0.81037254      22.29206791        3      -0.00003985      -0.00010879      -0.05091038
Pt       7.01803479       0.81037259      22.29206783        3       0.00001955       0.00136968      -0.05323607
Pt       2.80721452       3.24149125      22.29206775        3      -0.00031996       0.00136607      -0.04592462
Pt       5.61442760       3.24149123      22.29206789        3       0.00110940       0.00101020      -0.05362407
Pt       8.42164156       3.24149116      22.29206803        3      -0.00089440       0.00181270      -0.05403431
Pt       4.21082093       5.67260998      22.29206800        3       0.00047596      -0.00020061      -0.05165621
Pt       7.01803487       5.67261039      22.29206775        3      -0.00034135       0.00000834      -0.05303076
Pt       9.82524824       5.67261062      22.29206803        3      -0.00148103       0.00049515      -0.05145620
Pt      -0.00000058       1.62074570      24.58417378        2       0.01398772      -0.00750245       0.04471793
Pt       2.80721444       1.62074548      24.58417392        2       0.00005889       0.01108191       0.03731758
Pt       5.61442778       1.62074537      24.58417373        2      -0.00986500      -0.00614443       0.04373944
Pt       1.40360636       4.05186440      24.58417384        2       0.00529556      -0.00175595       0.05214694
Pt       4.21082088       4.05186399      24.58417380        2      -0.00514262      -0.00207779       0.05028651
Pt       7.01803502       4.05186406      24.58417406        2       0.00240033       0.00024391       0.02559931
Pt       2.80721280       6.48298341      24.58417369        2       0.00025543      -0.00427440       0.05778294
Pt       5.61442796       6.48298324      24.58417387        2      -0.00853176      -0.00153519       0.03791498
Pt       8.42164221       6.48298340      24.58417380        2       0.00774176      -0.00096513       0.03738091
Pt       0.00071001      -0.00315595      26.92139266        1      -0.00029968       0.00972497      -0.02251359
Pt       2.80851339       0.00081423      26.91114977        1       0.00033963      -0.00134069       0.01664141
Pt       5.61552033      -0.00356408      26.92070387        1       0.00034801       0.00956058      -0.01994327
Pt       1.40445386       2.43120718      26.92121340        1      -0.00057211      -0.00894771      -0.02407137
Pt       4.21160458       2.43176145      26.92032666        1      -0.00059361      -0.00939346      -0.02107439
Pt       7.01878628       2.42598090      26.91112184        1      -0.00130731       0.00696204       0.01801452
Pt       2.80796662       4.86100662      26.92266680        1       0.00000028      -0.00040902      -0.02825035
Pt       5.61589977       4.86071091      26.91630934        1      -0.01173376       0.00170788      -0.00156062
Pt       8.42206424       4.85982122      26.91700852        1       0.01067627       0.00258138      -0.00339742
N        7.01250872       4.87884556      30.84398470        0      -0.00070479      -0.00841866       0.00917118
H        6.19412371       5.32580966      30.41048477        0       0.01133258       0.00756546      -0.00446157
H        7.84279962       5.32606873      30.43400288        0      -0.01266477       0.00423228      -0.00580452
H        7.01689403       3.90377344      30.51815993        0       0.00190322      -0.00624604      -0.00092365
