40
Lattice="8.421641763931781 0.0 0.0 4.2108208819658905 7.293355709136913 0.0 0.0 0.0 46.87624170604845" Properties=species:S:1:pos:R:3:tags:I:1:forces:R:3 charge=0 spin=0 energy=-206.41990161856774 free_energy=-206.41990161856774 stress="0.01033955067396164 9.26185202843044e-06 -4.1731954070201027e-07 9.26185202843044e-06 0.010457954369485378 -1.182071355287917e-05 -4.1731954070201027e-07 -1.182071355287917e-05 -0.00026026065461337566" pbc="T T T"
Pt      -0.00000003       0.00000022      19.95723434        4      -0.00099888       0.00255241       0.01851384
Pt       2.80721396      -0.00000018      19.95723452        4      -0.00060575       0.00211266       0.01817906
Pt       5.61442778      -0.00000004      19.95723454        4      -0.00005993       0.00217602       0.01842527
Pt       1.40360719       2.43111838      19.95723440        4      -0.00022627       0.00243964       0.01730720
Pt       4.21082079       2.43111832      19.95723449        4      -0.00054030       0.00215382       0.01723346
Pt       7.01803484       2.43111842      19.95723441        4      -0.00051832       0.00229755       0.01860396
Pt       2.80721406       4.86223725      19.95723409        4      -0.00011614       0.00309086       0.01826893
Pt       5.61442803       4.86223733      19.95723425        4       0.00001185       0.00261920       0.01867647
Pt       8.42164141       4.86223723      19.95723442        4      -0.00073794       0.00259638       0.01873207
Pt       1.40360730       0.81037260      22.29206788        3       0.00007361       0.00841070      -0.05109632
Pt       4.21082126       0.81037254      22.29206791        3      -0.00069653       0.00913194      -0.05166972
Pt       7.01803479       0.81037259      22.29206783        3       0.00006218       0.00980498      -0.04929147
Pt       2.80721452       3.24149125      22.29206775        3      -0.00022813       0.01200109      -0.05013064
Pt       5.61442760       3.24149123      22.29206789        3      -0.00061819       0.01023024      -0.05136958
Pt       8.42164156       3.24149116      22.29206803        3       0.00035681       0.01131804      -0.05148305
Pt       4.21082093       5.67260998      22.29206800        3      -0.00063525       0.00850935      -0.05413217
Pt       7.01803487       5.67261039      22.29206775        3      -0.00056687       0.00954586      -0.04906106
Pt       9.82524824       5.67261062      22.29206803        3      -0.00055370       0.00922469      -0.05387137
Pt      -0.00000058       1.62074570      24.58417378        2      -0.00415277      -0.03062307       0.01872364
Pt       2.80721444       1.62074548      24.58417392        2       0.00170671      -0.02909372       0.01431243
Pt       5.61442778       1.62074537      24.58417373        2       0.01008390      -0.03119053       0.01719204
Pt       1.40360636       4.05186440      24.58417384        2      -0.00397966      -0.03089828       0.00655986
Pt       4.21082088       4.05186399      24.58417380        2       0.00683998      -0.03053323       0.00595771
Pt       7.01803502       4.05186406      24.58417406        2       0.00292707      -0.02829659       0.00704722
Pt       2.80721280       6.48298341      24.58417369        2       0.00128058      -0.01819810       0.02265029
Pt       5.61442796       6.48298324      24.58417387        2       0.00066339      -0.02803984       0.01846625
Pt       8.42164221       6.48298340      24.58417380        2       0.00026341      -0.02711188       0.01779553
Pt       0.00393400      -0.03748786      26.91387123        1      -0.01750449       0.02233993       0.01086539
Pt       2.80939975      -0.03887065      26.91427662        1      -0.00089022       0.03176055       0.00725819
Pt       5.61417396      -0.03824762      26.91366552        1       0.01633664       0.02311286       0.01227609
Pt       1.40141013       2.39208307      26.91036454        1       0.02416347       0.01302998       0.02530050
Pt       4.21641087       2.39265393      26.90961174        1      -0.02719474       0.01227320       0.02771142
Pt       7.01917490       2.39785118      26.91564630        1       0.00068702      -0.01961851       0.00204717
Pt       2.80902114       4.82449776      26.90624941        1      -0.00158622       0.01622186       0.04142622
Pt       5.61471328       4.82461417      26.91316306        1      -0.00113001       0.02202295       0.01496718
Pt       8.42526712       4.82396199      26.91353548        1      -0.00150324       0.02087417       0.01402782
N        7.01816626       4.74427092      30.73423358        0      -0.00039931       0.00766945       0.02503013
H        6.19346587       4.19061299      30.47059281        0      -0.00842602      -0.01727012      -0.00658636
H        7.01331291       5.57750406      30.13259468        0       0.00034237       0.02777087       0.00151458
H        7.84186378       4.19357340      30.46150598        0       0.00806970      -0.01641724      -0.00637834
