40
Lattice="8.421641763931781 0.0 0.0 4.2108208819658905 7.293355709136913 0.0 0.0 0.0 46.87624170604845" Properties=species:S:1:pos:R:3:tags:I:1:forces:R:3 charge=0 spin=0 energy=-206.4181907268441 free_energy=-206.4181907268441 stress="0.010382691398262978 7.293360795301851e-06 -6.10864026384661e-06 7.293360795301851e-06 0.010573103092610836 -1.1921585610252805e-05 -6.10864026384661e-06 -1.1921585610252805e-05 -0.00018376673688180745" pbc="T T T"
Pt      -0.00000003       0.00000022      19.95723434        4      -0.00098178       0.00389777       0.01839446
Pt       2.80721396      -0.00000018      19.95723452        4      -0.00056914       0.00363886       0.01850326
Pt       5.61442778      -0.00000004      19.95723454        4       0.00004516       0.00362095       0.01839662
Pt       1.40360719       2.43111838      19.95723440        4      -0.00039830       0.00366235       0.01714817
Pt       4.21082079       2.43111832      19.95723449        4      -0.00036886       0.00329487       0.01719499
Pt       7.01803484       2.43111842      19.95723441        4      -0.00047788       0.00323431       0.01848273
Pt       2.80721406       4.86223725      19.95723409        4       0.00000710       0.00393369       0.01851303
Pt       5.61442803       4.86223733      19.95723425        4      -0.00023587       0.00348919       0.01881628
Pt       8.42164141       4.86223723      19.95723442        4      -0.00030166       0.00351608       0.01877444
Pt       1.40360730       0.81037260      22.29206788        3       0.00133176       0.01271056      -0.05176036
Pt       4.21082126       0.81037254      22.29206791        3      -0.00036330       0.01323722      -0.05246832
Pt       7.01803479       0.81037259      22.29206783        3       0.00093355       0.01501825      -0.04996137
Pt       2.80721452       3.24149125      22.29206775        3       0.00061648       0.01579213      -0.04490757
Pt       5.61442760       3.24149123      22.29206789        3       0.00153292       0.01550152      -0.05130471
Pt       8.42164156       3.24149116      22.29206803        3       0.00060776       0.01618727      -0.05209358
Pt       4.21082093       5.67260998      22.29206800        3       0.00122444       0.01386585      -0.05405066
Pt       7.01803487       5.67261039      22.29206775        3       0.00040944       0.01402602      -0.05254378
Pt       9.82524824       5.67261062      22.29206803        3      -0.00073517       0.01434443      -0.05366083
Pt      -0.00000058       1.62074570      24.58417378        2      -0.00019069      -0.04078676       0.02080647
Pt       2.80721444       1.62074548      24.58417392        2      -0.00072001      -0.03789537       0.01964776
Pt       5.61442778       1.62074537      24.58417373        2       0.00023277      -0.03901973       0.02077669
Pt       1.40360636       4.05186440      24.58417384        2       0.00095300      -0.04357576       0.02864623
Pt       4.21082088       4.05186399      24.58417380        2      -0.00338857      -0.04409634       0.02752220
Pt       7.01803502       4.05186406      24.58417406        2       0.00038906      -0.04652374       0.01534914
Pt       2.80721280       6.48298341      24.58417369        2      -0.00167800      -0.04242983       0.03330264
Pt       5.61442796       6.48298324      24.58417387        2      -0.00251262      -0.03970054       0.02316307
Pt       8.42164221       6.48298340      24.58417380        2      -0.00165264      -0.03767683       0.02273321
Pt      -0.00079597      -0.05441864      26.91574516        1      -0.00602769       0.00954521       0.00918473
Pt       2.80624756      -0.05453333      26.91595106        1       0.00058138       0.01698107       0.00176102
Pt       5.61281340      -0.05510096      26.91535908        1       0.00750079       0.01062068       0.01019842
Pt       1.40002760       2.37126445      26.91455378        1       0.01394059       0.04305601       0.01249250
Pt       4.21131562       2.37169419      26.91431776        1      -0.01240285       0.04318681       0.01308620
Pt       7.01621973       2.37308700      26.91664746        1       0.00105829       0.02783356       0.00182239
Pt       2.80579555       4.80574366      26.91574378        1       0.00121061       0.01902033      -0.00157807
Pt       5.61203870       4.80661435      26.91280722        1      -0.00629447       0.02058231       0.01569279
Pt       8.42104455       4.80612323      26.91281255        1       0.00649145       0.01943960       0.01523558
N        7.01817095       4.93133960      30.72429996        0       0.00010725       0.00792382      -0.00208494
H        7.84647382       5.45470756      30.41069279        0      -0.02530180      -0.02806002      -0.00321510
H        7.02022052       4.03793588      30.21369972        0       0.00033396       0.04621476       0.01612194
H        6.19658299       5.45774191      30.39839831        0       0.02509382      -0.02761061      -0.00213770
