40
Lattice="8.421641763931781 0.0 0.0 4.2108208819658905 7.293355709136913 0.0 0.0 0.0 46.87624170604845" Properties=species:S:1:pos:R:3:tags:I:1:forces:R:3 charge=0 spin=0 energy=-206.42469669303063 free_energy=-206.42469669303063 stress="0.010462474077939987 3.2591383387625683e-06 -7.999555577953288e-07 3.2591383387625683e-06 0.010508893057703972 -7.412818831653567e-06 -7.999555577953288e-07 -7.412818831653567e-06 -9.696701454231516e-05" pbc="T T T"
Pt      -0.00000003       0.00000022      19.95723434        4      -0.00079839       0.00138222       0.01858335
Pt       2.80721396      -0.00000018      19.95723452        4      -0.00027362       0.00138853       0.01862463
Pt       5.61442778      -0.00000004      19.95723454        4       0.00027487       0.00102912       0.01850196
Pt       1.40360719       2.43111838      19.95723440        4       0.00007256       0.00160756       0.01729552
Pt       4.21082079       2.43111832      19.95723449        4      -0.00051996       0.00116456       0.01722247
Pt       7.01803484       2.43111842      19.95723441        4      -0.00025409       0.00131735       0.01870056
Pt       2.80721406       4.86223725      19.95723409        4       0.00022935       0.00164251       0.01844991
Pt       5.61442803       4.86223733      19.95723425        4       0.00003250       0.00138530       0.01881384
Pt       8.42164141       4.86223723      19.95723442        4      -0.00027639       0.00146093       0.01888186
Pt       1.40360730       0.81037260      22.29206788        3       0.00014907       0.00429297      -0.05211696
Pt       4.21082126       0.81037254      22.29206791        3      -0.00009743       0.00518581      -0.05212345
Pt       7.01803479       0.81037259      22.29206783        3       0.00046576       0.00618717      -0.05176906
Pt       2.80721452       3.24149125      22.29206775        3       0.00014069       0.00692520      -0.04595051
Pt       5.61442760       3.24149123      22.29206789        3       0.00084462       0.00587502      -0.05322186
Pt       8.42164156       3.24149116      22.29206803        3       0.00006690       0.00681682      -0.05262683
Pt       4.21082093       5.67260998      22.29206800        3       0.00049175       0.00485314      -0.05313988
Pt       7.01803487       5.67261039      22.29206775        3      -0.00009999       0.00524958      -0.04997466
Pt       9.82524824       5.67261062      22.29206803        3      -0.00049198       0.00545966      -0.05280664
Pt      -0.00000058       1.62074570      24.58417378        2       0.00243970      -0.01600407       0.02984298
Pt       2.80721444       1.62074548      24.58417392        2      -0.00086542      -0.01229192       0.03187835
Pt       5.61442778       1.62074537      24.58417373        2       0.00015095      -0.01675883       0.03034137
Pt       1.40360636       4.05186440      24.58417384        2       0.00092032      -0.01428649       0.03956375
Pt       4.21082088       4.05186399      24.58417380        2      -0.00377149      -0.01513821       0.03587126
Pt       7.01803502       4.05186406      24.58417406        2       0.00268791      -0.01422649       0.03401115
Pt       2.80721280       6.48298341      24.58417369        2      -0.00134911      -0.01961762       0.04287430
Pt       5.61442796       6.48298324      24.58417387        2       0.00204823      -0.01875702       0.03273373
Pt       8.42164221       6.48298340      24.58417380        2      -0.00356412      -0.01869204       0.03460332
Pt       0.00188447      -0.02159470      26.91456571        1      -0.01268127       0.00832346       0.00611345
Pt       2.80754362      -0.01939743      26.91656670        1       0.00023612       0.00112443      -0.00718403
Pt       5.61198604      -0.02257625      26.91530290        1       0.01312009       0.01040059       0.00422611
Pt       1.40037893       2.40943585      26.91584337        1       0.01755158       0.00684835       0.00146590
Pt       4.21330528       2.40973929      26.91473580        1      -0.01868324       0.00722928       0.00464341
Pt       7.01735276       2.40780232      26.91611212        1       0.00103165       0.01158982      -0.00385981
Pt       2.80695319       4.84016899      26.91932879        1       0.00154185       0.00912553      -0.01564904
Pt       5.61113930       4.84015395      26.91628636        1       0.01355111       0.01511449      -0.00397342
Pt       8.42453653       4.83976957      26.91794107        1      -0.01448022       0.01274555      -0.00616415
N        7.00321661       4.86663463      30.75005292        0      -0.00726124      -0.00031231      -0.03579871
H        6.54977597       5.68545723      30.32384564        0       0.01613628       0.02409641       0.01732741
H        7.97454092       4.86215559      30.41032349        0      -0.02458314       0.00013641       0.00836093
H        6.54659614       4.04326362      30.33618652        0       0.01586724      -0.02387292       0.01742739
