40
Lattice="8.421641763931781 0.0 0.0 4.2108208819658905 7.293355709136913 0.0 0.0 0.0 46.87624170604845" Properties=species:S:1:pos:R:3:tags:I:1:forces:R:3 charge=0 spin=0 energy=-206.41990161856774 free_energy=-206.41990161856774 stress="0.01033952459692955 9.257696547138039e-06 -4.2263675936737854e-07 9.257696547138039e-06 0.01045794878154993 -1.1829645700345282e-05 -4.2263675936737854e-07 -1.1829645700345282e-05 -0.0002602635358925909" pbc="T T T"
Pt      -0.00000003       0.00000022      19.95723434        4      -0.00099903       0.00255242       0.01851396
Pt       2.80721396      -0.00000018      19.95723452        4      -0.00060574       0.00211255       0.01817911
Pt       5.61442778      -0.00000004      19.95723454        4      -0.00005994       0.00217610       0.01842529
Pt       1.40360719       2.43111838      19.95723440        4      -0.00022634       0.00243963       0.01730723
Pt       4.21082079       2.43111832      19.95723449        4      -0.00054004       0.00215376       0.01723324
Pt       7.01803484       2.43111842      19.95723441        4      -0.00051841       0.00229751       0.01860411
Pt       2.80721406       4.86223725      19.95723409        4      -0.00011617       0.00309097       0.01826882
Pt       5.61442803       4.86223733      19.95723425        4       0.00001199       0.00261903       0.01867658
Pt       8.42164141       4.86223723      19.95723442        4      -0.00073798       0.00259632       0.01873222
Pt       1.40360730       0.81037260      22.29206788        3       0.00007370       0.00841050      -0.05109645
Pt       4.21082126       0.81037254      22.29206791        3      -0.00069660       0.00913166      -0.05166994
Pt       7.01803479       0.81037259      22.29206783        3       0.00006217       0.00980460      -0.04929005
Pt       2.80721452       3.24149125      22.29206775        3      -0.00022832       0.01200085      -0.05013115
Pt       5.61442760       3.24149123      22.29206789        3      -0.00061826       0.01023045      -0.05136986
Pt       8.42164156       3.24149116      22.29206803        3       0.00035712       0.01131839      -0.05148268
Pt       4.21082093       5.67260998      22.29206800        3      -0.00063513       0.00850957      -0.05413178
Pt       7.01803487       5.67261039      22.29206775        3      -0.00056710       0.00954544      -0.04906057
Pt       9.82524824       5.67261062      22.29206803        3      -0.00055403       0.00922490      -0.05387152
Pt      -0.00000058       1.62074570      24.58417378        2      -0.00415330      -0.03062358       0.01872326
Pt       2.80721444       1.62074548      24.58417392        2       0.00170508      -0.02909497       0.01431156
Pt       5.61442778       1.62074537      24.58417373        2       0.01008682      -0.03119169       0.01718745
Pt       1.40360636       4.05186440      24.58417384        2      -0.00398166      -0.03089905       0.00655758
Pt       4.21082088       4.05186399      24.58417380        2       0.00684206      -0.03053266       0.00595140
Pt       7.01803502       4.05186406      24.58417406        2       0.00292760      -0.02829630       0.00704670
Pt       2.80721280       6.48298341      24.58417369        2       0.00128086      -0.01819563       0.02264795
Pt       5.61442796       6.48298324      24.58417387        2       0.00066315      -0.02803917       0.01846597
Pt       8.42164221       6.48298340      24.58417380        2       0.00026358      -0.02711227       0.01779674
Pt       0.00393372      -0.03748757      26.91387124        1      -0.01750215       0.02234272       0.01086447
Pt       2.80939978      -0.03887119      26.91427690        1      -0.00088861       0.03176378       0.00726024
Pt       5.61417424      -0.03824719      26.91366537        1       0.01633576       0.02310468       0.01227590
Pt       1.40140969       2.39208282      26.91036415        1       0.02416657       0.01303036       0.02529908
Pt       4.21641166       2.39265373      26.90961119        1      -0.02720260       0.01227319       0.02772017
Pt       7.01917485       2.39785160      26.91564563        1       0.00069061      -0.01961999       0.00204637
Pt       2.80902148       4.82449759      26.90624833        1      -0.00159295       0.01622231       0.04143360
Pt       5.61471314       4.82461425      26.91316230        1      -0.00112937       0.02202593       0.01496758
Pt       8.42526688       4.82396198      26.91353535        1      -0.00150133       0.02087406       0.01402770
N        7.01816710       4.74426960      30.73423136        0      -0.00036940       0.00776386       0.02501270
H        7.01331175       5.57750411      30.13259237        0       0.00034413       0.02773818       0.00154660
H        7.84186526       4.19357496      30.46150208        0       0.00808653      -0.01643935      -0.00638149
H        6.19346739       4.19061256      30.47059045        0      -0.00847309      -0.01730943      -0.00659832
