40
Lattice="8.421641763931781 0.0 0.0 4.2108208819658905 7.293355709136913 0.0 0.0 0.0 46.87624170604845" Properties=species:S:1:pos:R:3:tags:I:1:forces:R:3 charge=0 spin=0 energy=-206.42469860037926 free_energy=-206.42469860037926 stress="0.010462462902069092 3.258624701629742e-06 -8.058693197199318e-07 3.258624701629742e-06 0.010508868843317032 -7.416081643896177e-06 -8.058693197199318e-07 -7.416081643896177e-06 -9.696478809928522e-05" pbc="T T T"
Pt      -0.00000003       0.00000022      19.95723434        4      -0.00079843       0.00138218       0.01858328
Pt       2.80721396      -0.00000018      19.95723452        4      -0.00027363       0.00138854       0.01862461
Pt       5.61442778      -0.00000004      19.95723454        4       0.00027494       0.00102912       0.01850188
Pt       1.40360719       2.43111838      19.95723440        4       0.00007243       0.00160766       0.01729571
Pt       4.21082079       2.43111832      19.95723449        4      -0.00051989       0.00116454       0.01722241
Pt       7.01803484       2.43111842      19.95723441        4      -0.00025420       0.00131734       0.01870044
Pt       2.80721406       4.86223725      19.95723409        4       0.00022928       0.00164252       0.01844963
Pt       5.61442803       4.86223733      19.95723425        4       0.00003243       0.00138526       0.01881390
Pt       8.42164141       4.86223723      19.95723442        4      -0.00027621       0.00146109       0.01888192
Pt       1.40360730       0.81037260      22.29206788        3       0.00014896       0.00429308      -0.05211633
Pt       4.21082126       0.81037254      22.29206791        3      -0.00009724       0.00518581      -0.05212333
Pt       7.01803479       0.81037259      22.29206783        3       0.00046530       0.00618703      -0.05176913
Pt       2.80721452       3.24149125      22.29206775        3       0.00014092       0.00692509      -0.04595167
Pt       5.61442760       3.24149123      22.29206789        3       0.00084452       0.00587482      -0.05322216
Pt       8.42164156       3.24149116      22.29206803        3       0.00006681       0.00681673      -0.05262687
Pt       4.21082093       5.67260998      22.29206800        3       0.00049179       0.00485280      -0.05314041
Pt       7.01803487       5.67261039      22.29206775        3      -0.00010019       0.00524940      -0.04997474
Pt       9.82524824       5.67261062      22.29206803        3      -0.00049188       0.00545954      -0.05280619
Pt      -0.00000058       1.62074570      24.58417378        2       0.00243944      -0.01600413       0.02984244
Pt       2.80721444       1.62074548      24.58417392        2      -0.00086568      -0.01229187       0.03187873
Pt       5.61442778       1.62074537      24.58417373        2       0.00015119      -0.01676036       0.03034465
Pt       1.40360636       4.05186440      24.58417384        2       0.00091858      -0.01428519       0.03956652
Pt       4.21082088       4.05186399      24.58417380        2      -0.00377099      -0.01513771       0.03587095
Pt       7.01803502       4.05186406      24.58417406        2       0.00268968      -0.01422577       0.03401329
Pt       2.80721280       6.48298341      24.58417369        2      -0.00135058      -0.01961657       0.04287570
Pt       5.61442796       6.48298324      24.58417387        2       0.00204827      -0.01875684       0.03273411
Pt       8.42164221       6.48298340      24.58417380        2      -0.00356262      -0.01869313       0.03460792
Pt       0.00188449      -0.02159485      26.91456555        1      -0.01268188       0.00832338       0.00611374
Pt       2.80754331      -0.01939743      26.91656753        1       0.00023796       0.00112388      -0.00718463
Pt       5.61198616      -0.02257657      26.91530339        1       0.01311892       0.01040163       0.00421928
Pt       1.40037884       2.40943581      26.91584374        1       0.01755348       0.00684930       0.00146647
Pt       4.21330518       2.40973948      26.91473604        1      -0.01867920       0.00722710       0.00464290
Pt       7.01735298       2.40780227      26.91611242        1       0.00102868       0.01159086      -0.00385949
Pt       2.80695379       4.84016882      26.91932789        1       0.00153525       0.00912553      -0.01564714
Pt       5.61113942       4.84015394      26.91628715        1       0.01355338       0.01511358      -0.00397361
Pt       8.42453649       4.83976930      26.91794242        1      -0.01447961       0.01274556      -0.00617104
N        7.00321666       4.86665595      30.75005388        0      -0.00723681      -0.00025498      -0.03574812
H        7.97454045       4.86210718      30.41032609        0      -0.02456219       0.00008793       0.00835219
H        6.54655131       4.04327872      30.33625156        0       0.01582328      -0.02392360       0.01740404
H        6.54982088       5.68546982      30.32378448        0       0.01613581       0.02413869       0.01730810
