40
Lattice="8.421641763931781 0.0 0.0 4.2108208819658905 7.293355709136913 0.0 0.0 0.0 46.87624170604845" Properties=species:S:1:pos:R:3:tags:I:1:forces:R:3 charge=0 spin=0 energy=-206.41953159293297 free_energy=-206.41953159293297 stress="0.010374143719673157 2.5389450456714258e-05 1.4946417650207877e-05 2.5389450456714258e-05 0.010559044778347015 -1.534041621198412e-05 1.4946417650207877e-05 -1.534041621198412e-05 -0.00017527994350530207" pbc="T T T"
Pt      -0.00000003       0.00000022      19.95723434        4      -0.00137456       0.00341613       0.01841074
Pt       2.80721396      -0.00000018      19.95723452        4      -0.00124570       0.00284123       0.01821852
Pt       5.61442778      -0.00000004      19.95723454        4      -0.00079621       0.00295326       0.01847298
Pt       1.40360719       2.43111838      19.95723440        4      -0.00132433       0.00317968       0.01743702
Pt       4.21082079       2.43111832      19.95723449        4      -0.00067439       0.00283243       0.01748006
Pt       7.01803484       2.43111842      19.95723441        4      -0.00106680       0.00291754       0.01842546
Pt       2.80721406       4.86223725      19.95723409        4      -0.00083166       0.00363022       0.01835705
Pt       5.61442803       4.86223733      19.95723425        4      -0.00076221       0.00320072       0.01887745
Pt       8.42164141       4.86223723      19.95723442        4      -0.00102500       0.00322765       0.01853485
Pt       1.40360730       0.81037260      22.29206788        3      -0.00207968       0.01120473      -0.05067978
Pt       4.21082126       0.81037254      22.29206791        3      -0.00360248       0.01244256      -0.05263552
Pt       7.01803479       0.81037259      22.29206783        3      -0.00237615       0.01320422      -0.05064384
Pt       2.80721452       3.24149125      22.29206775        3      -0.00162099       0.01450630      -0.04877911
Pt       5.61442760       3.24149123      22.29206789        3      -0.00242960       0.01337394      -0.05097312
Pt       8.42164156       3.24149116      22.29206803        3      -0.00277094       0.01478232      -0.05092954
Pt       4.21082093       5.67260998      22.29206800        3      -0.00273396       0.01212097      -0.05419780
Pt       7.01803487       5.67261039      22.29206775        3      -0.00282888       0.01292710      -0.05126215
Pt       9.82524824       5.67261062      22.29206803        3      -0.00372363       0.01274116      -0.05269160
Pt      -0.00000058       1.62074570      24.58417378        2       0.01180311      -0.03767274       0.02859662
Pt       2.80721444       1.62074548      24.58417392        2       0.00893162      -0.03462362       0.02413679
Pt       5.61442778       1.62074537      24.58417373        2       0.01028065      -0.03790278       0.02884948
Pt       1.40360636       4.05186440      24.58417384        2       0.00904791      -0.04053363       0.02466579
Pt       4.21082088       4.05186399      24.58417380        2       0.01257289      -0.03874603       0.03008468
Pt       7.01803502       4.05186406      24.58417406        2       0.00744065      -0.04060270       0.00772016
Pt       2.80721280       6.48298341      24.58417369        2       0.00770563      -0.03394337       0.03408126
Pt       5.61442796       6.48298324      24.58417387        2       0.00454625      -0.03652233       0.02410846
Pt       8.42164221       6.48298340      24.58417380        2       0.01419036      -0.03260449       0.02259958
Pt       0.01161720      -0.04984664      26.91589697        1      -0.01399464       0.02190452       0.00348137
Pt       2.81875246      -0.05159568      26.91459693        1      -0.00717733       0.04015727       0.01023691
Pt       5.62534600      -0.05014386      26.91704161        1       0.00071788       0.02031637      -0.00210466
Pt       1.41347942       2.37930699      26.91572969        1       0.00152088       0.02390231       0.00250746
Pt       4.22228599       2.37895183      26.91472573        1      -0.01079336       0.02934863       0.00647235
Pt       7.02848987       2.38299749      26.91541151        1      -0.00834155      -0.00247955       0.00752084
Pt       2.81719146       4.81206410      26.91242525        1      -0.00565694       0.01924461       0.01143239
Pt       5.62710289       4.81285309      26.91508502        1      -0.03367312       0.01545704       0.01532280
Pt       8.42973339       4.81172287      26.91337865        1       0.02543973       0.01971242       0.01122039
N        7.09362671       4.90114238      30.81360909        0      -0.01450602       0.00306584       0.01138500
H        6.07353119       4.90379254      30.68648294        0      -0.01279636      -0.00695845       0.00063874
H        7.44774379       5.73216583      30.32170376        0       0.01707659      -0.02935357      -0.00325449
H        7.44760880       4.08144015      30.30277586        0       0.00893242       0.03333209      -0.00112375
