40
Lattice="8.421641763931781 0.0 0.0 4.2108208819658905 7.293355709136913 0.0 0.0 0.0 46.87624170604845" Properties=species:S:1:pos:R:3:tags:I:1:forces:R:3 charge=0 spin=0 energy=-206.4258754344857 free_energy=-206.4258754344857 stress="0.010521331802010536 2.9402622203633655e-06 5.287769333506276e-09 2.9402622203633655e-06 0.010525034740567207 3.594449481170159e-06 5.287769333506276e-09 3.594449481170159e-06 -3.07968002744019e-05" pbc="T T T"
Pt      -0.00000003       0.00000022      19.95723434        4      -0.00054045       0.00002040       0.01856797
Pt       2.80721396      -0.00000018      19.95723452        4      -0.00033374       0.00018949       0.01838877
Pt       5.61442778      -0.00000004      19.95723454        4       0.00033518      -0.00038340       0.01863706
Pt       1.40360719       2.43111838      19.95723440        4      -0.00019910       0.00027200       0.01761757
Pt       4.21082079       2.43111832      19.95723449        4      -0.00005661      -0.00021901       0.01765447
Pt       7.01803484       2.43111842      19.95723441        4      -0.00012528      -0.00011992       0.01849810
Pt       2.80721406       4.86223725      19.95723409        4       0.00025754       0.00041926       0.01829690
Pt       5.61442803       4.86223733      19.95723425        4      -0.00024254       0.00016618       0.01887505
Pt       8.42164141       4.86223723      19.95723442        4       0.00017720       0.00029186       0.01891214
Pt       1.40360730       0.81037260      22.29206788        3      -0.00072551      -0.00103850      -0.05028854
Pt       4.21082126       0.81037254      22.29206791        3      -0.00004026      -0.00010819      -0.05091009
Pt       7.01803479       0.81037259      22.29206783        3       0.00001866       0.00137002      -0.05323647
Pt       2.80721452       3.24149125      22.29206775        3      -0.00032053       0.00136679      -0.04592316
Pt       5.61442760       3.24149123      22.29206789        3       0.00110894       0.00101082      -0.05362522
Pt       8.42164156       3.24149116      22.29206803        3      -0.00089512       0.00181333      -0.05403380
Pt       4.21082093       5.67260998      22.29206800        3       0.00047556      -0.00019971      -0.05165635
Pt       7.01803487       5.67261039      22.29206775        3      -0.00034192       0.00000878      -0.05303031
Pt       9.82524824       5.67261062      22.29206803        3      -0.00148129       0.00049546      -0.05145709
Pt      -0.00000058       1.62074570      24.58417378        2       0.01399099      -0.00750263       0.04472042
Pt       2.80721444       1.62074548      24.58417392        2       0.00005794       0.01108175       0.03731808
Pt       5.61442778       1.62074537      24.58417373        2      -0.00986406      -0.00614474       0.04373927
Pt       1.40360636       4.05186440      24.58417384        2       0.00529683      -0.00175941       0.05214766
Pt       4.21082088       4.05186399      24.58417380        2      -0.00514153      -0.00207882       0.05028744
Pt       7.01803502       4.05186406      24.58417406        2       0.00240162       0.00024283       0.02560251
Pt       2.80721280       6.48298341      24.58417369        2       0.00025658      -0.00427510       0.05778235
Pt       5.61442796       6.48298324      24.58417387        2      -0.00853040      -0.00153687       0.03791746
Pt       8.42164221       6.48298340      24.58417380        2       0.00774157      -0.00096618       0.03738098
Pt       0.00071080      -0.00315741      26.92139312        1      -0.00029758       0.00972567      -0.02251387
Pt       2.80851477       0.00081376      26.91114961        1       0.00033791      -0.00134737       0.01664048
Pt       5.61552162      -0.00356526      26.92070426        1       0.00034732       0.00956016      -0.01994282
Pt       1.40445566       2.43120568      26.92121421        1      -0.00057745      -0.00894611      -0.02407735
Pt       4.21160491       2.43176006      26.92032634        1      -0.00058899      -0.00939115      -0.02107414
Pt       7.01878784       2.42597863      26.91112099        1      -0.00130751       0.00696998       0.01801350
Pt       2.80796752       4.86100557      26.92266714        1      -0.00000064      -0.00041080      -0.02824914
Pt       5.61590028       4.86070952      26.91630932        1      -0.01172893       0.00170894      -0.00156314
Pt       8.42206647       4.85982005      26.91700890        1       0.01066480       0.00258218      -0.00339829
N        7.01250451       4.87884823      30.84398158        0      -0.00055265      -0.00835707       0.00919289
H        7.01689227       3.90377693      30.51815828        0       0.00189045      -0.00630003      -0.00094464
H        6.19412231       5.32581232      30.41048020        0       0.01127134       0.00759003      -0.00449882
H        7.84279855       5.32607172      30.43400248        0      -0.01273835       0.00419899      -0.00576752
