40
Lattice="8.421641763931781 0.0 0.0 4.2108208819658905 7.293355709136913 0.0 0.0 0.0 46.87624170604845" Properties=species:S:1:pos:R:3:tags:I:1:forces:R:3 charge=0 spin=0 energy=-206.41953159293297 free_energy=-206.41953159293297 stress="0.010374143719673157 2.5405639462405816e-05 1.494127354817465e-05 2.5405639462405816e-05 0.01055907178670168 -1.5368423191830516e-05 1.494127354817465e-05 -1.5368423191830516e-05 -0.00017528285388834774" pbc="T T T"
Pt      -0.00000003       0.00000022      19.95723434        4      -0.00137459       0.00341621       0.01841072
Pt       2.80721396      -0.00000018      19.95723452        4      -0.00124574       0.00284130       0.01821846
Pt       5.61442778      -0.00000004      19.95723454        4      -0.00079627       0.00295336       0.01847317
Pt       1.40360719       2.43111838      19.95723440        4      -0.00132424       0.00317967       0.01743704
Pt       4.21082079       2.43111832      19.95723449        4      -0.00067431       0.00283237       0.01748000
Pt       7.01803484       2.43111842      19.95723441        4      -0.00106699       0.00291764       0.01842537
Pt       2.80721406       4.86223725      19.95723409        4      -0.00083177       0.00363044       0.01835716
Pt       5.61442803       4.86223733      19.95723425        4      -0.00076205       0.00320090       0.01887749
Pt       8.42164141       4.86223723      19.95723442        4      -0.00102506       0.00322758       0.01853477
Pt       1.40360730       0.81037260      22.29206788        3      -0.00207928       0.01120463      -0.05067975
Pt       4.21082126       0.81037254      22.29206791        3      -0.00360237       0.01244264      -0.05263526
Pt       7.01803479       0.81037259      22.29206783        3      -0.00237596       0.01320367      -0.05064339
Pt       2.80721452       3.24149125      22.29206775        3      -0.00162092       0.01450595      -0.04877952
Pt       5.61442760       3.24149123      22.29206789        3      -0.00242971       0.01337395      -0.05097339
Pt       8.42164156       3.24149116      22.29206803        3      -0.00277088       0.01478240      -0.05092940
Pt       4.21082093       5.67260998      22.29206800        3      -0.00273387       0.01212092      -0.05419773
Pt       7.01803487       5.67261039      22.29206775        3      -0.00282878       0.01292687      -0.05126198
Pt       9.82524824       5.67261062      22.29206803        3      -0.00372334       0.01274087      -0.05269217
Pt      -0.00000058       1.62074570      24.58417378        2       0.01180274      -0.03767278       0.02859783
Pt       2.80721444       1.62074548      24.58417392        2       0.00892939      -0.03462499       0.02413386
Pt       5.61442778       1.62074537      24.58417373        2       0.01028336      -0.03790400       0.02884640
Pt       1.40360636       4.05186440      24.58417384        2       0.00904599      -0.04053492       0.02466287
Pt       4.21082088       4.05186399      24.58417380        2       0.01257395      -0.03874552       0.03008077
Pt       7.01803502       4.05186406      24.58417406        2       0.00744092      -0.04060249       0.00771960
Pt       2.80721280       6.48298341      24.58417369        2       0.00770599      -0.03394122       0.03407963
Pt       5.61442796       6.48298324      24.58417387        2       0.00454518      -0.03652179       0.02410682
Pt       8.42164221       6.48298340      24.58417380        2       0.01419067      -0.03260459       0.02259831
Pt       0.01161735      -0.04984634      26.91589732        1      -0.01399793       0.02190546       0.00348116
Pt       2.81875276      -0.05159625      26.91459625        1      -0.00717744       0.04016043       0.01023920
Pt       5.62534605      -0.05014414      26.91704228        1       0.00072013       0.02031658      -0.00210477
Pt       1.41347952       2.37930647      26.91572897        1       0.00151788       0.02390216       0.00250616
Pt       4.22228611       2.37895114      26.91472497        1      -0.01079267       0.02935294       0.00648160
Pt       7.02849007       2.38299803      26.91541101        1      -0.00834061      -0.00248234       0.00752074
Pt       2.81719056       4.81206404      26.91242377        1      -0.00565234       0.01924524       0.01143979
Pt       5.62710299       4.81285311      26.91508391        1      -0.03367323       0.01545390       0.01532303
Pt       8.42973282       4.81172278      26.91337847        1       0.02543952       0.01971094       0.01122208
N        7.09362766       4.90114080      30.81364065        0      -0.01447512       0.00322879       0.01131914
H        7.44774418       5.73216817      30.32173350        0       0.01702606      -0.02948185      -0.00317743
H        7.44760762       4.08144134      30.30280278        0       0.00893842       0.03330500      -0.00113984
H        6.07353186       4.90379346      30.68651574        0      -0.01278444      -0.00696635       0.00064151
