40
Lattice="8.421641763931781 0.0 0.0 4.2108208819658905 7.293355709136913 0.0 0.0 0.0 46.87624170604845" Properties=species:S:1:pos:R:3:tags:I:1:forces:R:3 charge=0 spin=0 energy=-206.42383075675133 free_energy=-206.42383075675133 stress="0.0104501498863101 6.126431344455341e-06 -2.211038690802525e-06 6.126431344455341e-06 0.010525757446885109 -1.3763364222540986e-05 -2.211038690802525e-06 -1.3763364222540986e-05 -0.00010023978393292055" pbc="T T T"
Pt      -0.00000003       0.00000022      19.95723434        4      -0.00076729       0.00193922       0.01854450
Pt       2.80721396      -0.00000018      19.95723452        4      -0.00045910       0.00204742       0.01859564
Pt       5.61442778      -0.00000004      19.95723454        4       0.00015444       0.00165490       0.01854647
Pt       1.40360719       2.43111838      19.95723440        4       0.00014602       0.00232406       0.01717701
Pt       4.21082079       2.43111832      19.95723449        4      -0.00074316       0.00186115       0.01717304
Pt       7.01803484       2.43111842      19.95723441        4      -0.00039379       0.00203224       0.01875130
Pt       2.80721406       4.86223725      19.95723409        4       0.00011527       0.00221783       0.01844811
Pt       5.61442803       4.86223733      19.95723425        4      -0.00001975       0.00207223       0.01882741
Pt       8.42164141       4.86223723      19.95723442        4      -0.00037210       0.00213964       0.01886761
Pt       1.40360730       0.81037260      22.29206788        3      -0.00023993       0.00702222      -0.05207064
Pt       4.21082126       0.81037254      22.29206791        3      -0.00001977       0.00778055      -0.05252818
Pt       7.01803479       0.81037259      22.29206783        3       0.00052602       0.00851113      -0.05233430
Pt       2.80721452       3.24149125      22.29206775        3       0.00016440       0.00942924      -0.04581682
Pt       5.61442760       3.24149123      22.29206789        3       0.00075265       0.00815614      -0.05256952
Pt       8.42164156       3.24149116      22.29206803        3       0.00011765       0.00907098      -0.05298932
Pt       4.21082093       5.67260998      22.29206800        3      -0.00005775       0.00731913      -0.05350586
Pt       7.01803487       5.67261039      22.29206775        3      -0.00011317       0.00762292      -0.04892353
Pt       9.82524824       5.67261062      22.29206803        3      -0.00047761       0.00801231      -0.05312689
Pt      -0.00000058       1.62074570      24.58417378        2       0.00237531      -0.02286605       0.02964534
Pt       2.80721444       1.62074548      24.58417392        2       0.00054579      -0.01953128       0.03197653
Pt       5.61442778       1.62074537      24.58417373        2       0.00036375      -0.02277122       0.02952736
Pt       1.40360636       4.05186440      24.58417384        2       0.00205632      -0.02153800       0.03738999
Pt       4.21082088       4.05186399      24.58417380        2      -0.00153686      -0.02179423       0.03645632
Pt       7.01803502       4.05186406      24.58417406        2       0.00085532      -0.02106931       0.03505966
Pt       2.80721280       6.48298341      24.58417369        2      -0.00036544      -0.02695756       0.04232370
Pt       5.61442796       6.48298324      24.58417387        2       0.00271246      -0.02685776       0.03437816
Pt       8.42164221       6.48298340      24.58417380        2      -0.00380630      -0.02506374       0.03329355
Pt       0.00248028      -0.03160759      26.91482490        1      -0.01166809       0.01208844       0.00566811
Pt       2.80789926      -0.02898280      26.91681208        1      -0.00034706       0.00304786      -0.00755259
Pt       5.61257361      -0.03211673      26.91474689        1       0.01233956       0.01240241       0.00619424
Pt       1.40109910       2.39923277      26.91587019        1       0.01672770       0.01082924       0.00300182
Pt       4.21356307       2.40009532      26.91538370        1      -0.01711892       0.00854375       0.00428646
Pt       7.01786047       2.39783578      26.91647819        1      -0.00045627       0.01706362      -0.00573029
Pt       2.80745978       4.82998010      26.91930296        1      -0.00098052       0.01505625      -0.01462010
Pt       5.61099337       4.83018261      26.91747762        1       0.01753590       0.01920807      -0.00559803
Pt       8.42536895       4.82995710      26.91721472        1      -0.01760348       0.01630192      -0.00543058
N        7.02231685       4.86685227      30.73449221        0       0.00012155       0.01079804      -0.03850710
H        7.01848841       5.81772365      30.34314079        0      -0.00060610       0.02394158       0.02054561
H        7.84501129       4.39633356      30.33383827        0      -0.02619187      -0.01665386       0.01394209
H        6.19509347       4.39427029      30.34578472        0       0.02673415      -0.01539148       0.01268362
