40
Lattice="8.421641763931781 0.0 0.0 4.2108208819658905 7.293355709136913 0.0 0.0 0.0 46.87624170604845" Properties=species:S:1:pos:R:3:tags:I:1:forces:R:3 charge=0 spin=0 energy=-206.42440677603844 free_energy=-206.42440677603844 stress="0.010450790636241436 1.0804140401887707e-05 -6.519167527585523e-06 1.0804140401887707e-05 0.0104810930788517 -5.767056450167729e-07 -6.519167527585523e-06 -5.767056450167729e-07 -0.00012491691450122744" pbc="T T T"
Pt      -0.00000003       0.00000022      19.95723434        4      -0.00043032       0.00054614       0.01847243
Pt       2.80721396      -0.00000018      19.95723452        4      -0.00042839      -0.00004985       0.01836549
Pt       5.61442778      -0.00000004      19.95723454        4      -0.00028194       0.00005818       0.01834944
Pt       1.40360719       2.43111838      19.95723440        4      -0.00059488       0.00028709       0.01808241
Pt       4.21082079       2.43111832      19.95723449        4       0.00001075      -0.00000654       0.01761074
Pt       7.01803484       2.43111842      19.95723441        4      -0.00034364       0.00000416       0.01830852
Pt       2.80721406       4.86223725      19.95723409        4       0.00006908       0.00067047       0.01809473
Pt       5.61442803       4.86223733      19.95723425        4      -0.00018555       0.00016163       0.01856488
Pt       8.42164141       4.86223723      19.95723442        4      -0.00022083       0.00021193       0.01880616
Pt       1.40360730       0.81037260      22.29206788        3      -0.00000546      -0.00010514      -0.05113821
Pt       4.21082126       0.81037254      22.29206791        3      -0.00163907      -0.00048476      -0.05085294
Pt       7.01803479       0.81037259      22.29206783        3      -0.00079416       0.00149696      -0.05140207
Pt       2.80721452       3.24149125      22.29206775        3      -0.00162431       0.00252512      -0.04961276
Pt       5.61442760       3.24149123      22.29206789        3      -0.00006780       0.00195205      -0.05134726
Pt       8.42164156       3.24149116      22.29206803        3      -0.00078777       0.00218879      -0.05110460
Pt       4.21082093       5.67260998      22.29206800        3      -0.00025294      -0.00011606      -0.05284354
Pt       7.01803487       5.67261039      22.29206775        3      -0.00121792       0.00065766      -0.05253683
Pt       9.82524824       5.67261062      22.29206803        3      -0.00116790       0.00062681      -0.05296806
Pt      -0.00000058       1.62074570      24.58417378        2       0.00711104      -0.00411376       0.03184386
Pt       2.80721444       1.62074548      24.58417392        2       0.00216574       0.00009114       0.02393293
Pt       5.61442778       1.62074537      24.58417373        2      -0.00036091      -0.00277328       0.03136773
Pt       1.40360636       4.05186440      24.58417384        2      -0.00056305      -0.00439735       0.03257352
Pt       4.21082088       4.05186399      24.58417380        2       0.00060453      -0.00940931       0.02777238
Pt       7.01803502       4.05186406      24.58417406        2       0.00604422      -0.00247859       0.02660478
Pt       2.80721280       6.48298341      24.58417369        2       0.00154098      -0.00075681       0.03279585
Pt       5.61442796       6.48298324      24.58417387        2      -0.00321715       0.00100718       0.03326492
Pt       8.42164221       6.48298340      24.58417380        2       0.00458640      -0.00239193       0.03599285
Pt       0.00020407      -0.00100127      26.91674038        1       0.01574873      -0.01056192      -0.00353025
Pt       2.81015348      -0.00296832      26.91455404        1      -0.00145386      -0.00677207       0.00675865
Pt       5.61954011      -0.00349529      26.91652768        1      -0.01457282      -0.00170772      -0.00178659
Pt       1.40741816       2.42662323      26.91559867        1      -0.00617097       0.00144692       0.00032593
Pt       4.21305577       2.42384748      26.91549700        1       0.00416211       0.01634568      -0.00033940
Pt       7.02092108       2.42829779      26.91417907        1      -0.00376303       0.00303465       0.00920044
Pt       2.81013734       4.85797407      26.91223416        1       0.00405616       0.00330583       0.00924633
Pt       5.61606653       4.85932113      26.91338355        1      -0.00248258       0.00307580       0.00209442
Pt       8.42502138       4.85817618      26.91662232        1      -0.00349919       0.00607954       0.00149838
N        7.05213375       4.95892652      31.00580545        0      -0.00136594       0.00870273       0.01026592
H        6.78365019       5.76038642      30.42033579        0      -0.01755610       0.01089170      -0.00921978
H        8.07928824       4.97065561      31.04830866        0       0.01486179      -0.01576300       0.00094888
H        6.79524742       4.11777894      30.47264112        0       0.00408743      -0.00348006      -0.00246019
