40
Lattice="8.421641763931781 0.0 0.0 4.2108208819658905 7.293355709136913 0.0 0.0 0.0 46.87624170604845" Properties=species:S:1:pos:R:3:tags:I:1:forces:R:3 charge=0 spin=0 energy=-206.42434764823082 free_energy=-206.42434764823082 stress="0.010458145290613174 7.1057493187254295e-06 -2.421938233965193e-06 7.1057493187254295e-06 0.010513543151319027 -9.323161975771654e-06 -2.421938233965193e-06 -9.323161975771654e-06 -9.87295206869021e-05" pbc="T T T"
Pt      -0.00000003       0.00000022      19.95723434        4      -0.00084950       0.00157725       0.01850625
Pt       2.80721396      -0.00000018      19.95723452        4      -0.00052480       0.00157283       0.01856585
Pt       5.61442778      -0.00000004      19.95723454        4       0.00028694       0.00126707       0.01855644
Pt       1.40360719       2.43111838      19.95723440        4       0.00003408       0.00181715       0.01719605
Pt       4.21082079       2.43111832      19.95723449        4      -0.00058771       0.00140818       0.01729620
Pt       7.01803484       2.43111842      19.95723441        4      -0.00040181       0.00148373       0.01870218
Pt       2.80721406       4.86223725      19.95723409        4       0.00003658       0.00183270       0.01851768
Pt       5.61442803       4.86223733      19.95723425        4       0.00000507       0.00163309       0.01887497
Pt       8.42164141       4.86223723      19.95723442        4      -0.00036079       0.00165365       0.01881396
Pt       1.40360730       0.81037260      22.29206788        3      -0.00022618       0.00531929      -0.05183265
Pt       4.21082126       0.81037254      22.29206791        3      -0.00061123       0.00574546      -0.05284117
Pt       7.01803479       0.81037259      22.29206783        3       0.00026784       0.00709696      -0.05165429
Pt       2.80721452       3.24149125      22.29206775        3      -0.00007921       0.00762619      -0.04566535
Pt       5.61442760       3.24149123      22.29206789        3       0.00068812       0.00680099      -0.05209961
Pt       8.42164156       3.24149116      22.29206803        3      -0.00024862       0.00759825      -0.05364453
Pt       4.21082093       5.67260998      22.29206800        3      -0.00013784       0.00573652      -0.05333761
Pt       7.01803487       5.67261039      22.29206775        3      -0.00031398       0.00612452      -0.04981667
Pt       9.82524824       5.67261062      22.29206803        3      -0.00113555       0.00648638      -0.05282594
Pt      -0.00000058       1.62074570      24.58417378        2       0.00266554      -0.01963309       0.02994455
Pt       2.80721444       1.62074548      24.58417392        2       0.00195626      -0.01482540       0.03207570
Pt       5.61442778       1.62074537      24.58417373        2       0.00061490      -0.01758490       0.02938782
Pt       1.40360636       4.05186440      24.58417384        2       0.00423128      -0.01738027       0.03679096
Pt       4.21082088       4.05186399      24.58417380        2      -0.00040135      -0.01681709       0.03821463
Pt       7.01803502       4.05186406      24.58417406        2       0.00016268      -0.01714239       0.03381810
Pt       2.80721280       6.48298341      24.58417369        2       0.00078746      -0.02240104       0.04282248
Pt       5.61442796       6.48298324      24.58417387        2       0.00215789      -0.02282237       0.03569066
Pt       8.42164221       6.48298340      24.58417380        2      -0.00285301      -0.01929271       0.03137524
Pt       0.00336194      -0.02540056      26.91553795        1      -0.01282317       0.01105449       0.00347281
Pt       2.80866380      -0.02290656      26.91646521        1      -0.00072150       0.00300527      -0.00681461
Pt       5.61358754      -0.02555195      26.91438192        1       0.01315581       0.01004362       0.00676784
Pt       1.40173593       2.40548265      26.91527813        1       0.01796159       0.01014316       0.00368362
Pt       4.21466311       2.40667457      26.91545941        1      -0.01793626       0.00692162       0.00293167
Pt       7.01875102       2.40432299      26.91628183        1      -0.00141198       0.01312262      -0.00415998
Pt       2.80827784       4.83673558      26.91938739        1      -0.00233609       0.01109686      -0.01562992
Pt       5.61230155       4.83663273      26.91792536        1       0.01366359       0.01625949      -0.00584941
Pt       8.42579722       4.83641172      26.91614544        1      -0.01444437       0.01326276      -0.00356318
N        7.03315286       4.87240220      30.74375632        0       0.00704548      -0.00012235      -0.03650834
H        7.48881635       4.05990502      30.30790513        0      -0.01436069      -0.02440689       0.01808903
H        6.06187054       4.87800965      30.40389644        0       0.02485871       0.00139016       0.00880653
H        7.48774824       5.70187698      30.33995962        0      -0.01781409       0.02334807       0.01734188
