40
Lattice="8.421641763931781 0.0 0.0 4.2108208819658905 7.293355709136913 0.0 0.0 0.0 46.87624170604845" Properties=species:S:1:pos:R:3:tags:I:1:forces:R:3 charge=0 spin=0 energy=-206.4251372905648 free_energy=-206.4251372905648 stress="0.010473886504769325 4.104153504158603e-06 -1.1125231367259403e-06 4.104153504158603e-06 0.010501492768526077 -2.6540035378275206e-06 -1.1125231367259403e-06 -2.6540035378275206e-06 -9.136880544247106e-05" pbc="T T T"
Pt      -0.00000003       0.00000022      19.95723434        4      -0.00084837       0.00097124       0.01851174
Pt       2.80721396      -0.00000018      19.95723452        4      -0.00034674       0.00096567       0.01861430
Pt       5.61442778      -0.00000004      19.95723454        4       0.00039562       0.00061328       0.01853284
Pt       1.40360719       2.43111838      19.95723440        4       0.00003774       0.00112350       0.01726140
Pt       4.21082079       2.43111832      19.95723449        4      -0.00044568       0.00071684       0.01732387
Pt       7.01803484       2.43111842      19.95723441        4      -0.00026894       0.00078361       0.01868203
Pt       2.80721406       4.86223725      19.95723409        4       0.00015663       0.00122624       0.01851471
Pt       5.61442803       4.86223733      19.95723425        4       0.00002804       0.00097628       0.01886566
Pt       8.42164141       4.86223723      19.95723442        4      -0.00023123       0.00099190       0.01887052
Pt       1.40360730       0.81037260      22.29206788        3       0.00003347       0.00271552      -0.05187081
Pt       4.21082126       0.81037254      22.29206791        3      -0.00060922       0.00328596      -0.05238216
Pt       7.01803479       0.81037259      22.29206783        3       0.00022701       0.00473138      -0.05124517
Pt       2.80721452       3.24149125      22.29206775        3      -0.00008924       0.00495835      -0.04568228
Pt       5.61442760       3.24149123      22.29206789        3       0.00073708       0.00452738      -0.05291286
Pt       8.42164156       3.24149116      22.29206803        3      -0.00022465       0.00528660      -0.05346294
Pt       4.21082093       5.67260998      22.29206800        3       0.00044586       0.00337094      -0.05295291
Pt       7.01803487       5.67261039      22.29206775        3      -0.00028201       0.00368020      -0.05080958
Pt       9.82524824       5.67261062      22.29206803        3      -0.00120095       0.00395925      -0.05254763
Pt      -0.00000058       1.62074570      24.58417378        2       0.00296586      -0.01258773       0.03034410
Pt       2.80721444       1.62074548      24.58417392        2       0.00052871      -0.00735670       0.03145789
Pt       5.61442778       1.62074537      24.58417373        2       0.00007910      -0.01136809       0.03047260
Pt       1.40360636       4.05186440      24.58417384        2       0.00220993      -0.01004031       0.03868630
Pt       4.21082088       4.05186399      24.58417380        2      -0.00187834      -0.01036359       0.03753751
Pt       7.01803502       4.05186406      24.58417406        2       0.00203524      -0.00962088       0.03586760
Pt       2.80721280       6.48298341      24.58417369        2      -0.00020500      -0.01489303       0.04295278
Pt       5.61442796       6.48298324      24.58417387        2       0.00205636      -0.01532756       0.03565802
Pt       8.42164221       6.48298340      24.58417380        2      -0.00300464      -0.01338921       0.03446183
Pt       0.00258134      -0.01550893      26.91543508        1      -0.01156964       0.00771085       0.00346687
Pt       2.80825363      -0.01283212      26.91626614        1      -0.00003553      -0.00401238      -0.00686266
Pt       5.61321751      -0.01608305      26.91518981        1       0.01172898       0.00881912       0.00422333
Pt       1.40125468       2.41573445      26.91538390        1       0.01585834       0.00507366       0.00214864
Pt       4.21408897       2.41630884      26.91507273        1      -0.01668939       0.00411549       0.00325915
Pt       7.01826571       2.41364217      26.91595826        1      -0.00007810       0.01214043      -0.00299802
Pt       2.80775346       4.84670863      26.91922629        1       0.00023080       0.00600540      -0.01555844
Pt       5.61176254       4.84637791      26.91727012        1       0.01555865       0.01282165      -0.00655607
Pt       8.42561924       4.84620712      26.91739377        1      -0.01722210       0.00986146      -0.00657681
N        7.01398291       4.87202855      30.75550334        0      -0.00016043      -0.01016408      -0.03834116
H        7.84174988       5.34857175      30.37287492        0      -0.02664840       0.01583868       0.01160314
H        7.01680961       3.92658739      30.35116802        0       0.00041008      -0.02473450       0.02047352
H        6.19205190       5.34864544      30.36054947        0       0.02631520       0.01658717       0.01296923
