40
Lattice="8.421641763931781 0.0 0.0 4.2108208819658905 7.293355709136913 0.0 0.0 0.0 46.87624170604845" Properties=species:S:1:pos:R:3:tags:I:1:forces:R:3 charge=0 spin=0 energy=-206.42297626456383 free_energy=-206.42297626456383 stress="0.010540448129177094 1.8337245819566306e-06 -3.9643541072109656e-07 1.8337245819566306e-06 0.010558043606579304 -6.185360689414665e-06 -3.9643541072109656e-07 -6.185360689414665e-06 -1.6015681012504501e-06" pbc="T T T"
Pt      -0.00000003       0.00000022      19.95723434        4      -0.00054678       0.00047579       0.01834448
Pt       2.80721396      -0.00000018      19.95723452        4      -0.00019375      -0.00004267       0.01889316
Pt       5.61442778      -0.00000004      19.95723454        4       0.00046665       0.00014365       0.01844681
Pt       1.40360719       2.43111838      19.95723440        4      -0.00053422       0.00049939       0.01778297
Pt       4.21082079       2.43111832      19.95723449        4       0.00018811       0.00008016       0.01779285
Pt       7.01803484       2.43111842      19.95723441        4      -0.00026488       0.00048246       0.01860599
Pt       2.80721406       4.86223725      19.95723409        4       0.00033458       0.00050165       0.01854471
Pt       5.61442803       4.86223733      19.95723425        4       0.00020005       0.00028338       0.01845440
Pt       8.42164141       4.86223723      19.95723442        4      -0.00010965       0.00039174       0.01854181
Pt       1.40360730       0.81037260      22.29206788        3       0.00036345       0.00036547      -0.05394709
Pt       4.21082126       0.81037254      22.29206791        3      -0.00095674       0.00051701      -0.05390396
Pt       7.01803479       0.81037259      22.29206783        3       0.00011201       0.00223833      -0.05218410
Pt       2.80721452       3.24149125      22.29206775        3       0.00011311       0.00076858      -0.04714296
Pt       5.61442760       3.24149123      22.29206789        3       0.00069499       0.00201845      -0.05116959
Pt       8.42164156       3.24149116      22.29206803        3       0.00002196       0.00245881      -0.05136987
Pt       4.21082093       5.67260998      22.29206800        3       0.00065156       0.00123423      -0.05238555
Pt       7.01803487       5.67261039      22.29206775        3      -0.00031249       0.00180116      -0.05125156
Pt       9.82524824       5.67261062      22.29206803        3      -0.00083115       0.00172137      -0.05164605
Pt      -0.00000058       1.62074570      24.58417378        2      -0.00249455       0.00123034       0.05270141
Pt       2.80721444       1.62074548      24.58417392        2       0.00064148       0.00414975       0.05463432
Pt       5.61442778       1.62074537      24.58417373        2       0.00388777       0.00345403       0.05478097
Pt       1.40360636       4.05186440      24.58417384        2       0.00646010      -0.00327865       0.05024136
Pt       4.21082088       4.05186399      24.58417380        2      -0.00728927      -0.00554227       0.05022959
Pt       7.01803502       4.05186406      24.58417406        2       0.00205750      -0.01544198       0.03736949
Pt       2.80721280       6.48298341      24.58417369        2      -0.00180658      -0.01717833       0.04880858
Pt       5.61442796       6.48298324      24.58417387        2       0.00266808      -0.00382267       0.03182736
Pt       8.42164221       6.48298340      24.58417380        2      -0.00321543      -0.00128377       0.03299988
Pt       0.00113583      -0.00839666      26.91311228        1      -0.01035185       0.01935988       0.00812737
Pt       2.80707716      -0.00269891      26.91836387        1       0.00271018       0.00667129      -0.01287692
Pt       5.61371352      -0.00831865      26.91374792        1       0.01038592       0.01757026       0.00564543
Pt       1.39955140       2.42782788      26.91938167        1       0.02085430      -0.01242432      -0.01620182
Pt       4.21521672       2.42711382      26.92036307        1      -0.02119851      -0.00937859      -0.01973960
Pt       7.01835457       2.42650816      26.92589378        1      -0.00228628      -0.01306042      -0.04062226
Pt       2.80733861       4.85207757      26.92456752        1       0.00019512       0.01817545      -0.04387995
Pt       5.61677964       4.85716488      26.91555228        1      -0.01951087      -0.00010892       0.00697116
Pt       8.41924800       4.85809354      26.91601509        1       0.01870033      -0.00581093       0.00455173
N        7.02037869       5.21954482      30.99221763        0      -0.00158805       0.01890383      -0.01816857
H        7.02189449       4.34905063      30.44419055        0       0.00129263      -0.00284066       0.00388648
H        6.20182008       5.75581265      30.67334858        0       0.03303307      -0.00718493       0.00493604
H        7.84913306       5.74928913      30.68914684        0      -0.03254189      -0.00809714       0.00337165
