40
Lattice="8.421641763931781 0.0 0.0 4.2108208819658905 7.293355709136913 0.0 0.0 0.0 46.87624170604845" Properties=species:S:1:pos:R:3:tags:I:1:forces:R:3 charge=0 spin=0 energy=-206.41990352591637 free_energy=-206.41990352591637 stress="0.010339546948671341 9.260160368285142e-06 -4.1928586824724334e-07 9.260160368285142e-06 0.010457942262291908 -1.1814600838988554e-05 -4.1928586824724334e-07 -1.1814600838988554e-05 -0.0002602714521344751" pbc="T T T"
Pt      -0.00000003       0.00000022      19.95723434        4      -0.00099890       0.00255244       0.01851392
Pt       2.80721396      -0.00000018      19.95723452        4      -0.00060568       0.00211266       0.01817906
Pt       5.61442778      -0.00000004      19.95723454        4      -0.00005996       0.00217608       0.01842522
Pt       1.40360719       2.43111838      19.95723440        4      -0.00022631       0.00243955       0.01730718
Pt       4.21082079       2.43111832      19.95723449        4      -0.00054013       0.00215364       0.01723335
Pt       7.01803484       2.43111842      19.95723441        4      -0.00051839       0.00229765       0.01860387
Pt       2.80721406       4.86223725      19.95723409        4      -0.00011622       0.00309098       0.01826891
Pt       5.61442803       4.86223733      19.95723425        4       0.00001196       0.00261899       0.01867650
Pt       8.42164141       4.86223723      19.95723442        4      -0.00073798       0.00259633       0.01873195
Pt       1.40360730       0.81037260      22.29206788        3       0.00007359       0.00841059      -0.05109654
Pt       4.21082126       0.81037254      22.29206791        3      -0.00069668       0.00913182      -0.05166969
Pt       7.01803479       0.81037259      22.29206783        3       0.00006189       0.00980449      -0.04929061
Pt       2.80721452       3.24149125      22.29206775        3      -0.00022824       0.01200081      -0.05013076
Pt       5.61442760       3.24149123      22.29206789        3      -0.00061838       0.01023053      -0.05136935
Pt       8.42164156       3.24149116      22.29206803        3       0.00035717       0.01131812      -0.05148289
Pt       4.21082093       5.67260998      22.29206800        3      -0.00063539       0.00850933      -0.05413200
Pt       7.01803487       5.67261039      22.29206775        3      -0.00056709       0.00954593      -0.04906119
Pt       9.82524824       5.67261062      22.29206803        3      -0.00055386       0.00922471      -0.05387142
Pt      -0.00000058       1.62074570      24.58417378        2      -0.00415259      -0.03062309       0.01872315
Pt       2.80721444       1.62074548      24.58417392        2       0.00170716      -0.02909374       0.01431321
Pt       5.61442778       1.62074537      24.58417373        2       0.01008466      -0.03119070       0.01718949
Pt       1.40360636       4.05186440      24.58417384        2      -0.00398146      -0.03089884       0.00655810
Pt       4.21082088       4.05186399      24.58417380        2       0.00684218      -0.03053385       0.00595383
Pt       7.01803502       4.05186406      24.58417406        2       0.00292765      -0.02829660       0.00704664
Pt       2.80721280       6.48298341      24.58417369        2       0.00128052      -0.01819609       0.02264834
Pt       5.61442796       6.48298324      24.58417387        2       0.00066338      -0.02803944       0.01846556
Pt       8.42164221       6.48298340      24.58417380        2       0.00026390      -0.02711235       0.01779655
Pt       0.00393395      -0.03748757      26.91387103        1      -0.01750299       0.02234089       0.01086486
Pt       2.80940008      -0.03887065      26.91427705        1      -0.00088867       0.03176187       0.00725736
Pt       5.61417429      -0.03824716      26.91366544        1       0.01633604       0.02310472       0.01227567
Pt       1.40141026       2.39208323      26.91036475        1       0.02416535       0.01302974       0.02529997
Pt       4.21641152       2.39265409      26.90961185        1      -0.02720124       0.01227178       0.02771271
Pt       7.01917514       2.39785097      26.91564630        1       0.00069033      -0.01961736       0.00204749
Pt       2.80902168       4.82449792      26.90624904        1      -0.00158963       0.01622281       0.04143553
Pt       5.61471368       4.82461410      26.91316280        1      -0.00113140       0.02202570       0.01496796
Pt       8.42526694       4.82396173      26.91353607        1      -0.00150069       0.02087696       0.01402659
N        7.01816586       4.74427106      30.73422202        0      -0.00037852       0.00764197       0.02503390
H        7.84186465       4.19357520      30.46149198        0       0.00805672      -0.01641149      -0.00636945
H        6.19346655       4.19061329      30.47057906        0      -0.00843513      -0.01727675      -0.00658451
H        7.01331177       5.57750509      30.13258553        0       0.00034313       0.02779916       0.00150140
