40
Lattice="8.421641763931781 0.0 0.0 4.2108208819658905 7.293355709136913 0.0 0.0 0.0 46.87624170604845" Properties=species:S:1:pos:R:3:tags:I:1:forces:R:3 charge=0 spin=0 energy=-206.42115283927086 free_energy=-206.42115283927086 stress="0.010377470403909683 9.937616596289445e-06 -1.7520633264211938e-06 9.937616596289445e-06 0.010540610179305077 -1.6499459889018908e-05 -1.7520633264211938e-06 -1.6499459889018908e-05 -0.00017751374980434775" pbc="T T T"
Pt      -0.00000003       0.00000022      19.95723434        4      -0.00083667       0.00318580       0.01843097
Pt       2.80721396      -0.00000018      19.95723452        4      -0.00065185       0.00295658       0.01838159
Pt       5.61442778      -0.00000004      19.95723454        4      -0.00023474       0.00287467       0.01839609
Pt       1.40360719       2.43111838      19.95723440        4      -0.00036682       0.00308165       0.01729809
Pt       4.21082079       2.43111832      19.95723449        4      -0.00049155       0.00271044       0.01724465
Pt       7.01803484       2.43111842      19.95723441        4      -0.00054717       0.00289309       0.01861787
Pt       2.80721406       4.86223725      19.95723409        4      -0.00007423       0.00342591       0.01845873
Pt       5.61442803       4.86223733      19.95723425        4      -0.00025200       0.00302173       0.01876695
Pt       8.42164141       4.86223723      19.95723442        4      -0.00051505       0.00307086       0.01880822
Pt       1.40360730       0.81037260      22.29206788        3      -0.00000773       0.01040338      -0.05099073
Pt       4.21082126       0.81037254      22.29206791        3      -0.00038845       0.01125337      -0.05145216
Pt       7.01803479       0.81037259      22.29206783        3       0.00031126       0.01199741      -0.05107747
Pt       2.80721452       3.24149125      22.29206775        3      -0.00003793       0.01416464      -0.04807839
Pt       5.61442760       3.24149123      22.29206789        3       0.00010388       0.01257004      -0.05105655
Pt       8.42164156       3.24149116      22.29206803        3       0.00029482       0.01357929      -0.05138166
Pt       4.21082093       5.67260998      22.29206800        3      -0.00044612       0.01101552      -0.05429034
Pt       7.01803487       5.67261039      22.29206775        3      -0.00035939       0.01175594      -0.05050321
Pt       9.82524824       5.67261062      22.29206803        3      -0.00040840       0.01169060      -0.05405346
Pt      -0.00000058       1.62074570      24.58417378        2       0.00058362      -0.03382973       0.02237532
Pt       2.80721444       1.62074548      24.58417392        2       0.00153119      -0.03372066       0.02135044
Pt       5.61442778       1.62074537      24.58417373        2       0.00398080      -0.03397889       0.02156147
Pt       1.40360636       4.05186440      24.58417384        2       0.00027735      -0.03562980       0.02623034
Pt       4.21082088       4.05186399      24.58417380        2       0.00229335      -0.03556106       0.02637143
Pt       7.01803502       4.05186406      24.58417406        2       0.00165022      -0.03740832       0.01380318
Pt       2.80721280       6.48298341      24.58417369        2       0.00046476      -0.03341076       0.03399185
Pt       5.61442796       6.48298324      24.58417387        2       0.00034449      -0.03325665       0.02866196
Pt       8.42164221       6.48298340      24.58417380        2       0.00001846      -0.03182469       0.02825795
Pt       0.00175151      -0.04463162      26.91509593        1      -0.00519968       0.00488545       0.00719992
Pt       2.80880705      -0.04561957      26.91721791        1      -0.00038442       0.01858420      -0.00432541
Pt       5.61535065      -0.04528592      26.91501953        1       0.00351722       0.00502965       0.00759765
Pt       1.40260554       2.38167495      26.91391220        1       0.01427602       0.03089429       0.01310808
Pt       4.21394484       2.38232393      26.91345877        1      -0.01602529       0.02948412       0.01421542
Pt       7.01854068       2.38481232      26.91650073        1       0.00024353       0.01234216       0.00141980
Pt       2.80835883       4.81461239      26.91348005        1      -0.00136323       0.02285781       0.00682668
Pt       5.61566574       4.81572819      26.91410932        1      -0.01288099       0.02310111       0.01172338
Pt       8.42260101       4.81499685      26.91387283        1       0.01186429       0.02279373       0.01236875
N        7.01784651       4.86662775      30.76941899        0       0.00036358      -0.00158460       0.03981914
H        7.01317656       5.76649837      30.27236572        0      -0.00022170      -0.01511976      -0.00448616
H        7.83953891       4.34720603      30.43586183        0       0.00770855       0.00979020      -0.01448065
H        6.19146000       4.34602521      30.44955852        0      -0.00813378       0.00991115      -0.01510966
