40
Lattice="8.421641763931781 0.0 0.0 4.2108208819658905 7.293355709136913 0.0 0.0 0.0 46.87624170604845" Properties=species:S:1:pos:R:3:tags:I:1:forces:R:3 charge=0 spin=0 energy=-206.4243514629281 free_energy=-206.4243514629281 stress="0.010458114556968212 7.0515452534891665e-06 -2.421113322270685e-06 7.0515452534891665e-06 0.010513531044125557 -9.305752428190317e-06 -2.421113322270685e-06 -9.305752428190317e-06 -9.874222450889647e-05" pbc="T T T"
Pt      -0.00000003       0.00000022      19.95723434        4      -0.00084932       0.00157788       0.01850580
Pt       2.80721396      -0.00000018      19.95723452        4      -0.00052451       0.00157396       0.01856522
Pt       5.61442778      -0.00000004      19.95723454        4       0.00028661       0.00126750       0.01855589
Pt       1.40360719       2.43111838      19.95723440        4       0.00003432       0.00181736       0.01719637
Pt       4.21082079       2.43111832      19.95723449        4      -0.00058821       0.00140728       0.01729639
Pt       7.01803484       2.43111842      19.95723441        4      -0.00040219       0.00148410       0.01870260
Pt       2.80721406       4.86223725      19.95723409        4       0.00003586       0.00183366       0.01851757
Pt       5.61442803       4.86223733      19.95723425        4       0.00000506       0.00163389       0.01887510
Pt       8.42164141       4.86223723      19.95723442        4      -0.00036107       0.00165478       0.01881422
Pt       1.40360730       0.81037260      22.29206788        3      -0.00022762       0.00531970      -0.05182962
Pt       4.21082126       0.81037254      22.29206791        3      -0.00060922       0.00574605      -0.05283454
Pt       7.01803479       0.81037259      22.29206783        3       0.00026758       0.00709650      -0.05165611
Pt       2.80721452       3.24149125      22.29206775        3      -0.00007815       0.00763181      -0.04567110
Pt       5.61442760       3.24149123      22.29206789        3       0.00068668       0.00680260      -0.05210128
Pt       8.42164156       3.24149116      22.29206803        3      -0.00024806       0.00760029      -0.05364279
Pt       4.21082093       5.67260998      22.29206800        3      -0.00013913       0.00573611      -0.05333964
Pt       7.01803487       5.67261039      22.29206775        3      -0.00031389       0.00612689      -0.04981662
Pt       9.82524824       5.67261062      22.29206803        3      -0.00113313       0.00648817      -0.05282565
Pt      -0.00000058       1.62074570      24.58417378        2       0.00266023      -0.01962945       0.02995137
Pt       2.80721444       1.62074548      24.58417392        2       0.00195584      -0.01482155       0.03206796
Pt       5.61442778       1.62074537      24.58417373        2       0.00062154      -0.01758758       0.02939536
Pt       1.40360636       4.05186440      24.58417384        2       0.00423206      -0.01738375       0.03678827
Pt       4.21082088       4.05186399      24.58417380        2      -0.00040436      -0.01682077       0.03821830
Pt       7.01803502       4.05186406      24.58417406        2       0.00016699      -0.01714876       0.03381269
Pt       2.80721280       6.48298341      24.58417369        2       0.00078490      -0.02240038       0.04282135
Pt       5.61442796       6.48298324      24.58417387        2       0.00215560      -0.02282866       0.03568482
Pt       8.42164221       6.48298340      24.58417380        2      -0.00284790      -0.01930140       0.03137120
Pt       0.00336232      -0.02540371      26.91553746        1      -0.01282767       0.01105724       0.00348275
Pt       2.80866391      -0.02290967      26.91646215        1      -0.00072216       0.00301043      -0.00680626
Pt       5.61358775      -0.02555469      26.91438234        1       0.01315868       0.01003972       0.00676347
Pt       1.40173470       2.40548010      26.91527729        1       0.01796376       0.01014065       0.00368328
Pt       4.21466315       2.40667053      26.91545793        1      -0.01793774       0.00692685       0.00292851
Pt       7.01875117       2.40432093      26.91628625        1      -0.00141031       0.01312469      -0.00416663
Pt       2.80827762       4.83673315      26.91938714        1      -0.00233550       0.01109103      -0.01563007
Pt       5.61230219       4.83662733      26.91792379        1       0.01366288       0.01625698      -0.00584288
Pt       8.42579829       4.83640770      26.91614635        1      -0.01444376       0.01325996      -0.00356354
N        7.03315423       4.87286167      30.74379985        0       0.00708123      -0.00002777      -0.03645134
H        6.06187046       4.87751467      30.40393314        0       0.02479090       0.00125383       0.00877274
H        7.48735029       5.70193351      30.33872841        0      -0.01770493       0.02339332       0.01737786
H        7.48920983       4.05991528      30.30920201        0      -0.01444182      -0.02440311       0.01802864
