40
Lattice="8.421641763931781 0.0 0.0 4.2108208819658905 7.293355709136913 0.0 0.0 0.0 46.87624170604845" Properties=species:S:1:pos:R:3:tags:I:1:forces:R:3 charge=0 spin=0 energy=-206.42440677603844 free_energy=-206.42440677603844 stress="0.010450375266373158 -1.0176475370826665e-05 5.430625606095418e-06 -1.0176475370826665e-05 0.010484160855412483 5.29988426478667e-07 5.430625606095418e-06 5.29988426478667e-07 -0.00012365802831482142" pbc="T T T"
Pt      -0.00000003       0.00000022      19.95723434        4       0.00002265       0.00051022       0.01831785
Pt       2.80721396      -0.00000018      19.95723452        4       0.00000231      -0.00002411       0.01821666
Pt       5.61442778      -0.00000004      19.95723454        4       0.00033724       0.00026937       0.01836725
Pt       1.40360719       2.43111838      19.95723440        4      -0.00004724       0.00047080       0.01774779
Pt       4.21082079       2.43111832      19.95723449        4       0.00052147      -0.00007621       0.01795996
Pt       7.01803484       2.43111842      19.95723441        4       0.00006262       0.00015008       0.01835860
Pt       2.80721406       4.86223725      19.95723409        4       0.00047728       0.00070611       0.01828267
Pt       5.61442803       4.86223733      19.95723425        4       0.00025514       0.00023837       0.01892018
Pt       8.42164141       4.86223723      19.95723442        4       0.00024541       0.00043291       0.01851435
Pt       1.40360730       0.81037260      22.29206788        3       0.00165803      -0.00064789      -0.05078021
Pt       4.21082126       0.81037254      22.29206791        3      -0.00024798       0.00035350      -0.05130243
Pt       7.01803479       0.81037259      22.29206783        3       0.00154658       0.00144565      -0.05136478
Pt       2.80721452       3.24149125      22.29206775        3       0.00184099       0.00230240      -0.04958278
Pt       5.61442760       3.24149123      22.29206789        3       0.00131288       0.00116215      -0.05094158
Pt       8.42164156       3.24149116      22.29206803        3       0.00049804       0.00285259      -0.05161623
Pt       4.21082093       5.67260998      22.29206800        3       0.00131026       0.00045417      -0.05298107
Pt       7.01803487       5.67261039      22.29206775        3       0.00098182       0.00078163      -0.05242846
Pt       9.82524824       5.67261062      22.29206803        3      -0.00018450       0.00075538      -0.05277613
Pt      -0.00000058       1.62074570      24.58417378        2       0.00169031      -0.00456188       0.03099792
Pt       2.80721444       1.62074548      24.58417392        2      -0.00184305      -0.00047407       0.02453179
Pt       5.61442778       1.62074537      24.58417373        2      -0.00502707      -0.00303466       0.03086157
Pt       1.40360636       4.05186440      24.58417384        2      -0.00021872      -0.00856784       0.02770844
Pt       4.21082088       4.05186399      24.58417380        2       0.00037814      -0.00462632       0.03208340
Pt       7.01803502       4.05186406      24.58417406        2      -0.00479825      -0.00204239       0.02659745
Pt       2.80721280       6.48298341      24.58417369        2      -0.00395707      -0.00243732       0.03362174
Pt       5.61442796       6.48298324      24.58417387        2      -0.00728302      -0.00471171       0.03764443
Pt       8.42164221       6.48298340      24.58417380        2       0.00136794       0.00290343       0.03309298
Pt      -0.00550061      -0.00341661      26.91658286        1       0.01580254      -0.00021897      -0.00249715
Pt       2.80417631      -0.00353089      26.91436042        1       0.00409657      -0.00512328       0.00586347
Pt       5.61394013      -0.00145748      26.91672990        1      -0.01419356      -0.01044844      -0.00366833
Pt       1.40096843       2.42375496      26.91545165        1      -0.00420064       0.01488101      -0.00018846
Pt       4.20678975       2.42639290      26.91547853        1       0.00601010       0.00247422       0.00086151
Pt       7.01415344       2.42819213      26.91425644        1       0.00398311       0.00245154       0.01052215
Pt       2.80459428       4.85779710      26.91246612        1      -0.00661777       0.00349329       0.00882582
Pt       5.61083400       4.85788282      26.91709506        1       0.00339153       0.00683574      -0.00024996
Pt       8.42008939       4.85859798      26.91318958        1       0.00071473       0.00067934       0.00306700
N        6.98543506       4.96157073      31.01006815        0       0.00059232       0.00831061       0.00941066
H        5.95806234       4.96776651      31.04912841        0      -0.01423295      -0.01658638       0.00101282
H        7.25187217       5.76989312      30.43303537        0       0.01809965       0.01052796      -0.00873810
H        7.24802883       4.12680033      30.46975000        0      -0.00434796      -0.00186111      -0.00227281
