40
Lattice="8.421641763931781 0.0 0.0 4.2108208819658905 7.293355709136913 0.0 0.0 0.0 46.87624170604845" Properties=species:S:1:pos:R:3:tags:I:1:forces:R:3 charge=0 spin=0 energy=-206.42544818839195 free_energy=-206.42544818839195 stress="0.010499791242182255 3.5277410006528953e-06 -1.4914822941136663e-06 3.5277410006528953e-06 0.01054674293845892 -1.0719424608396366e-05 -1.4914822941136663e-06 -1.0719424608396366e-05 -3.385198942851275e-05" pbc="T T T"
Pt      -0.00000003       0.00000022      19.95723434        4      -0.00039281       0.00085514       0.01864848
Pt       2.80721396      -0.00000018      19.95723452        4      -0.00035309       0.00102331       0.01841833
Pt       5.61442778      -0.00000004      19.95723454        4       0.00014230       0.00052386       0.01873614
Pt       1.40360719       2.43111838      19.95723440        4      -0.00006934       0.00142048       0.01755792
Pt       4.21082079       2.43111832      19.95723449        4      -0.00025214       0.00086402       0.01754312
Pt       7.01803484       2.43111842      19.95723441        4      -0.00018873       0.00101678       0.01851170
Pt       2.80721406       4.86223725      19.95723409        4       0.00030717       0.00118323       0.01829403
Pt       5.61442803       4.86223733      19.95723425        4      -0.00019686       0.00110844       0.01884950
Pt       8.42164141       4.86223723      19.95723442        4       0.00009167       0.00125453       0.01884745
Pt       1.40360730       0.81037260      22.29206788        3      -0.00070546       0.00281917      -0.05105086
Pt       4.21082126       0.81037254      22.29206791        3       0.00060868       0.00388730      -0.05149993
Pt       7.01803479       0.81037259      22.29206783        3       0.00059730       0.00479852      -0.05458792
Pt       2.80721452       3.24149125      22.29206775        3       0.00014697       0.00503008      -0.04563573
Pt       5.61442760       3.24149123      22.29206789        3       0.00144147       0.00404134      -0.05310396
Pt       8.42164156       3.24149116      22.29206803        3      -0.00033402       0.00502650      -0.05341425
Pt       4.21082093       5.67260998      22.29206800        3       0.00023702       0.00347870      -0.05211585
Pt       7.01803487       5.67261039      22.29206775        3       0.00002467       0.00345801      -0.05071834
Pt       9.82524824       5.67261062      22.29206803        3      -0.00066045       0.00419839      -0.05205880
Pt      -0.00000058       1.62074570      24.58417378        2       0.01435827      -0.01590400       0.04363574
Pt       2.80721444       1.62074548      24.58417392        2      -0.00054159      -0.00022836       0.04195883
Pt       5.61442778       1.62074537      24.58417373        2      -0.01208138      -0.01549411       0.04230216
Pt       1.40360636       4.05186440      24.58417384        2       0.00505624      -0.01258359       0.05287667
Pt       4.21082088       4.05186399      24.58417380        2      -0.00527647      -0.01245589       0.05264609
Pt       7.01803502       4.05186406      24.58417406        2      -0.00029864      -0.00869017       0.02410846
Pt       2.80721280       6.48298341      24.58417369        2      -0.00065572      -0.01657579       0.05644887
Pt       5.61442796       6.48298324      24.58417387        2      -0.00722120      -0.01289922       0.03680596
Pt       8.42164221       6.48298340      24.58417380        2       0.00517710      -0.01122081       0.03585106
Pt       0.00020546      -0.01765188      26.91957401        1      -0.00226944       0.01466811      -0.01698426
Pt       2.80722451      -0.01377259      26.91235496        1       0.00073504       0.00716278       0.01369723
Pt       5.61370047      -0.01784913      26.91923573        1       0.00345908       0.01378974      -0.01561296
Pt       1.40366638       2.41627990      26.92242714        1       0.00034207      -0.00289037      -0.02723495
Pt       4.21015638       2.41714659      26.92139578        1      -0.00079294      -0.00412035      -0.02372023
Pt       7.01742027       2.41280790      26.91062847        1      -0.00079294       0.00686494       0.01838220
Pt       2.80667464       4.84612994      26.92319303        1       0.00064665       0.00659255      -0.03026578
Pt       5.61456433       4.84640014      26.91729109        1      -0.01289258       0.00713998      -0.00357934
Pt       8.42081582       4.84549517      26.91664815        1       0.01248986       0.00803308      -0.00200612
N        7.02313954       4.84217007      30.82805623        0       0.00084960       0.01135743       0.01543817
H        7.84283915       4.39851635      30.39391473        0      -0.01095438      -0.01051428      -0.00641381
H        6.19353232       4.39721046      30.41450873        0       0.01252448      -0.00653929      -0.00764684
H        7.01887620       5.81943960      30.50921381        0      -0.00230526       0.00851961      -0.00190814
