40
Lattice="8.421641763931781 0.0 0.0 4.2108208819658905 7.293355709136913 0.0 0.0 0.0 46.87624170604845" Properties=species:S:1:pos:R:3:tags:I:1:forces:R:3 charge=0 spin=0 energy=-206.42544818839195 free_energy=-206.42544818839195 stress="0.010507269762456417 3.865950930048712e-06 -3.495719965940225e-06 3.865950930048712e-06 0.01053852029144764 -4.163271569268545e-06 -3.495719965940225e-06 -4.163271569268545e-06 -3.381686838110909e-05" pbc="T T T"
Pt      -0.00000003       0.00000022      19.95723434        4      -0.00049732       0.00059786       0.01861982
Pt       2.80721396      -0.00000018      19.95723452        4      -0.00042114       0.00070671       0.01838837
Pt       5.61442778      -0.00000004      19.95723454        4       0.00025464       0.00021976       0.01869895
Pt       1.40360719       2.43111838      19.95723440        4      -0.00014573       0.00098057       0.01754298
Pt       4.21082079       2.43111832      19.95723449        4      -0.00014094       0.00046363       0.01765540
Pt       7.01803484       2.43111842      19.95723441        4      -0.00016202       0.00056183       0.01848008
Pt       2.80721406       4.86223725      19.95723409        4       0.00022054       0.00091418       0.01832692
Pt       5.61442803       4.86223733      19.95723425        4      -0.00019704       0.00077885       0.01882264
Pt       8.42164141       4.86223723      19.95723442        4       0.00012059       0.00087967       0.01889361
Pt       1.40360730       0.81037260      22.29206788        3      -0.00064153       0.00155437      -0.05057596
Pt       4.21082126       0.81037254      22.29206791        3       0.00026274       0.00215092      -0.05156887
Pt       7.01803479       0.81037259      22.29206783        3       0.00030878       0.00371575      -0.05385948
Pt       2.80721452       3.24149125      22.29206775        3      -0.00021812       0.00375886      -0.04556893
Pt       5.61442760       3.24149123      22.29206789        3       0.00150395       0.00319635      -0.05311114
Pt       8.42164156       3.24149116      22.29206803        3      -0.00057686       0.00381245      -0.05398681
Pt       4.21082093       5.67260998      22.29206800        3       0.00027631       0.00205283      -0.05201051
Pt       7.01803487       5.67261039      22.29206775        3      -0.00021737       0.00228194      -0.05181562
Pt       9.82524824       5.67261062      22.29206803        3      -0.00105731       0.00300595      -0.05169920
Pt      -0.00000058       1.62074570      24.58417378        2       0.01411197      -0.01349668       0.04442155
Pt       2.80721444       1.62074548      24.58417392        2       0.00006455       0.00370834       0.03987036
Pt       5.61442778       1.62074537      24.58417373        2      -0.01099428      -0.01211485       0.04258999
Pt       1.40360636       4.05186440      24.58417384        2       0.00476573      -0.00840703       0.05338441
Pt       4.21082088       4.05186399      24.58417380        2      -0.00648551      -0.00895485       0.05068750
Pt       7.01803502       4.05186406      24.58417406        2       0.00213567      -0.00610562       0.02395284
Pt       2.80721280       6.48298341      24.58417369        2       0.00004018      -0.01225398       0.05728298
Pt       5.61442796       6.48298324      24.58417387        2      -0.00818071      -0.00773818       0.03630237
Pt       8.42164221       6.48298340      24.58417380        2       0.00631532      -0.00823876       0.03671845
Pt       0.00061778      -0.01252231      26.92077646        1      -0.00216310       0.01334634      -0.02044727
Pt       2.80790791      -0.00868864      26.91177572        1      -0.00040373       0.00496923       0.01531671
Pt       5.61470971      -0.01283699      26.91952608        1       0.00220883       0.01221150      -0.01703570
Pt       1.40412563       2.42156710      26.92170810        1       0.00028309      -0.00455210      -0.02573097
Pt       4.21094352       2.42237058      26.92092336        1      -0.00099352      -0.00594521      -0.02245615
Pt       7.01822069       2.41750298      26.91086925        1      -0.00229193       0.00644730       0.01818740
Pt       2.80645954       4.85158104      26.92323843        1       0.00246315       0.00391337      -0.02960783
Pt       5.61498300       4.85151757      26.91580032        1      -0.01268956       0.00535447       0.00152120
Pt       8.42114888       4.85049834      26.91738606        1       0.01235023       0.00623466      -0.00495985
N        7.00878743       4.86228299      30.83565402        0       0.00898463      -0.00146130       0.01418245
H        7.49614323       4.04758408      30.44107063        0      -0.00543355      -0.00748034      -0.00384486
H        6.06975359       4.87243740      30.41681354        0       0.00767025       0.00292069      -0.00566057
H        7.49796041       5.69338782      30.47933201        0      -0.01042970       0.00601067      -0.00590724
