40
Lattice="8.421641763931781 0.0 0.0 4.2108208819658905 7.293355709136913 0.0 0.0 0.0 46.87624170604845" Properties=species:S:1:pos:R:3:tags:I:1:forces:R:3 charge=0 spin=0 energy=-206.42558551749352 free_energy=-206.42558551749352 stress="0.01051263976842165 3.1980757739802357e-06 1.8816837155100075e-06 3.1980757739802357e-06 0.010533221065998077 -3.1757435863255523e-06 1.8816837155100075e-06 -3.1757435863255523e-06 -3.250751251471229e-05" pbc="T T T"
Pt      -0.00000003       0.00000022      19.95723434        4      -0.00045463       0.00034818       0.01861939
Pt       2.80721396      -0.00000018      19.95723452        4      -0.00026995       0.00052563       0.01842493
Pt       5.61442778      -0.00000004      19.95723454        4       0.00023859      -0.00001866       0.01866246
Pt       1.40360719       2.43111838      19.95723440        4      -0.00015296       0.00073221       0.01767063
Pt       4.21082079       2.43111832      19.95723449        4      -0.00013567       0.00021301       0.01754287
Pt       7.01803484       2.43111842      19.95723441        4      -0.00013699       0.00034950       0.01848816
Pt       2.80721406       4.86223725      19.95723409        4       0.00035122       0.00071805       0.01828027
Pt       5.61442803       4.86223733      19.95723425        4      -0.00023800       0.00049311       0.01890832
Pt       8.42164141       4.86223723      19.95723442        4       0.00013929       0.00066844       0.01884068
Pt       1.40360730       0.81037260      22.29206788        3      -0.00067158       0.00023832      -0.05076645
Pt       4.21082126       0.81037254      22.29206791        3       0.00031964       0.00165647      -0.05091312
Pt       7.01803479       0.81037259      22.29206783        3       0.00033375       0.00269464      -0.05403141
Pt       2.80721452       3.24149125      22.29206775        3       0.00005053       0.00290990      -0.04573045
Pt       5.61442760       3.24149123      22.29206789        3       0.00115945       0.00193730      -0.05361938
Pt       8.42164156       3.24149116      22.29206803        3      -0.00074693       0.00315352      -0.05347573
Pt       4.21082093       5.67260998      22.29206800        3       0.00043234       0.00130590      -0.05177446
Pt       7.01803487       5.67261039      22.29206775        3      -0.00007761       0.00132166      -0.05209160
Pt       9.82524824       5.67261062      22.29206803        3      -0.00102722       0.00186226      -0.05177841
Pt      -0.00000058       1.62074570      24.58417378        2       0.01430104      -0.01030541       0.04395751
Pt       2.80721444       1.62074548      24.58417392        2      -0.00060052       0.00662826       0.03963119
Pt       5.61442778       1.62074537      24.58417373        2      -0.01120245      -0.01003684       0.04350661
Pt       1.40360636       4.05186440      24.58417384        2       0.00656956      -0.00648633       0.05179488
Pt       4.21082088       4.05186399      24.58417380        2      -0.00487806      -0.00584578       0.05222834
Pt       7.01803502       4.05186406      24.58417406        2      -0.00016796      -0.00296535       0.02416834
Pt       2.80721280       6.48298341      24.58417369        2      -0.00050557      -0.00953911       0.05743406
Pt       5.61442796       6.48298324      24.58417387        2      -0.00794872      -0.00664466       0.03775029
Pt       8.42164221       6.48298340      24.58417380        2       0.00665194      -0.00387824       0.03562273
Pt       0.00012554      -0.00866526      26.92012946        1      -0.00073630       0.01086910      -0.01920673
Pt       2.80778844      -0.00492140      26.91171160        1       0.00135826       0.00293256       0.01506398
Pt       5.61439393      -0.00911665      26.92026791        1       0.00202071       0.01127065      -0.01844208
Pt       1.40391960       2.42538923      26.92198180        1       0.00029346      -0.00661178      -0.02622631
Pt       4.21074803       2.42620210      26.92072095        1      -0.00095128      -0.00730132      -0.02269688
Pt       7.01781246       2.42112560      26.91081040        1       0.00046239       0.00567704       0.01874117
Pt       2.80808545       4.85515043      26.92320548        1      -0.00178878       0.00237687      -0.02950891
Pt       5.61543861       4.85524664      26.91734703        1      -0.01281332       0.00365467      -0.00490720
Pt       8.42161839       4.85420784      26.91578602        1       0.01161679       0.00503121       0.00145184
N        7.02724953       4.85894800      30.84017677        0      -0.00900275       0.00173242       0.01363308
H        7.96666315       4.85059206      30.42213553        0      -0.00749739      -0.00294950      -0.00568529
H        6.53647285       4.03264651      30.47497789        0       0.01007860      -0.00622216      -0.00537136
H        6.54233370       5.67865202      30.45300558        0       0.00562700       0.00750452      -0.00419598
