40
Lattice="8.421641763931781 0.0 0.0 4.2108208819658905 7.293355709136913 0.0 0.0 0.0 46.87624170604845" Properties=species:S:1:pos:R:3:tags:I:1:forces:R:3 charge=0 spin=0 energy=-206.42383075675133 free_energy=-206.42383075675133 stress="0.010450148954987526 6.11794075666694e-06 -2.2179604002303677e-06 6.11794075666694e-06 0.010525742545723915 -1.3761367881670594e-05 -2.2179604002303677e-06 -1.3761367881670594e-05 -0.00010025447409134358" pbc="T T T"
Pt      -0.00000003       0.00000022      19.95723434        4      -0.00076727       0.00193905       0.01854444
Pt       2.80721396      -0.00000018      19.95723452        4      -0.00045902       0.00204754       0.01859607
Pt       5.61442778      -0.00000004      19.95723454        4       0.00015410       0.00165503       0.01854656
Pt       1.40360719       2.43111838      19.95723440        4       0.00014614       0.00232406       0.01717697
Pt       4.21082079       2.43111832      19.95723449        4      -0.00074296       0.00186109       0.01717300
Pt       7.01803484       2.43111842      19.95723441        4      -0.00039388       0.00203220       0.01875124
Pt       2.80721406       4.86223725      19.95723409        4       0.00011521       0.00221786       0.01844802
Pt       5.61442803       4.86223733      19.95723425        4      -0.00001975       0.00207220       0.01882745
Pt       8.42164141       4.86223723      19.95723442        4      -0.00037195       0.00213973       0.01886759
Pt       1.40360730       0.81037260      22.29206788        3      -0.00023982       0.00702167      -0.05207004
Pt       4.21082126       0.81037254      22.29206791        3      -0.00001948       0.00778025      -0.05252710
Pt       7.01803479       0.81037259      22.29206783        3       0.00052573       0.00851111      -0.05233454
Pt       2.80721452       3.24149125      22.29206775        3       0.00016410       0.00942924      -0.04581673
Pt       5.61442760       3.24149123      22.29206789        3       0.00075256       0.00815611      -0.05256958
Pt       8.42164156       3.24149116      22.29206803        3       0.00011760       0.00907110      -0.05298960
Pt       4.21082093       5.67260998      22.29206800        3      -0.00005741       0.00731915      -0.05350602
Pt       7.01803487       5.67261039      22.29206775        3      -0.00011330       0.00762272      -0.04892306
Pt       9.82524824       5.67261062      22.29206803        3      -0.00047741       0.00801216      -0.05312750
Pt      -0.00000058       1.62074570      24.58417378        2       0.00237727      -0.02286719       0.02964152
Pt       2.80721444       1.62074548      24.58417392        2       0.00054561      -0.01953052       0.03197533
Pt       5.61442778       1.62074537      24.58417373        2       0.00036150      -0.02277200       0.02952440
Pt       1.40360636       4.05186440      24.58417384        2       0.00205858      -0.02153904       0.03738645
Pt       4.21082088       4.05186399      24.58417380        2      -0.00153908      -0.02179565       0.03645284
Pt       7.01803502       4.05186406      24.58417406        2       0.00085508      -0.02106914       0.03505393
Pt       2.80721280       6.48298341      24.58417369        2      -0.00036608      -0.02695732       0.04232129
Pt       5.61442796       6.48298324      24.58417387        2       0.00271259      -0.02685587       0.03437680
Pt       8.42164221       6.48298340      24.58417380        2      -0.00380656      -0.02506195       0.03329099
Pt       0.00247994      -0.03160742      26.91482469        1      -0.01166528       0.01208873       0.00566858
Pt       2.80789917      -0.02898256      26.91681228        1      -0.00034846       0.00304719      -0.00755185
Pt       5.61257365      -0.03211660      26.91474716        1       0.01233775       0.01240336       0.00619479
Pt       1.40109888       2.39923296      26.91587017        1       0.01673046       0.01082845       0.00300275
Pt       4.21356272       2.40009534      26.91538371        1      -0.01711896       0.00854320       0.00428633
Pt       7.01786027       2.39783582      26.91647790        1      -0.00045809       0.01706368      -0.00572252
Pt       2.80745943       4.82998031      26.91930296        1      -0.00097764       0.01505362      -0.01461853
Pt       5.61099301       4.83018258      26.91747665        1       0.01753591       0.01920996      -0.00559032
Pt       8.42536882       4.82995724      26.91721397        1      -0.01760438       0.01630392      -0.00542219
N        7.02231619       4.86685229      30.73449289        0       0.00018169       0.01075986      -0.03853492
H        7.84501218       4.39633303      30.33383969        0      -0.02624450      -0.01662627       0.01396987
H        6.19509405       4.39426925      30.34578445        0       0.02673016      -0.01539054       0.01268358
H        7.01848856       5.81772272      30.34314193        0      -0.00061089       0.02395159       0.02054368
