40
Lattice="8.421641763931781 0.0 0.0 4.2108208819658905 7.293355709136913 0.0 0.0 0.0 46.87624170604845" Properties=species:S:1:pos:R:3:tags:I:1:forces:R:3 charge=0 spin=0 energy=-206.42544628104332 free_energy=-206.42544628104332 stress="0.010499769821763039 3.5357088563614525e-06 -1.4839556570223067e-06 3.5357088563614525e-06 0.010546737350523472 -1.0726770597102586e-05 -1.4839556570223067e-06 -1.0726770597102586e-05 -3.386554089956917e-05" pbc="T T T"
Pt      -0.00000003       0.00000022      19.95723434        4      -0.00039279       0.00085536       0.01864840
Pt       2.80721396      -0.00000018      19.95723452        4      -0.00035315       0.00102322       0.01841827
Pt       5.61442778      -0.00000004      19.95723454        4       0.00014244       0.00052402       0.01873621
Pt       1.40360719       2.43111838      19.95723440        4      -0.00006953       0.00142047       0.01755799
Pt       4.21082079       2.43111832      19.95723449        4      -0.00025216       0.00086415       0.01754279
Pt       7.01803484       2.43111842      19.95723441        4      -0.00018866       0.00101663       0.01851163
Pt       2.80721406       4.86223725      19.95723409        4       0.00030727       0.00118348       0.01829378
Pt       5.61442803       4.86223733      19.95723425        4      -0.00019686       0.00110834       0.01884908
Pt       8.42164141       4.86223723      19.95723442        4       0.00009147       0.00125460       0.01884723
Pt       1.40360730       0.81037260      22.29206788        3      -0.00070550       0.00281939      -0.05105094
Pt       4.21082126       0.81037254      22.29206791        3       0.00060909       0.00388715      -0.05150042
Pt       7.01803479       0.81037259      22.29206783        3       0.00059733       0.00479866      -0.05458837
Pt       2.80721452       3.24149125      22.29206775        3       0.00014683       0.00503019      -0.04563587
Pt       5.61442760       3.24149123      22.29206789        3       0.00144175       0.00404181      -0.05310487
Pt       8.42164156       3.24149116      22.29206803        3      -0.00033387       0.00502654      -0.05341346
Pt       4.21082093       5.67260998      22.29206800        3       0.00023708       0.00347922      -0.05211664
Pt       7.01803487       5.67261039      22.29206775        3       0.00002475       0.00345856      -0.05071751
Pt       9.82524824       5.67261062      22.29206803        3      -0.00066061       0.00419889      -0.05205950
Pt      -0.00000058       1.62074570      24.58417378        2       0.01435907      -0.01590263       0.04363580
Pt       2.80721444       1.62074548      24.58417392        2      -0.00054351      -0.00022762       0.04196240
Pt       5.61442778       1.62074537      24.58417373        2      -0.01208165      -0.01549480       0.04230314
Pt       1.40360636       4.05186440      24.58417384        2       0.00505790      -0.01258663       0.05287679
Pt       4.21082088       4.05186399      24.58417380        2      -0.00527704      -0.01245767       0.05264641
Pt       7.01803502       4.05186406      24.58417406        2      -0.00030026      -0.00869162       0.02410354
Pt       2.80721280       6.48298341      24.58417369        2      -0.00065710      -0.01657674       0.05644773
Pt       5.61442796       6.48298324      24.58417387        2      -0.00721978      -0.01290105       0.03680307
Pt       8.42164221       6.48298340      24.58417380        2       0.00517734      -0.01121992       0.03584884
Pt       0.00020619      -0.01765277      26.91957338        1      -0.00227557       0.01466953      -0.01697731
Pt       2.80722395      -0.01377418      26.91235496        1       0.00073682       0.00716878       0.01369807
Pt       5.61369971      -0.01785010      26.91923487        1       0.00345946       0.01379097      -0.01561349
Pt       1.40366552       2.41627930      26.92242760        1       0.00034819      -0.00289293      -0.02724187
Pt       4.21015654       2.41714532      26.92139626        1      -0.00079621      -0.00411966      -0.02372086
Pt       7.01742029       2.41280765      26.91062952        1      -0.00079381       0.00685733       0.01838275
Pt       2.80667475       4.84612888      26.92319308        1       0.00064677       0.00659166      -0.03026643
Pt       5.61456460       4.84639836      26.91729189        1      -0.01289623       0.00714380      -0.00357802
Pt       8.42081462       4.84549444      26.91664714        1       0.01249626       0.00803431      -0.00199730
N        7.02314181       4.84217222      30.82805036        0       0.00080300       0.01140560       0.01546446
H        6.19353339       4.39721221      30.41450638        0       0.01252104      -0.00654742      -0.00765108
H        7.01887683       5.81944098      30.50920736        0      -0.00230456       0.00851211      -0.00190283
H        7.84283949       4.39851845      30.39390853        0      -0.01090497      -0.01054622      -0.00644171
