40
Lattice="8.421641763931781 0.0 0.0 4.2108208819658905 7.293355709136913 0.0 0.0 0.0 46.87624170604845" Properties=species:S:1:pos:R:3:tags:I:1:forces:R:3 charge=0 spin=0 energy=-206.41996646842125 free_energy=-206.41996646842125 stress="0.010372701101005077 -9.415733075002208e-06 -2.19368939724518e-05 -9.415733075002208e-06 0.010558615438640118 -1.2997137673664838e-05 -2.19368939724518e-05 -1.2997137673664838e-05 -0.00017309488612227142" pbc="T T T"
Pt      -0.00000003       0.00000022      19.95723434        4      -0.00007367       0.00330322       0.01855555
Pt       2.80721396      -0.00000018      19.95723452        4       0.00014728       0.00287438       0.01828665
Pt       5.61442778      -0.00000004      19.95723454        4       0.00034343       0.00308970       0.01839469
Pt       1.40360719       2.43111838      19.95723440        4      -0.00006988       0.00319291       0.01753411
Pt       4.21082079       2.43111832      19.95723449        4       0.00054186       0.00285264       0.01739096
Pt       7.01803484       2.43111842      19.95723441        4       0.00007839       0.00294366       0.01841490
Pt       2.80721406       4.86223725      19.95723409        4       0.00072159       0.00375598       0.01822590
Pt       5.61442803       4.86223733      19.95723425        4       0.00037196       0.00318948       0.01855654
Pt       8.42164141       4.86223723      19.95723442        4       0.00011966       0.00323999       0.01880359
Pt       1.40360730       0.81037260      22.29206788        3       0.00378942       0.01116150      -0.05197911
Pt       4.21082126       0.81037254      22.29206791        3       0.00253541       0.01124125      -0.05093969
Pt       7.01803479       0.81037259      22.29206783        3       0.00358380       0.01271980      -0.05070815
Pt       2.80721452       3.24149125      22.29206775        3       0.00227140       0.01408592      -0.04914689
Pt       5.61442760       3.24149123      22.29206789        3       0.00387946       0.01328094      -0.05068437
Pt       8.42164156       3.24149116      22.29206803        3       0.00369604       0.01384771      -0.05147808
Pt       4.21082093       5.67260998      22.29206800        3       0.00343429       0.01128911      -0.05281435
Pt       7.01803487       5.67261039      22.29206775        3       0.00285125       0.01216935      -0.05130500
Pt       9.82524824       5.67261062      22.29206803        3       0.00287855       0.01181087      -0.05386190
Pt      -0.00000058       1.62074570      24.58417378        2      -0.00781119      -0.03772561       0.02996016
Pt       2.80721444       1.62074548      24.58417392        2      -0.00819198      -0.03339258       0.02411601
Pt       5.61442778       1.62074537      24.58417373        2      -0.00981814      -0.03581838       0.02874246
Pt       1.40360636       4.05186440      24.58417384        2      -0.01272656      -0.03718945       0.03093356
Pt       4.21082088       4.05186399      24.58417380        2      -0.00873412      -0.03889029       0.02502525
Pt       7.01803502       4.05186406      24.58417406        2      -0.00581572      -0.03891550       0.00830945
Pt       2.80721280       6.48298341      24.58417369        2      -0.00903042      -0.03173356       0.03410254
Pt       5.61442796       6.48298324      24.58417387        2      -0.01496396      -0.03238542       0.02288900
Pt       8.42164221       6.48298340      24.58417380        2      -0.00698433      -0.03356707       0.02385129
Pt      -0.01064925      -0.04738752      26.91720691        1      -0.00156300       0.01959750      -0.00242743
Pt       2.79644449      -0.04940522      26.91515220        1       0.00724321       0.04001174       0.00890625
Pt       5.60289841      -0.04840366      26.91574847        1       0.01312213       0.02171362       0.00388307
Pt       1.39168407       2.38074073      26.91482887        1       0.01130863       0.02840569       0.00592388
Pt       4.20046100       2.38212937      26.91507684        1      -0.00218610       0.02247835       0.00368616
Pt       7.00607962       2.38530115      26.91506131        1       0.00968062      -0.00329634       0.00719220
Pt       2.79675350       4.81427799      26.91242003        1       0.00627845       0.01825601       0.01090905
Pt       5.60594455       4.81535936      26.91362057        1      -0.02626151       0.01704936       0.01031679
Pt       8.40834580       4.81449909      26.91510057        1       0.03421256       0.01526366       0.01491143
N        6.94197880       4.89912720      30.81719219        0       0.01366495       0.00326681       0.01182338
H        6.58453497       4.07033566      30.32378261        0      -0.00895252       0.03065458      -0.00245468
H        6.59082640       5.72083505      30.30793389        0      -0.01757075      -0.02731392      -0.00275406
H        7.96197002       4.89517028      30.68945424        0       0.01399945      -0.00651774       0.00090892
