40
Lattice="8.421641763931781 0.0 0.0 4.2108208819658905 7.293355709136913 0.0 0.0 0.0 46.87624170604845" Properties=species:S:1:pos:R:3:tags:I:1:forces:R:3 charge=0 spin=0 energy=-206.4238288494027 free_energy=-206.4238288494027 stress="0.01045012567192316 6.124787432781886e-06 -2.2143087790027494e-06 6.124787432781886e-06 0.010525735095143318 -1.3764644791081082e-05 -2.2143087790027494e-06 -1.3764644791081082e-05 -0.00010028682299889624" pbc="T T T"
Pt      -0.00000003       0.00000022      19.95723434        4      -0.00076732       0.00193921       0.01854431
Pt       2.80721396      -0.00000018      19.95723452        4      -0.00045901       0.00204741       0.01859609
Pt       5.61442778      -0.00000004      19.95723454        4       0.00015411       0.00165500       0.01854660
Pt       1.40360719       2.43111838      19.95723440        4       0.00014608       0.00232403       0.01717692
Pt       4.21082079       2.43111832      19.95723449        4      -0.00074299       0.00186096       0.01717292
Pt       7.01803484       2.43111842      19.95723441        4      -0.00039404       0.00203224       0.01875156
Pt       2.80721406       4.86223725      19.95723409        4       0.00011544       0.00221778       0.01844815
Pt       5.61442803       4.86223733      19.95723425        4      -0.00001968       0.00207207       0.01882737
Pt       8.42164141       4.86223723      19.95723442        4      -0.00037200       0.00213979       0.01886778
Pt       1.40360730       0.81037260      22.29206788        3      -0.00023968       0.00702180      -0.05207072
Pt       4.21082126       0.81037254      22.29206791        3      -0.00001984       0.00777981      -0.05252762
Pt       7.01803479       0.81037259      22.29206783        3       0.00052567       0.00851081      -0.05233413
Pt       2.80721452       3.24149125      22.29206775        3       0.00016406       0.00942957      -0.04581698
Pt       5.61442760       3.24149123      22.29206789        3       0.00075278       0.00815609      -0.05256899
Pt       8.42164156       3.24149116      22.29206803        3       0.00011768       0.00907061      -0.05298873
Pt       4.21082093       5.67260998      22.29206800        3      -0.00005748       0.00731867      -0.05350588
Pt       7.01803487       5.67261039      22.29206775        3      -0.00011332       0.00762322      -0.04892373
Pt       9.82524824       5.67261062      22.29206803        3      -0.00047754       0.00801203      -0.05312663
Pt      -0.00000058       1.62074570      24.58417378        2       0.00237392      -0.02286471       0.02963966
Pt       2.80721444       1.62074548      24.58417392        2       0.00054567      -0.01953196       0.03197065
Pt       5.61442778       1.62074537      24.58417373        2       0.00036526      -0.02277011       0.02951997
Pt       1.40360636       4.05186440      24.58417384        2       0.00205671      -0.02153905       0.03738275
Pt       4.21082088       4.05186399      24.58417380        2      -0.00153916      -0.02179575       0.03644469
Pt       7.01803502       4.05186406      24.58417406        2       0.00085716      -0.02107174       0.03505252
Pt       2.80721280       6.48298341      24.58417369        2      -0.00036641      -0.02695715       0.04231411
Pt       5.61442796       6.48298324      24.58417387        2       0.00271486      -0.02685509       0.03436968
Pt       8.42164221       6.48298340      24.58417380        2      -0.00380794      -0.02506245       0.03328730
Pt       0.00248019      -0.03160731      26.91482431        1      -0.01166776       0.01209273       0.00567679
Pt       2.80789958      -0.02898261      26.91681258        1      -0.00034944       0.00304796      -0.00755214
Pt       5.61257354      -0.03211639      26.91474615        1       0.01233941       0.01240252       0.00620401
Pt       1.40109873       2.39923273      26.91586962        1       0.01672933       0.01083225       0.00300936
Pt       4.21356328       2.40009517      26.91538309        1      -0.01712292       0.00854349       0.00429481
Pt       7.01786014       2.39783620      26.91647850        1      -0.00045247       0.01706373      -0.00572952
Pt       2.80745965       4.82998037      26.91930162        1      -0.00098342       0.01505391      -0.01461260
Pt       5.61099282       4.83018300      26.91747558        1       0.01753917       0.01920797      -0.00558086
Pt       8.42536899       4.82995783      26.91721293        1      -0.01760374       0.01629816      -0.00542289
N        7.02231636       4.86685164      30.73449909        0       0.00012456       0.01078164      -0.03853272
H        6.19509381       4.39426906      30.34579157        0       0.02675192      -0.01537725       0.01269444
H        7.01848828       5.81772257      30.34314724        0      -0.00060789       0.02393204       0.02054940
H        7.84501145       4.39633267      30.33384515        0      -0.02620955      -0.01664209       0.01395217
