40
Lattice="8.421641763931781 0.0 0.0 4.2108208819658905 7.293355709136913 0.0 0.0 0.0 46.87624170604845" Properties=species:S:1:pos:R:3:tags:I:1:forces:R:3 charge=0 spin=0 energy=-206.42296672782066 free_energy=-206.42296672782066 stress="0.010540506802499294 1.7871788031698088e-06 -3.4782181046466576e-07 1.7871788031698088e-06 0.01055816002190113 -6.1677078520006035e-06 -3.4782181046466576e-07 -6.1677078520006035e-06 -1.4146440889817313e-06" pbc="T T T"
Pt      -0.00000003       0.00000022      19.95723434        4      -0.00054604       0.00047602       0.01834403
Pt       2.80721396      -0.00000018      19.95723452        4      -0.00019383      -0.00004148       0.01889399
Pt       5.61442778      -0.00000004      19.95723454        4       0.00046534       0.00014336       0.01844586
Pt       1.40360719       2.43111838      19.95723440        4      -0.00053269       0.00050029       0.01778379
Pt       4.21082079       2.43111832      19.95723449        4       0.00018663       0.00008083       0.01779410
Pt       7.01803484       2.43111842      19.95723441        4      -0.00026485       0.00048141       0.01860631
Pt       2.80721406       4.86223725      19.95723409        4       0.00033409       0.00050256       0.01854442
Pt       5.61442803       4.86223733      19.95723425        4       0.00020052       0.00028359       0.01845394
Pt       8.42164141       4.86223723      19.95723442        4      -0.00011017       0.00039194       0.01854108
Pt       1.40360730       0.81037260      22.29206788        3       0.00036347       0.00036883      -0.05394231
Pt       4.21082126       0.81037254      22.29206791        3      -0.00095626       0.00051967      -0.05389666
Pt       7.01803479       0.81037259      22.29206783        3       0.00011264       0.00223761      -0.05218665
Pt       2.80721452       3.24149125      22.29206775        3       0.00011188       0.00077377      -0.04713977
Pt       5.61442760       3.24149123      22.29206789        3       0.00069766       0.00201790      -0.05117289
Pt       8.42164156       3.24149116      22.29206803        3       0.00001906       0.00245762      -0.05137395
Pt       4.21082093       5.67260998      22.29206800        3       0.00065284       0.00123551      -0.05239036
Pt       7.01803487       5.67261039      22.29206775        3      -0.00031291       0.00180085      -0.05125482
Pt       9.82524824       5.67261062      22.29206803        3      -0.00083115       0.00172371      -0.05165016
Pt      -0.00000058       1.62074570      24.58417378        2      -0.00248386       0.00124115       0.05270769
Pt       2.80721444       1.62074548      24.58417392        2       0.00064402       0.00410869       0.05468224
Pt       5.61442778       1.62074537      24.58417373        2       0.00387379       0.00346220       0.05478959
Pt       1.40360636       4.05186440      24.58417384        2       0.00650069      -0.00329945       0.05023422
Pt       4.21082088       4.05186399      24.58417380        2      -0.00732383      -0.00556379       0.05022944
Pt       7.01803502       4.05186406      24.58417406        2       0.00205206      -0.01544310       0.03740520
Pt       2.80721280       6.48298341      24.58417369        2      -0.00181046      -0.01717682       0.04882712
Pt       5.61442796       6.48298324      24.58417387        2       0.00269514      -0.00380831       0.03187219
Pt       8.42164221       6.48298340      24.58417380        2      -0.00323553      -0.00126699       0.03303736
Pt       0.00114104      -0.00838415      26.91311278        1      -0.01034602       0.01929272       0.00812477
Pt       2.80708124      -0.00272650      26.91839495        1       0.00269056       0.00670372      -0.01300597
Pt       5.61370847      -0.00830672      26.91374906        1       0.01038641       0.01751018       0.00563953
Pt       1.39956897       2.42781898      26.91938855        1       0.02079402      -0.01241376      -0.01621639
Pt       4.21520101       2.42710617      26.92037176        1      -0.02114162      -0.00937168      -0.01976163
Pt       7.01835276       2.42649985      26.92589477        1      -0.00227714      -0.01299785      -0.04064028
Pt       2.80733889       4.85209530      26.92457781        1       0.00020914       0.01809742      -0.04391816
Pt       5.61675407       4.85714973      26.91554388        1      -0.01933429      -0.00005512       0.00699852
Pt       8.41927355       4.85807606      26.91600443        1       0.01852579      -0.00575353       0.00459437
N        7.02037989       5.21967238      30.99315791        0      -0.00190381       0.01875351      -0.01817421
H        7.84912825       5.74941986      30.69009375        0      -0.03233986      -0.00793974       0.00329733
H        7.02189583       4.34920354      30.44508593        0       0.00129489      -0.00281399       0.00390192
H        6.20182482       5.75595026      30.67428520        0       0.03313375      -0.00721930       0.00497500
