40
Lattice="8.421641763931781 0.0 0.0 4.2108208819658905 7.293355709136913 0.0 0.0 0.0 46.87624170604845" Properties=species:S:1:pos:R:3:tags:I:1:forces:R:3 charge=0 spin=0 energy=-206.42115665396813 free_energy=-206.42115665396813 stress="0.010377487167716026 9.934453373716678e-06 -1.7552538338350132e-06 9.934453373716678e-06 0.010540622286498547 -1.6500329365953803e-05 -1.7552538338350132e-06 -1.6500329365953803e-05 -0.00017750398546922952" pbc="T T T"
Pt      -0.00000003       0.00000022      19.95723434        4      -0.00083662       0.00318583       0.01843101
Pt       2.80721396      -0.00000018      19.95723452        4      -0.00065175       0.00295672       0.01838152
Pt       5.61442778      -0.00000004      19.95723454        4      -0.00023461       0.00287481       0.01839607
Pt       1.40360719       2.43111838      19.95723440        4      -0.00036673       0.00308168       0.01729781
Pt       4.21082079       2.43111832      19.95723449        4      -0.00049167       0.00271022       0.01724465
Pt       7.01803484       2.43111842      19.95723441        4      -0.00054718       0.00289304       0.01861776
Pt       2.80721406       4.86223725      19.95723409        4      -0.00007436       0.00342620       0.01845866
Pt       5.61442803       4.86223733      19.95723425        4      -0.00025197       0.00302185       0.01876695
Pt       8.42164141       4.86223723      19.95723442        4      -0.00051492       0.00307089       0.01880817
Pt       1.40360730       0.81037260      22.29206788        3      -0.00000821       0.01040305      -0.05099177
Pt       4.21082126       0.81037254      22.29206791        3      -0.00038864       0.01125292      -0.05145254
Pt       7.01803479       0.81037259      22.29206783        3       0.00031107       0.01199700      -0.05107704
Pt       2.80721452       3.24149125      22.29206775        3      -0.00003777       0.01416480      -0.04807787
Pt       5.61442760       3.24149123      22.29206789        3       0.00010375       0.01257013      -0.05105695
Pt       8.42164156       3.24149116      22.29206803        3       0.00029498       0.01357909      -0.05138156
Pt       4.21082093       5.67260998      22.29206800        3      -0.00044632       0.01101524      -0.05429015
Pt       7.01803487       5.67261039      22.29206775        3      -0.00035942       0.01175621      -0.05050354
Pt       9.82524824       5.67261062      22.29206803        3      -0.00040820       0.01169006      -0.05405314
Pt      -0.00000058       1.62074570      24.58417378        2       0.00058179      -0.03382874       0.02237905
Pt       2.80721444       1.62074548      24.58417392        2       0.00153311      -0.03371931       0.02135361
Pt       5.61442778       1.62074537      24.58417373        2       0.00398104      -0.03397693       0.02156728
Pt       1.40360636       4.05186440      24.58417384        2       0.00027711      -0.03563004       0.02622959
Pt       4.21082088       4.05186399      24.58417380        2       0.00229143      -0.03556335       0.02637075
Pt       7.01803502       4.05186406      24.58417406        2       0.00165166      -0.03741148       0.01380209
Pt       2.80721280       6.48298341      24.58417369        2       0.00046464      -0.03341042       0.03399152
Pt       5.61442796       6.48298324      24.58417387        2       0.00034486      -0.03325495       0.02866042
Pt       8.42164221       6.48298340      24.58417380        2       0.00001813      -0.03182423       0.02825831
Pt       0.00175158      -0.04463209      26.91509603        1      -0.00520067       0.00489011       0.00719934
Pt       2.80880687      -0.04561942      26.91721789        1      -0.00038160       0.01858376      -0.00432569
Pt       5.61535067      -0.04528628      26.91501949        1       0.00351605       0.00503460       0.00759835
Pt       1.40260559       2.38167524      26.91391253        1       0.01427509       0.03089232       0.01310804
Pt       4.21394474       2.38232429      26.91345946        1      -0.01602479       0.02948125       0.01420653
Pt       7.01854088       2.38481192      26.91650141        1       0.00024293       0.01234248       0.00141047
Pt       2.80835878       4.81461236      26.91348020        1      -0.00136119       0.02285613       0.00682632
Pt       5.61566538       4.81572812      26.91410894        1      -0.01287874       0.02309902       0.01173175
Pt       8.42260116       4.81499664      26.91387304        1       0.01186194       0.02279293       0.01236848
N        7.01784618       4.86662832      30.76941024        0       0.00039270      -0.00160083       0.03978488
H        7.83953957       4.34720657      30.43585265        0       0.00767135       0.00981015      -0.01446082
H        6.19146033       4.34602511      30.44954949        0      -0.00812322       0.00991751      -0.01510300
H        7.01317659       5.76649863      30.27235655        0      -0.00022483      -0.01512956      -0.00447564
