40
Lattice="8.421641763931781 0.0 0.0 4.2108208819658905 7.293355709136913 0.0 0.0 0.0 46.87624170604845" Properties=species:S:1:pos:R:3:tags:I:1:forces:R:3 charge=0 spin=0 energy=-206.42558361014488 free_energy=-206.42558361014488 stress="0.010512661188840866 3.201264689778327e-06 1.8803800685418537e-06 3.201264689778327e-06 0.010533238761126995 -3.1604815831087762e-06 1.8803800685418537e-06 -3.1604815831087762e-06 -3.249534347560257e-05" pbc="T T T"
Pt      -0.00000003       0.00000022      19.95723434        4      -0.00045466       0.00034813       0.01861924
Pt       2.80721396      -0.00000018      19.95723452        4      -0.00026986       0.00052549       0.01842484
Pt       5.61442778      -0.00000004      19.95723454        4       0.00023851      -0.00001858       0.01866233
Pt       1.40360719       2.43111838      19.95723440        4      -0.00015319       0.00073200       0.01767077
Pt       4.21082079       2.43111832      19.95723449        4      -0.00013538       0.00021327       0.01754283
Pt       7.01803484       2.43111842      19.95723441        4      -0.00013693       0.00034952       0.01848795
Pt       2.80721406       4.86223725      19.95723409        4       0.00035124       0.00071813       0.01828033
Pt       5.61442803       4.86223733      19.95723425        4      -0.00023796       0.00049319       0.01890815
Pt       8.42164141       4.86223723      19.95723442        4       0.00013933       0.00066831       0.01884062
Pt       1.40360730       0.81037260      22.29206788        3      -0.00067137       0.00023890      -0.05076723
Pt       4.21082126       0.81037254      22.29206791        3       0.00031941       0.00165648      -0.05091258
Pt       7.01803479       0.81037259      22.29206783        3       0.00033410       0.00269454      -0.05403019
Pt       2.80721452       3.24149125      22.29206775        3       0.00005040       0.00291065      -0.04573245
Pt       5.61442760       3.24149123      22.29206789        3       0.00115874       0.00193761      -0.05361932
Pt       8.42164156       3.24149116      22.29206803        3      -0.00074629       0.00315390      -0.05347513
Pt       4.21082093       5.67260998      22.29206800        3       0.00043180       0.00130671      -0.05177471
Pt       7.01803487       5.67261039      22.29206775        3      -0.00007775       0.00132203      -0.05209166
Pt       9.82524824       5.67261062      22.29206803        3      -0.00102706       0.00186170      -0.05177786
Pt      -0.00000058       1.62074570      24.58417378        2       0.01429681      -0.01030604       0.04395671
Pt       2.80721444       1.62074548      24.58417392        2      -0.00059854       0.00662437       0.03963500
Pt       5.61442778       1.62074537      24.58417373        2      -0.01120103      -0.01003911       0.04351187
Pt       1.40360636       4.05186440      24.58417384        2       0.00656884      -0.00648537       0.05179107
Pt       4.21082088       4.05186399      24.58417380        2      -0.00487592      -0.00584631       0.05222959
Pt       7.01803502       4.05186406      24.58417406        2      -0.00016970      -0.00296646       0.02416759
Pt       2.80721280       6.48298341      24.58417369        2      -0.00050693      -0.00953665       0.05743688
Pt       5.61442796       6.48298324      24.58417387        2      -0.00794765      -0.00664536       0.03775521
Pt       8.42164221       6.48298340      24.58417380        2       0.00665249      -0.00387569       0.03562882
Pt       0.00012568      -0.00866493      26.92012939        1      -0.00073819       0.01086292      -0.01920741
Pt       2.80778827      -0.00492310      26.91171312        1       0.00136065       0.00293994       0.01505649
Pt       5.61439331      -0.00911705      26.92026807        1       0.00201940       0.01127049      -0.01845251
Pt       1.40391848       2.42538876      26.92198083        1       0.00030124      -0.00661368      -0.02622022
Pt       4.21074859       2.42620143      26.92072058        1      -0.00095440      -0.00730271      -0.02269718
Pt       7.01781180       2.42112671      26.91081245        1       0.00046046       0.00567053       0.01873701
Pt       2.80808517       4.85514986      26.92320424        1      -0.00178864       0.00237840      -0.02950838
Pt       5.61543871       4.85524611      26.91734901        1      -0.01281837       0.00365576      -0.00491248
Pt       8.42161755       4.85420727      26.91578753        1       0.01162046       0.00503696       0.00145316
N        7.02725240       4.85895268      30.84022345        0      -0.00900222       0.00162840       0.01361943
H        6.53646697       4.03264929      30.47503312        0       0.01010069      -0.00616593      -0.00534170
H        6.54233983       5.67865476      30.45304511        0       0.00563417       0.00752602      -0.00421604
H        7.96666413       4.85058091      30.42217721        0      -0.00752687      -0.00292247      -0.00567891
