40
Lattice="8.421641763931781 0.0 0.0 4.2108208819658905 7.293355709136913 0.0 0.0 0.0 46.87624170604845" Properties=species:S:1:pos:R:3:tags:I:1:forces:R:3 charge=0 spin=0 energy=-206.41996265372399 free_energy=-206.41996265372399 stress="0.010372750461101532 -9.437550943403039e-06 -2.196792593167629e-05 -9.437550943403039e-06 0.010558578185737133 -1.3030426089244429e-05 -2.196792593167629e-05 -1.3030426089244429e-05 -0.00017309434770140797" pbc="T T T"
Pt      -0.00000003       0.00000022      19.95723434        4      -0.00007380       0.00330312       0.01855574
Pt       2.80721396      -0.00000018      19.95723452        4       0.00014745       0.00287428       0.01828659
Pt       5.61442778      -0.00000004      19.95723454        4       0.00034332       0.00308975       0.01839469
Pt       1.40360719       2.43111838      19.95723440        4      -0.00006994       0.00319288       0.01753428
Pt       4.21082079       2.43111832      19.95723449        4       0.00054189       0.00285267       0.01739105
Pt       7.01803484       2.43111842      19.95723441        4       0.00007832       0.00294379       0.01841486
Pt       2.80721406       4.86223725      19.95723409        4       0.00072175       0.00375586       0.01822614
Pt       5.61442803       4.86223733      19.95723425        4       0.00037194       0.00318953       0.01855654
Pt       8.42164141       4.86223723      19.95723442        4       0.00011960       0.00323985       0.01880389
Pt       1.40360730       0.81037260      22.29206788        3       0.00378937       0.01116173      -0.05197892
Pt       4.21082126       0.81037254      22.29206791        3       0.00253533       0.01124142      -0.05093978
Pt       7.01803479       0.81037259      22.29206783        3       0.00358386       0.01271980      -0.05070775
Pt       2.80721452       3.24149125      22.29206775        3       0.00227106       0.01408588      -0.04914682
Pt       5.61442760       3.24149123      22.29206789        3       0.00387956       0.01328102      -0.05068427
Pt       8.42164156       3.24149116      22.29206803        3       0.00369638       0.01384782      -0.05147730
Pt       4.21082093       5.67260998      22.29206800        3       0.00343413       0.01128884      -0.05281452
Pt       7.01803487       5.67261039      22.29206775        3       0.00285119       0.01216951      -0.05130471
Pt       9.82524824       5.67261062      22.29206803        3       0.00287858       0.01181074      -0.05386193
Pt      -0.00000058       1.62074570      24.58417378        2      -0.00781170      -0.03772544       0.02996150
Pt       2.80721444       1.62074548      24.58417392        2      -0.00819181      -0.03339271       0.02411630
Pt       5.61442778       1.62074537      24.58417373        2      -0.00981775      -0.03581864       0.02874271
Pt       1.40360636       4.05186440      24.58417384        2      -0.01272899      -0.03718780       0.03093605
Pt       4.21082088       4.05186399      24.58417380        2      -0.00873377      -0.03888915       0.02502577
Pt       7.01803502       4.05186406      24.58417406        2      -0.00581412      -0.03891496       0.00831119
Pt       2.80721280       6.48298341      24.58417369        2      -0.00903005      -0.03173285       0.03410442
Pt       5.61442796       6.48298324      24.58417387        2      -0.01496418      -0.03238575       0.02288799
Pt       8.42164221       6.48298340      24.58417380        2      -0.00698468      -0.03356875       0.02385144
Pt      -0.01064896      -0.04738728      26.91720765        1      -0.00156748       0.01959911      -0.00242879
Pt       2.79644453      -0.04940517      26.91515167        1       0.00724276       0.04001490       0.00890691
Pt       5.60289838      -0.04840377      26.91574850        1       0.01312842       0.02171692       0.00388324
Pt       1.39168436       2.38074114      26.91482954        1       0.01130415       0.02840496       0.00592426
Pt       4.20046078       2.38212981      26.91507691        1      -0.00218630       0.02247554       0.00368574
Pt       7.00607953       2.38530167      26.91506149        1       0.00968151      -0.00330097       0.00719131
Pt       2.79675296       4.81427809      26.91242015        1       0.00627045       0.01825719       0.01091316
Pt       5.60594503       4.81535948      26.91362058        1      -0.02626549       0.01704999       0.01031730
Pt       8.40834489       4.81449954      26.91510234        1       0.03421901       0.01526080       0.01490409
N        6.94197760       4.89912534      30.81718348        0       0.01389404       0.00346849       0.01190637
H        6.59082726       5.72083637      30.30792591        0      -0.01757533      -0.02734365      -0.00274798
H        7.96197176       4.89516839      30.68944519        0       0.01386290      -0.00652482       0.00092748
H        6.58453402       4.07033749      30.32377752        0      -0.00903193       0.03048919      -0.00256808
