40
Lattice="8.421641763931781 0.0 0.0 4.2108208819658905 7.293355709136913 0.0 0.0 0.0 46.87624170604845" Properties=species:S:1:pos:R:3:tags:I:1:forces:R:3 charge=0 spin=0 energy=-206.42513538321617 free_energy=-206.42513538321617 stress="0.010473894886672497 4.125735358684324e-06 -1.1296825732642901e-06 4.125735358684324e-06 0.0105014992877841 -2.6561688173387665e-06 -1.1296825732642901e-06 -2.6561688173387665e-06 -9.136743028648198e-05" pbc="T T T"
Pt      -0.00000003       0.00000022      19.95723434        4      -0.00084830       0.00097130       0.01851206
Pt       2.80721396      -0.00000018      19.95723452        4      -0.00034686       0.00096604       0.01861428
Pt       5.61442778      -0.00000004      19.95723454        4       0.00039565       0.00061319       0.01853275
Pt       1.40360719       2.43111838      19.95723440        4       0.00003780       0.00112349       0.01726123
Pt       4.21082079       2.43111832      19.95723449        4      -0.00044565       0.00071683       0.01732381
Pt       7.01803484       2.43111842      19.95723441        4      -0.00026905       0.00078357       0.01868229
Pt       2.80721406       4.86223725      19.95723409        4       0.00015645       0.00122610       0.01851452
Pt       5.61442803       4.86223733      19.95723425        4       0.00002814       0.00097619       0.01886547
Pt       8.42164141       4.86223723      19.95723442        4      -0.00023105       0.00099184       0.01887054
Pt       1.40360730       0.81037260      22.29206788        3       0.00003349       0.00271534      -0.05187063
Pt       4.21082126       0.81037254      22.29206791        3      -0.00060923       0.00328560      -0.05238177
Pt       7.01803479       0.81037259      22.29206783        3       0.00022693       0.00473147      -0.05124513
Pt       2.80721452       3.24149125      22.29206775        3      -0.00008934       0.00495834      -0.04568233
Pt       5.61442760       3.24149123      22.29206789        3       0.00073751       0.00452718      -0.05291185
Pt       8.42164156       3.24149116      22.29206803        3      -0.00022471       0.00528667      -0.05346301
Pt       4.21082093       5.67260998      22.29206800        3       0.00044616       0.00337086      -0.05295329
Pt       7.01803487       5.67261039      22.29206775        3      -0.00028195       0.00368028      -0.05080983
Pt       9.82524824       5.67261062      22.29206803        3      -0.00120113       0.00395933      -0.05254801
Pt      -0.00000058       1.62074570      24.58417378        2       0.00296616      -0.01258739       0.03034308
Pt       2.80721444       1.62074548      24.58417392        2       0.00052873      -0.00735682       0.03145726
Pt       5.61442778       1.62074537      24.58417373        2       0.00007891      -0.01136794       0.03047175
Pt       1.40360636       4.05186440      24.58417384        2       0.00221134      -0.01004125       0.03868369
Pt       4.21082088       4.05186399      24.58417380        2      -0.00187998      -0.01036451       0.03753440
Pt       7.01803502       4.05186406      24.58417406        2       0.00203527      -0.00962256       0.03586392
Pt       2.80721280       6.48298341      24.58417369        2      -0.00020558      -0.01489326       0.04295254
Pt       5.61442796       6.48298324      24.58417387        2       0.00205621      -0.01532550       0.03565668
Pt       8.42164221       6.48298340      24.58417380        2      -0.00300494      -0.01338780       0.03446077
Pt       0.00258107      -0.01550857      26.91543518        1      -0.01156759       0.00770764       0.00346736
Pt       2.80825368      -0.01283182      26.91626626        1      -0.00003589      -0.00401134      -0.00686300
Pt       5.61321790      -0.01608271      26.91518967        1       0.01172823       0.00881721       0.00422289
Pt       1.40125463       2.41573442      26.91538456        1       0.01585860       0.00507413       0.00214900
Pt       4.21408904       2.41630882      26.91507273        1      -0.01669073       0.00411455       0.00325970
Pt       7.01826575       2.41364196      26.91595786        1      -0.00007811       0.01214265      -0.00299834
Pt       2.80775364       4.84670884      26.91922647        1       0.00023345       0.00600642      -0.01555791
Pt       5.61176224       4.84637795      26.91726879        1       0.01555949       0.01282245      -0.00654778
Pt       8.42561912       4.84620727      26.91739241        1      -0.01722234       0.00986252      -0.00657080
N        7.01398106       4.87202774      30.75549646        0       0.00000676      -0.01015585      -0.03838700
H        7.01680966       3.92658675      30.35116000        0       0.00040050      -0.02469726       0.02048728
H        6.19205181       5.34864503      30.36054417        0       0.02626922       0.01660487       0.01294462
H        7.84175065       5.34857264      30.37286844        0      -0.02676282       0.01577561       0.01165836
