40
Lattice="8.421641763931781 0.0 0.0 4.2108208819658905 7.293355709136913 0.0 0.0 0.0 46.87624170604845" Properties=species:S:1:pos:R:3:tags:I:1:forces:R:3 charge=0 spin=0 energy=-206.42469860037926 free_energy=-206.42469860037926 stress="0.010462479665875435 3.276357119830209e-06 -8.086015554908954e-07 3.276357119830209e-06 0.010508868843317032 -7.413595540128881e-06 -8.086015554908954e-07 -7.413595540128881e-06 -9.697039786260575e-05" pbc="T T T"
Pt      -0.00000003       0.00000022      19.95723434        4      -0.00079848       0.00138204       0.01858320
Pt       2.80721396      -0.00000018      19.95723452        4      -0.00027372       0.00138861       0.01862440
Pt       5.61442778      -0.00000004      19.95723454        4       0.00027495       0.00102914       0.01850194
Pt       1.40360719       2.43111838      19.95723440        4       0.00007253       0.00160755       0.01729558
Pt       4.21082079       2.43111832      19.95723449        4      -0.00052001       0.00116445       0.01722245
Pt       7.01803484       2.43111842      19.95723441        4      -0.00025405       0.00131732       0.01870061
Pt       2.80721406       4.86223725      19.95723409        4       0.00022923       0.00164259       0.01844972
Pt       5.61442803       4.86223733      19.95723425        4       0.00003235       0.00138531       0.01881377
Pt       8.42164141       4.86223723      19.95723442        4      -0.00027625       0.00146101       0.01888188
Pt       1.40360730       0.81037260      22.29206788        3       0.00014889       0.00429300      -0.05211626
Pt       4.21082126       0.81037254      22.29206791        3      -0.00009722       0.00518572      -0.05212310
Pt       7.01803479       0.81037259      22.29206783        3       0.00046549       0.00618708      -0.05176882
Pt       2.80721452       3.24149125      22.29206775        3       0.00014070       0.00692527      -0.04595085
Pt       5.61442760       3.24149123      22.29206789        3       0.00084467       0.00587489      -0.05322240
Pt       8.42164156       3.24149116      22.29206803        3       0.00006668       0.00681669      -0.05262683
Pt       4.21082093       5.67260998      22.29206800        3       0.00049178       0.00485311      -0.05314077
Pt       7.01803487       5.67261039      22.29206775        3      -0.00010024       0.00524948      -0.04997488
Pt       9.82524824       5.67261062      22.29206803        3      -0.00049204       0.00545958      -0.05280649
Pt      -0.00000058       1.62074570      24.58417378        2       0.00243983      -0.01600356       0.02984146
Pt       2.80721444       1.62074548      24.58417392        2      -0.00086526      -0.01229168       0.03187844
Pt       5.61442778       1.62074537      24.58417373        2       0.00015091      -0.01676042       0.03034491
Pt       1.40360636       4.05186440      24.58417384        2       0.00091988      -0.01428631       0.03956424
Pt       4.21082088       4.05186399      24.58417380        2      -0.00377243      -0.01513833       0.03586863
Pt       7.01803502       4.05186406      24.58417406        2       0.00268966      -0.01422734       0.03400847
Pt       2.80721280       6.48298341      24.58417369        2      -0.00135039      -0.01961641       0.04287672
Pt       5.61442796       6.48298324      24.58417387        2       0.00204811      -0.01875575       0.03273178
Pt       8.42164221       6.48298340      24.58417380        2      -0.00356259      -0.01869091       0.03460604
Pt       0.00188462      -0.02159427      26.91456594        1      -0.01268461       0.00832175       0.00611404
Pt       2.80754334      -0.01939710      26.91656621        1       0.00023891       0.00112486      -0.00718550
Pt       5.61198648      -0.02257603      26.91530362        1       0.01312029       0.01040216       0.00421854
Pt       1.40037899       2.40943592      26.91584381        1       0.01755248       0.00684981       0.00146590
Pt       4.21330528       2.40973990      26.91473595        1      -0.01868208       0.00722550       0.00464339
Pt       7.01735287       2.40780258      26.91611197        1       0.00102980       0.01158875      -0.00386021
Pt       2.80695334       4.84016935      26.91932912        1       0.00153900       0.00912595      -0.01564709
Pt       5.61113933       4.84015423      26.91628549        1       0.01355184       0.01511567      -0.00396615
Pt       8.42453643       4.83976965      26.91794096        1      -0.01447802       0.01274492      -0.00616459
N        7.00321632       4.86665708      30.75002576        0      -0.00720069      -0.00029149      -0.03579159
H        6.54654746       4.04328040      30.33622584        0       0.01588308      -0.02388657       0.01741287
H        6.54982411       5.68547272      30.32375555        0       0.01609018       0.02413233       0.01732109
H        7.97454059       4.86210299      30.41029752        0      -0.02461321       0.00009408       0.00837528
