40
Lattice="8.421641763931781 0.0 0.0 4.2108208819658905 7.293355709136913 0.0 0.0 0.0 46.87624170604845" Properties=species:S:1:pos:R:3:tags:I:1:forces:R:3 charge=0 spin=0 energy=-206.4229743572152 free_energy=-206.4229743572152 stress="0.010540560819208622 1.7929221485246671e-06 -3.714119145570294e-07 1.7929221485246671e-06 0.010558215901255608 -6.204641977092251e-06 -3.714119145570294e-07 -6.204641977092251e-06 -1.3707842754229205e-06" pbc="T T T"
Pt      -0.00000003       0.00000022      19.95723434        4      -0.00054784       0.00047787       0.01834414
Pt       2.80721396      -0.00000018      19.95723452        4      -0.00019372      -0.00004096       0.01889376
Pt       5.61442778      -0.00000004      19.95723454        4       0.00046733       0.00014578       0.01844647
Pt       1.40360719       2.43111838      19.95723440        4      -0.00053437       0.00050148       0.01778254
Pt       4.21082079       2.43111832      19.95723449        4       0.00018750       0.00008211       0.01779219
Pt       7.01803484       2.43111842      19.95723441        4      -0.00026524       0.00048561       0.01860684
Pt       2.80721406       4.86223725      19.95723409        4       0.00033439       0.00050343       0.01854533
Pt       5.61442803       4.86223733      19.95723425        4       0.00019989       0.00028581       0.01845336
Pt       8.42164141       4.86223723      19.95723442        4      -0.00010983       0.00039387       0.01854151
Pt       1.40360730       0.81037260      22.29206788        3       0.00036394       0.00037424      -0.05395387
Pt       4.21082126       0.81037254      22.29206791        3      -0.00095725       0.00052538      -0.05390904
Pt       7.01803479       0.81037259      22.29206783        3       0.00011191       0.00224911      -0.05218221
Pt       2.80721452       3.24149125      22.29206775        3       0.00011350       0.00077435      -0.04714211
Pt       5.61442760       3.24149123      22.29206789        3       0.00069395       0.00202700      -0.05116811
Pt       8.42164156       3.24149116      22.29206803        3       0.00002315       0.00246741      -0.05136795
Pt       4.21082093       5.67260998      22.29206800        3       0.00065144       0.00124369      -0.05238542
Pt       7.01803487       5.67261039      22.29206775        3      -0.00031243       0.00181142      -0.05125018
Pt       9.82524824       5.67261062      22.29206803        3      -0.00083004       0.00173094      -0.05164404
Pt      -0.00000058       1.62074570      24.58417378        2      -0.00252259       0.00121804       0.05273728
Pt       2.80721444       1.62074548      24.58417392        2       0.00064245       0.00412800       0.05467843
Pt       5.61442778       1.62074537      24.58417373        2       0.00391523       0.00344165       0.05481723
Pt       1.40360636       4.05186440      24.58417384        2       0.00645915      -0.00329334       0.05026997
Pt       4.21082088       4.05186399      24.58417380        2      -0.00728991      -0.00555701       0.05026263
Pt       7.01803502       4.05186406      24.58417406        2       0.00205841      -0.01548354       0.03742849
Pt       2.80721280       6.48298341      24.58417369        2      -0.00180739      -0.01723054       0.04881717
Pt       5.61442796       6.48298324      24.58417387        2       0.00268734      -0.00385466       0.03184712
Pt       8.42164221       6.48298340      24.58417380        2      -0.00323554      -0.00131133       0.03301477
Pt       0.00113345      -0.00844057      26.91310574        1      -0.01034987       0.01942256       0.00816026
Pt       2.80707592      -0.00272235      26.91837581        1       0.00271071       0.00666374      -0.01293845
Pt       5.61371366      -0.00836187      26.91374267        1       0.01039364       0.01763387       0.00567282
Pt       1.39953638       2.42779882      26.91938199        1       0.02091737      -0.01244170      -0.01620589
Pt       4.21523180       2.42708259      26.92036472        1      -0.02127089      -0.00938754      -0.01974961
Pt       7.01835461       2.42647522      26.92592391        1      -0.00228507      -0.01305741      -0.04075048
Pt       2.80733800       4.85202806      26.92458567        1       0.00020000       0.01823682      -0.04395234
Pt       5.61678165       4.85713419      26.91556100        1      -0.01951151      -0.00011101       0.00693404
Pt       8.41924554       4.85806794      26.91602342        1       0.01869441      -0.00583760       0.00452338
N        7.02037999       5.21952123      30.99206677        0      -0.00186961       0.01893663      -0.01826636
H        6.20181545       5.75578869      30.67319373        0       0.03324092      -0.00725848       0.00503059
H        7.84913381       5.74926282      30.68899673        0      -0.03248040      -0.00801149       0.00335290
H        7.02189453       4.34903499      30.44402630        0       0.00130695      -0.00288413       0.00391280
