40
Lattice="8.421641763931781 0.0 0.0 4.2108208819658905 7.293355709136913 0.0 0.0 0.0 46.87624170604845" Properties=species:S:1:pos:R:3:tags:I:1:forces:R:3 charge=0 spin=0 energy=-206.41996837576988 free_energy=-206.41996837576988 stress="0.01037272997200489 -9.42254609981319e-06 -2.194002991018351e-05 -9.42254609981319e-06 0.010558625683188438 -1.2998449165024795e-05 -2.194002991018351e-05 -1.2998449165024795e-05 -0.00017308381211478263" pbc="T T T"
Pt      -0.00000003       0.00000022      19.95723434        4      -0.00007383       0.00330319       0.01855548
Pt       2.80721396      -0.00000018      19.95723452        4       0.00014728       0.00287424       0.01828674
Pt       5.61442778      -0.00000004      19.95723454        4       0.00034350       0.00308976       0.01839461
Pt       1.40360719       2.43111838      19.95723440        4      -0.00006997       0.00319274       0.01753424
Pt       4.21082079       2.43111832      19.95723449        4       0.00054214       0.00285292       0.01739085
Pt       7.01803484       2.43111842      19.95723441        4       0.00007856       0.00294380       0.01841503
Pt       2.80721406       4.86223725      19.95723409        4       0.00072169       0.00375602       0.01822595
Pt       5.61442803       4.86223733      19.95723425        4       0.00037204       0.00318949       0.01855648
Pt       8.42164141       4.86223723      19.95723442        4       0.00011955       0.00323988       0.01880357
Pt       1.40360730       0.81037260      22.29206788        3       0.00378974       0.01116182      -0.05197970
Pt       4.21082126       0.81037254      22.29206791        3       0.00253506       0.01124146      -0.05093999
Pt       7.01803479       0.81037259      22.29206783        3       0.00358379       0.01272003      -0.05070776
Pt       2.80721452       3.24149125      22.29206775        3       0.00227087       0.01408581      -0.04914799
Pt       5.61442760       3.24149123      22.29206789        3       0.00387917       0.01328107      -0.05068423
Pt       8.42164156       3.24149116      22.29206803        3       0.00369662       0.01384764      -0.05147675
Pt       4.21082093       5.67260998      22.29206800        3       0.00343424       0.01128907      -0.05281414
Pt       7.01803487       5.67261039      22.29206775        3       0.00285125       0.01216972      -0.05130415
Pt       9.82524824       5.67261062      22.29206803        3       0.00287852       0.01181071      -0.05386185
Pt      -0.00000058       1.62074570      24.58417378        2      -0.00781373      -0.03772335       0.02996173
Pt       2.80721444       1.62074548      24.58417392        2      -0.00819334      -0.03339547       0.02411746
Pt       5.61442778       1.62074537      24.58417373        2      -0.00981437      -0.03581911       0.02874221
Pt       1.40360636       4.05186440      24.58417384        2      -0.01272948      -0.03718795       0.03093680
Pt       4.21082088       4.05186399      24.58417380        2      -0.00873212      -0.03888714       0.02502472
Pt       7.01803502       4.05186406      24.58417406        2      -0.00581594      -0.03891600       0.00831322
Pt       2.80721280       6.48298341      24.58417369        2      -0.00903207      -0.03173449       0.03410296
Pt       5.61442796       6.48298324      24.58417387        2      -0.01496145      -0.03238723       0.02288940
Pt       8.42164221       6.48298340      24.58417380        2      -0.00698587      -0.03356826       0.02385445
Pt      -0.01064898      -0.04738781      26.91720622        1      -0.00156815       0.01959927      -0.00242010
Pt       2.79644416      -0.04940609      26.91515301        1       0.00724484       0.04001746       0.00889826
Pt       5.60289789      -0.04840414      26.91574833        1       0.01312655       0.02171233       0.00388250
Pt       1.39168364       2.38074065      26.91482882        1       0.01130906       0.02840477       0.00592312
Pt       4.20046129       2.38212955      26.91507580        1      -0.00219066       0.02247467       0.00369488
Pt       7.00607968       2.38530139      26.91506305        1       0.00968161      -0.00330114       0.00718408
Pt       2.79675325       4.81427726      26.91242016        1       0.00627793       0.01826017       0.01090582
Pt       5.60594530       4.81535916      26.91362238        1      -0.02626589       0.01705052       0.01031098
Pt       8.40834383       4.81449888      26.91510243        1       0.03422314       0.01526203       0.01490469
N        6.94197822       4.89912690      30.81718380        0       0.01373775       0.00327590       0.01180052
H        7.96197151       4.89517027      30.68944487        0       0.01391896      -0.00651222       0.00092028
H        6.58453592       4.07033496      30.32377349        0      -0.00895602       0.03066047      -0.00245205
H        6.59082550       5.72083474      30.30792443        0      -0.01756077      -0.02733474      -0.00274215
