40
Lattice="8.421641763931781 0.0 0.0 4.2108208819658905 7.293355709136913 0.0 0.0 0.0 46.87624170604845" Properties=species:S:1:pos:R:3:tags:I:1:forces:R:3 charge=0 spin=0 energy=-206.41953159293297 free_energy=-206.41953159293297 stress="0.010374181903898716 2.5391427698195912e-05 1.4946387636882719e-05 2.5391427698195912e-05 0.010559065267443657 -1.534398688818328e-05 1.4946387636882719e-05 -1.534398688818328e-05 -0.00017524688155390322" pbc="T T T"
Pt      -0.00000003       0.00000022      19.95723434        4      -0.00137452       0.00341614       0.01841079
Pt       2.80721396      -0.00000018      19.95723452        4      -0.00124569       0.00284143       0.01821874
Pt       5.61442778      -0.00000004      19.95723454        4      -0.00079610       0.00295323       0.01847315
Pt       1.40360719       2.43111838      19.95723440        4      -0.00132416       0.00317986       0.01743689
Pt       4.21082079       2.43111832      19.95723449        4      -0.00067456       0.00283242       0.01748000
Pt       7.01803484       2.43111842      19.95723441        4      -0.00106711       0.00291787       0.01842548
Pt       2.80721406       4.86223725      19.95723409        4      -0.00083197       0.00363023       0.01835720
Pt       5.61442803       4.86223733      19.95723425        4      -0.00076193       0.00320100       0.01887753
Pt       8.42164141       4.86223723      19.95723442        4      -0.00102502       0.00322767       0.01853487
Pt       1.40360730       0.81037260      22.29206788        3      -0.00207949       0.01120474      -0.05068029
Pt       4.21082126       0.81037254      22.29206791        3      -0.00360251       0.01244253      -0.05263506
Pt       7.01803479       0.81037259      22.29206783        3      -0.00237635       0.01320377      -0.05064438
Pt       2.80721452       3.24149125      22.29206775        3      -0.00162050       0.01450582      -0.04877974
Pt       5.61442760       3.24149123      22.29206789        3      -0.00242975       0.01337339      -0.05097185
Pt       8.42164156       3.24149116      22.29206803        3      -0.00277120       0.01478208      -0.05093003
Pt       4.21082093       5.67260998      22.29206800        3      -0.00273379       0.01212084      -0.05419757
Pt       7.01803487       5.67261039      22.29206775        3      -0.00282886       0.01292720      -0.05126176
Pt       9.82524824       5.67261062      22.29206803        3      -0.00372334       0.01274105      -0.05269188
Pt      -0.00000058       1.62074570      24.58417378        2       0.01180174      -0.03767175       0.02859983
Pt       2.80721444       1.62074548      24.58417392        2       0.00893090      -0.03462481       0.02413958
Pt       5.61442778       1.62074537      24.58417373        2       0.01028227      -0.03789990       0.02884996
Pt       1.40360636       4.05186440      24.58417384        2       0.00904780      -0.04053107       0.02467277
Pt       4.21082088       4.05186399      24.58417380        2       0.01257535      -0.03874224       0.03009314
Pt       7.01803502       4.05186406      24.58417406        2       0.00743980      -0.04060137       0.00773313
Pt       2.80721280       6.48298341      24.58417369        2       0.00770748      -0.03394628       0.03408390
Pt       5.61442796       6.48298324      24.58417387        2       0.00454774      -0.03652640       0.02411678
Pt       8.42164221       6.48298340      24.58417380        2       0.01418573      -0.03260720       0.02260208
Pt       0.01161729      -0.04984690      26.91589786        1      -0.01399541       0.02190270       0.00348074
Pt       2.81875214      -0.05159496      26.91459820        1      -0.00717716       0.04015077       0.01022688
Pt       5.62534547      -0.05014404      26.91704036        1       0.00072343       0.02031241      -0.00209683
Pt       1.41347908       2.37930692      26.91572900        1       0.00152071       0.02390060       0.00250731
Pt       4.22228599       2.37895185      26.91472568        1      -0.01079200       0.02935043       0.00647312
Pt       7.02848998       2.38299573      26.91541302        1      -0.00833985      -0.00247061       0.00751124
Pt       2.81719194       4.81206330      26.91242777        1      -0.00566107       0.01924906       0.01142075
Pt       5.62710314       4.81285208      26.91508775        1      -0.03367222       0.01545931       0.01530462
Pt       8.42973453       4.81172267      26.91337998        1       0.02543356       0.01970960       0.01120911
N        7.09362545       4.90115685      30.81357051        0      -0.01454359       0.00312244       0.01139713
H        7.44760961       4.08142505      30.30278706        0       0.00894387       0.03330593      -0.00112680
H        6.07352953       4.90380466      30.68644233        0      -0.01275845      -0.00697477       0.00064003
H        7.44774755       5.73215246      30.32162025        0       0.01706637      -0.02936807      -0.00326070
