40
Lattice="8.421641763931781 0.0 0.0 4.2108208819658905 7.293355709136913 0.0 0.0 0.0 46.87624170604845" Properties=species:S:1:pos:R:3:tags:I:1:forces:R:3 charge=0 spin=0 energy=-206.4181907268441 free_energy=-206.4181907268441 stress="0.010382698848843575 7.3040005190705415e-06 -6.111269158282084e-06 7.3040005190705415e-06 0.01057311799377203 -1.1916143193957396e-05 -6.111269158282084e-06 -1.1916143193957396e-05 -0.00018376913794782013" pbc="T T T"
Pt      -0.00000003       0.00000022      19.95723434        4      -0.00098185       0.00389774       0.01839446
Pt       2.80721396      -0.00000018      19.95723452        4      -0.00056924       0.00363895       0.01850313
Pt       5.61442778      -0.00000004      19.95723454        4       0.00004528       0.00362094       0.01839654
Pt       1.40360719       2.43111838      19.95723440        4      -0.00039835       0.00366224       0.01714785
Pt       4.21082079       2.43111832      19.95723449        4      -0.00036889       0.00329494       0.01719493
Pt       7.01803484       2.43111842      19.95723441        4      -0.00047787       0.00323441       0.01848269
Pt       2.80721406       4.86223725      19.95723409        4       0.00000722       0.00393354       0.01851297
Pt       5.61442803       4.86223733      19.95723425        4      -0.00023597       0.00348927       0.01881630
Pt       8.42164141       4.86223723      19.95723442        4      -0.00030195       0.00351604       0.01877416
Pt       1.40360730       0.81037260      22.29206788        3       0.00133189       0.01271037      -0.05176039
Pt       4.21082126       0.81037254      22.29206791        3      -0.00036312       0.01323724      -0.05246810
Pt       7.01803479       0.81037259      22.29206783        3       0.00093363       0.01501837      -0.04996181
Pt       2.80721452       3.24149125      22.29206775        3       0.00061670       0.01579256      -0.04490783
Pt       5.61442760       3.24149123      22.29206789        3       0.00153314       0.01550149      -0.05130427
Pt       8.42164156       3.24149116      22.29206803        3       0.00060758       0.01618765      -0.05209408
Pt       4.21082093       5.67260998      22.29206800        3       0.00122463       0.01386608      -0.05405047
Pt       7.01803487       5.67261039      22.29206775        3       0.00040949       0.01402595      -0.05254402
Pt       9.82524824       5.67261062      22.29206803        3      -0.00073526       0.01434490      -0.05366158
Pt      -0.00000058       1.62074570      24.58417378        2      -0.00019046      -0.04078650       0.02080569
Pt       2.80721444       1.62074548      24.58417392        2      -0.00072025      -0.03789494       0.01964772
Pt       5.61442778       1.62074537      24.58417373        2       0.00023205      -0.03901879       0.02077594
Pt       1.40360636       4.05186440      24.58417384        2       0.00095665      -0.04357639       0.02864647
Pt       4.21082088       4.05186399      24.58417380        2      -0.00339030      -0.04409548       0.02752613
Pt       7.01803502       4.05186406      24.58417406        2       0.00038724      -0.04652495       0.01534757
Pt       2.80721280       6.48298341      24.58417369        2      -0.00167738      -0.04243248       0.03330332
Pt       5.61442796       6.48298324      24.58417387        2      -0.00251293      -0.03970066       0.02316376
Pt       8.42164221       6.48298340      24.58417380        2      -0.00165250      -0.03767502       0.02273135
Pt      -0.00079611      -0.05441849      26.91574489        1      -0.00602627       0.00954047       0.00918602
Pt       2.80624754      -0.05453280      26.91595099        1       0.00058167       0.01697768       0.00176000
Pt       5.61281381      -0.05510066      26.91535904        1       0.00749635       0.01061626       0.01019817
Pt       1.40002761       2.37126420      26.91455402        1       0.01394198       0.04305754       0.01249293
Pt       4.21131575       2.37169394      26.91431760        1      -0.01240268       0.04319220       0.01308646
Pt       7.01621974       2.37308611      26.91664696        1       0.00105818       0.02783841       0.00182260
Pt       2.80579552       4.80574382      26.91574428        1       0.00121265       0.01901912      -0.00158672
Pt       5.61203839       4.80661421      26.91280668        1      -0.00629613       0.02058215       0.01569116
Pt       8.42104461       4.80612317      26.91281152        1       0.00649248       0.01944021       0.01524341
N        7.01816997       4.93133886      30.72428645        0       0.00013964       0.00791184      -0.00212404
H        7.02022021       4.03793483      30.21368465        0       0.00033164       0.04624593       0.01614415
H        6.19658218       5.45774098      30.39838266        0       0.02509946      -0.02760976      -0.00213479
H        7.84647429       5.45470658      30.41067808        0      -0.02533793      -0.02807969      -0.00319779
