40
Lattice="8.421641763931781 0.0 0.0 4.2108208819658905 7.293355709136913 0.0 0.0 0.0 46.87624170604845" Properties=species:S:1:pos:R:3:tags:I:1:forces:R:3 charge=0 spin=0 energy=-206.42440296134117 free_energy=-206.42440296134117 stress="0.010450427420437336 -1.0174068847845774e-05 5.418939963419689e-06 -1.0174068847845774e-05 0.010484169237315655 5.092902597425564e-07 5.418939963419689e-06 5.092902597425564e-07 -0.00012359516404103488" pbc="T T T"
Pt      -0.00000003       0.00000022      19.95723434        4       0.00002263       0.00051002       0.01831810
Pt       2.80721396      -0.00000018      19.95723452        4       0.00000270      -0.00002449       0.01821662
Pt       5.61442778      -0.00000004      19.95723454        4       0.00033712       0.00026916       0.01836712
Pt       1.40360719       2.43111838      19.95723440        4      -0.00004727       0.00047064       0.01774796
Pt       4.21082079       2.43111832      19.95723449        4       0.00052162      -0.00007643       0.01796024
Pt       7.01803484       2.43111842      19.95723441        4       0.00006290       0.00015006       0.01835852
Pt       2.80721406       4.86223725      19.95723409        4       0.00047744       0.00070613       0.01828292
Pt       5.61442803       4.86223733      19.95723425        4       0.00025544       0.00023855       0.01891992
Pt       8.42164141       4.86223723      19.95723442        4       0.00024517       0.00043318       0.01851433
Pt       1.40360730       0.81037260      22.29206788        3       0.00165844      -0.00064807      -0.05078035
Pt       4.21082126       0.81037254      22.29206791        3      -0.00024703       0.00035310      -0.05130283
Pt       7.01803479       0.81037259      22.29206783        3       0.00154721       0.00144463      -0.05136519
Pt       2.80721452       3.24149125      22.29206775        3       0.00184154       0.00230148      -0.04958518
Pt       5.61442760       3.24149123      22.29206789        3       0.00131326       0.00116139      -0.05094281
Pt       8.42164156       3.24149116      22.29206803        3       0.00049892       0.00285145      -0.05161503
Pt       4.21082093       5.67260998      22.29206800        3       0.00131132       0.00045328      -0.05297974
Pt       7.01803487       5.67261039      22.29206775        3       0.00098247       0.00078137      -0.05242676
Pt       9.82524824       5.67261062      22.29206803        3      -0.00018326       0.00075438      -0.05277534
Pt      -0.00000058       1.62074570      24.58417378        2       0.00168872      -0.00455875       0.03100913
Pt       2.80721444       1.62074548      24.58417392        2      -0.00184487      -0.00047384       0.02454431
Pt       5.61442778       1.62074537      24.58417373        2      -0.00502749      -0.00303273       0.03087321
Pt       1.40360636       4.05186440      24.58417384        2      -0.00022611      -0.00856550       0.02771626
Pt       4.21082088       4.05186399      24.58417380        2       0.00037178      -0.00462718       0.03208093
Pt       7.01803502       4.05186406      24.58417406        2      -0.00479147      -0.00204338       0.02660148
Pt       2.80721280       6.48298341      24.58417369        2      -0.00395816      -0.00243326       0.03362424
Pt       5.61442796       6.48298324      24.58417387        2      -0.00728416      -0.00470344       0.03763957
Pt       8.42164221       6.48298340      24.58417380        2       0.00136657       0.00290168       0.03309509
Pt      -0.00550099      -0.00341541      26.91658211        1       0.01579180      -0.00020802      -0.00250163
Pt       2.80417505      -0.00353188      26.91436247        1       0.00409265      -0.00510114       0.00586105
Pt       5.61393708      -0.00145726      26.91672973        1      -0.01418067      -0.01043084      -0.00366863
Pt       1.40096782       2.42375913      26.91545300        1      -0.00420702       0.01486890      -0.00019737
Pt       4.20678802       2.42639661      26.91548005        1       0.00601137       0.00245990       0.00084972
Pt       7.01415208       2.42819589      26.91425812        1       0.00398462       0.00243804       0.01051310
Pt       2.80459077       4.85779970      26.91246562        1      -0.00661586       0.00349308       0.00883757
Pt       5.61083401       4.85788598      26.91709092        1       0.00338210       0.00682871      -0.00023263
Pt       8.42008553       4.85860142      26.91319376        1       0.00072368       0.00066565       0.00305665
N        6.98542454       4.96157961      31.01032297        0       0.00057207       0.00841847       0.00944179
H        7.25184542       5.76990009      30.43327740        0       0.01809254       0.01050260      -0.00873272
H        7.24800089       4.12680938      30.46999896        0      -0.00433252      -0.00193490      -0.00233322
H        5.95805230       4.96777821      31.04940817        0      -0.01421048      -0.01659384       0.00100984
