40
Lattice="8.421641763931781 0.0 0.0 4.2108208819658905 7.293355709136913 0.0 0.0 0.0 46.87624170604845" Properties=species:S:1:pos:R:3:tags:I:1:forces:R:3 charge=0 spin=0 energy=-206.42544246634606 free_energy=-206.42544246634606 stress="0.010507246479392052 3.864459358737804e-06 -3.484170520096086e-06 3.864459358737804e-06 0.0105384960770607 -4.16630564359366e-06 -3.484170520096086e-06 -4.16630564359366e-06 -3.383473813300952e-05" pbc="T T T"
Pt      -0.00000003       0.00000022      19.95723434        4      -0.00049740       0.00059787       0.01861992
Pt       2.80721396      -0.00000018      19.95723452        4      -0.00042114       0.00070692       0.01838837
Pt       5.61442778      -0.00000004      19.95723454        4       0.00025450       0.00021996       0.01869895
Pt       1.40360719       2.43111838      19.95723440        4      -0.00014587       0.00098057       0.01754276
Pt       4.21082079       2.43111832      19.95723449        4      -0.00014096       0.00046379       0.01765544
Pt       7.01803484       2.43111842      19.95723441        4      -0.00016210       0.00056199       0.01847993
Pt       2.80721406       4.86223725      19.95723409        4       0.00022056       0.00091410       0.01832698
Pt       5.61442803       4.86223733      19.95723425        4      -0.00019715       0.00077877       0.01882279
Pt       8.42164141       4.86223723      19.95723442        4       0.00012042       0.00087970       0.01889354
Pt       1.40360730       0.81037260      22.29206788        3      -0.00064194       0.00155464      -0.05057588
Pt       4.21082126       0.81037254      22.29206791        3       0.00026256       0.00215132      -0.05156889
Pt       7.01803479       0.81037259      22.29206783        3       0.00030873       0.00371593      -0.05385980
Pt       2.80721452       3.24149125      22.29206775        3      -0.00021857       0.00376008      -0.04556886
Pt       5.61442760       3.24149123      22.29206789        3       0.00150372       0.00319683      -0.05311128
Pt       8.42164156       3.24149116      22.29206803        3      -0.00057721       0.00381293      -0.05398640
Pt       4.21082093       5.67260998      22.29206800        3       0.00027608       0.00205338      -0.05201045
Pt       7.01803487       5.67261039      22.29206775        3      -0.00021755       0.00228169      -0.05181513
Pt       9.82524824       5.67261062      22.29206803        3      -0.00105699       0.00300621      -0.05170043
Pt      -0.00000058       1.62074570      24.58417378        2       0.01411554      -0.01349830       0.04442193
Pt       2.80721444       1.62074548      24.58417392        2       0.00006364       0.00370736       0.03987035
Pt       5.61442778       1.62074537      24.58417373        2      -0.01099456      -0.01211600       0.04258559
Pt       1.40360636       4.05186440      24.58417384        2       0.00476797      -0.00841091       0.05338374
Pt       4.21082088       4.05186399      24.58417380        2      -0.00648486      -0.00895625       0.05068689
Pt       7.01803502       4.05186406      24.58417406        2       0.00213477      -0.00610594       0.02395039
Pt       2.80721280       6.48298341      24.58417369        2       0.00004058      -0.01225553       0.05728368
Pt       5.61442796       6.48298324      24.58417387        2      -0.00817944      -0.00773899       0.03630228
Pt       8.42164221       6.48298340      24.58417380        2       0.00631645      -0.00823795       0.03671655
Pt       0.00061875      -0.01252450      26.92077642        1      -0.00216322       0.01334720      -0.02044738
Pt       2.80790921      -0.00868989      26.91177531        1      -0.00040697       0.00496607       0.01531858
Pt       5.61471083      -0.01283788      26.91952602        1       0.00220945       0.01220551      -0.01703572
Pt       1.40412690       2.42156493      26.92170899        1       0.00027882      -0.00454681      -0.02573858
Pt       4.21094418       2.42236911      26.92092378        1      -0.00099294      -0.00594236      -0.02245316
Pt       7.01822200       2.41750137      26.91086855        1      -0.00228966       0.00644842       0.01819533
Pt       2.80646049       4.85157915      26.92323780        1       0.00246846       0.00391684      -0.02961099
Pt       5.61498412       4.85151587      26.91580049        1      -0.01269031       0.00535663       0.00152107
Pt       8.42115040       4.85049678      26.91738534        1       0.01235023       0.00623450      -0.00495298
N        7.00878522       4.86228481      30.83568073        0       0.00895927      -0.00145291       0.01422994
H        6.06975054       4.87244109      30.41684362        0       0.00765698       0.00290820      -0.00567252
H        7.49795623       5.69339017      30.47936042        0      -0.01040389       0.00604277      -0.00592044
H        7.49614094       4.04758742      30.44109781        0      -0.00542605      -0.00750816      -0.00386591
