40
Lattice="8.421641763931781 0.0 0.0 4.2108208819658905 7.293355709136913 0.0 0.0 0.0 46.87624170604845" Properties=species:S:1:pos:R:3:tags:I:1:forces:R:3 charge=0 spin=0 energy=-206.4181907268441 free_energy=-206.4181907268441 stress="0.010382694192230701 7.3147425609931815e-06 -6.121209480625112e-06 7.3147425609931815e-06 0.010573102161288261 -1.192061336041661e-05 -6.121209480625112e-06 -1.192061336041661e-05 -0.00018377068045083433" pbc="T T T"
Pt      -0.00000003       0.00000022      19.95723434        4      -0.00098181       0.00389780       0.01839439
Pt       2.80721396      -0.00000018      19.95723452        4      -0.00056924       0.00363892       0.01850322
Pt       5.61442778      -0.00000004      19.95723454        4       0.00004508       0.00362086       0.01839658
Pt       1.40360719       2.43111838      19.95723440        4      -0.00039835       0.00366238       0.01714785
Pt       4.21082079       2.43111832      19.95723449        4      -0.00036888       0.00329488       0.01719488
Pt       7.01803484       2.43111842      19.95723441        4      -0.00047799       0.00323442       0.01848275
Pt       2.80721406       4.86223725      19.95723409        4       0.00000715       0.00393349       0.01851305
Pt       5.61442803       4.86223733      19.95723425        4      -0.00023586       0.00348920       0.01881619
Pt       8.42164141       4.86223723      19.95723442        4      -0.00030169       0.00351608       0.01877423
Pt       1.40360730       0.81037260      22.29206788        3       0.00133174       0.01271005      -0.05176021
Pt       4.21082126       0.81037254      22.29206791        3      -0.00036341       0.01323721      -0.05246841
Pt       7.01803479       0.81037259      22.29206783        3       0.00093371       0.01501801      -0.04996175
Pt       2.80721452       3.24149125      22.29206775        3       0.00061654       0.01579238      -0.04490815
Pt       5.61442760       3.24149123      22.29206789        3       0.00153303       0.01550142      -0.05130471
Pt       8.42164156       3.24149116      22.29206803        3       0.00060745       0.01618740      -0.05209422
Pt       4.21082093       5.67260998      22.29206800        3       0.00122469       0.01386589      -0.05405031
Pt       7.01803487       5.67261039      22.29206775        3       0.00040937       0.01402597      -0.05254366
Pt       9.82524824       5.67261062      22.29206803        3      -0.00073527       0.01434463      -0.05366114
Pt      -0.00000058       1.62074570      24.58417378        2      -0.00019015      -0.04078687       0.02080572
Pt       2.80721444       1.62074548      24.58417392        2      -0.00071965      -0.03789491       0.01964824
Pt       5.61442778       1.62074537      24.58417373        2       0.00023213      -0.03901939       0.02077825
Pt       1.40360636       4.05186440      24.58417384        2       0.00095684      -0.04357585       0.02864597
Pt       4.21082088       4.05186399      24.58417380        2      -0.00338985      -0.04409507       0.02752558
Pt       7.01803502       4.05186406      24.58417406        2       0.00038743      -0.04652447       0.01534539
Pt       2.80721280       6.48298341      24.58417369        2      -0.00167775      -0.04243118       0.03330411
Pt       5.61442796       6.48298324      24.58417387        2      -0.00251292      -0.03970050       0.02316420
Pt       8.42164221       6.48298340      24.58417380        2      -0.00165302      -0.03767483       0.02273046
Pt      -0.00079592      -0.05441845      26.91574531        1      -0.00602763       0.00954304       0.00918545
Pt       2.80624745      -0.05453289      26.91595033        1       0.00058105       0.01698117       0.00176007
Pt       5.61281359      -0.05510096      26.91535986        1       0.00750230       0.01062198       0.01019798
Pt       1.40002774       2.37126496      26.91455443        1       0.01394268       0.04305489       0.01249288
Pt       4.21131550       2.37169480      26.91431816        1      -0.01240197       0.04318696       0.01308542
Pt       7.01621996       2.37308695      26.91664738        1       0.00105481       0.02783296       0.00182249
Pt       2.80579566       4.80574411      26.91574444        1       0.00121124       0.01901845      -0.00158570
Pt       5.61203890       4.80661463      26.91280741        1      -0.00629868       0.02058320       0.01569226
Pt       8.42104439       4.80612349      26.91281187        1       0.00649322       0.01944128       0.01524489
N        7.01816920       4.93133915      30.72428099        0       0.00021922       0.00792804      -0.00208816
H        6.19658275       5.45774075      30.39837786        0       0.02505057      -0.02758360      -0.00215890
H        7.84647458       5.45470651      30.41067267        0      -0.02536193      -0.02809278      -0.00319017
H        7.02022032       4.03793447      30.21368136        0       0.00032587       0.04621633       0.01612283
