40
Lattice="8.421641763931781 0.0 0.0 4.2108208819658905 7.293355709136913 0.0 0.0 0.0 46.87624170604845" Properties=species:S:1:pos:R:3:tags:I:1:forces:R:3 charge=0 spin=0 energy=-206.99402881583336 free_energy=-206.99402881583336 stress="0.009987534955143929 -3.525788656588702e-07 7.705192928142424e-09 -3.525788656588702e-07 0.009987656958401203 -1.0362223292759154e-06 7.705192928142424e-09 -1.0362223292759154e-06 -0.00026545498985797167" pbc="T T T"
Pt      -0.00000003       0.00000022      19.95723434        4       0.00000304      -0.00000396       0.02403354
Pt       2.80721396      -0.00000018      19.95723452        4       0.00275809       0.00450030       0.02176478
Pt       5.61442778      -0.00000004      19.95723454        4      -0.00411547       0.00395645       0.02167070
Pt       1.40360719       2.43111838      19.95723440        4       0.00548144       0.00159089       0.02170204
Pt       4.21082079       2.43111832      19.95723449        4       0.00000442       0.00000052      -0.04371347
Pt       7.01803484       2.43111842      19.95723441        4      -0.00527704       0.00014564       0.02178611
Pt       2.80721406       4.86223725      19.95723409        4       0.00251516      -0.00464435       0.02176283
Pt       5.61442803       4.86223733      19.95723425        4      -0.00137046      -0.00554722       0.02173255
Pt       8.42164141       4.86223723      19.95723442        4       0.00000102      -0.00000095       0.01866719
Pt       1.40360730       0.81037260      22.29206788        3      -0.00083829       0.00318775      -0.07594838
Pt       4.21082126       0.81037254      22.29206791        3      -0.00064719       0.02711810      -0.08363432
Pt       7.01803479       0.81037259      22.29206783        3      -0.00233364      -0.00236049      -0.07600169
Pt       2.80721452       3.24149125      22.29206775        3       0.02383255      -0.01303026      -0.08372436
Pt       5.61442760       3.24149123      22.29206789        3      -0.02319467      -0.01407795      -0.08373767
Pt       8.42164156       3.24149116      22.29206803        3      -0.00139915       0.00146770      -0.04505020
Pt       4.21082093       5.67260998      22.29206800        3       0.00317519      -0.00083509      -0.07611097
Pt       7.01803487       5.67261039      22.29206775        3       0.00197488       0.00053803      -0.04509688
Pt       9.82524824       5.67261062      22.29206803        3      -0.00056599      -0.00202231      -0.04513630
Pt      -0.00000058       1.62074570      24.58417378        2       0.00064994      -0.00216600       0.00156557
Pt       2.80721444       1.62074548      24.58417392        2       0.04469858       0.02020657      -0.07586303
Pt       5.61442778       1.62074537      24.58417373        2      -0.03984321       0.02852665      -0.07575726
Pt       1.40360636       4.05186440      24.58417384        2      -0.13574098       0.08369654       0.24992380
Pt       4.21082088       4.05186399      24.58417380        2      -0.00485256      -0.04875148      -0.07555153
Pt       7.01803502       4.05186406      24.58417406        2       0.14028977       0.07585245       0.24996592
Pt       2.80721280       6.48298341      24.58417369        2       0.00153051       0.00158590       0.00186548
Pt       5.61442796       6.48298324      24.58417387        2      -0.00218581       0.00058179       0.00179753
Pt       8.42164221       6.48298340      24.58417380        2      -0.00455477      -0.15958115       0.25028878
Pt      -0.00000007       0.00001773      26.92121205        1       0.00001139      -0.00006105       0.01337000
Pt       2.79846709       0.01674671      26.90900477        1      -0.00052279      -0.00440679      -0.01937700
Pt       5.62713595       0.02142037      26.90509467        1      -0.00671262      -0.01769201      -0.00068816
Pt       1.41580434       2.40943439      26.90504726        1      -0.01179123       0.01432583      -0.00068971
Pt       4.21082031       2.43113313      26.92491143        1       0.00000508      -0.00005857       0.00075994
Pt       7.00790407       2.41519026      26.90896873        1       0.00388951       0.00139408      -0.01922079
Pt       2.82609011       4.86147769      26.90900685        1      -0.00337492       0.00263952      -0.01936440
Pt       5.58953320       4.86256164      26.90508739        1       0.01850513       0.00297953      -0.00073730
Pt       8.42164658       4.86211400      26.99537994        1      -0.00000531      -0.00011175      -0.02210837
N        8.42163995       4.86205519      29.14790387        0       0.00006413       0.00057990       0.02130507
H        8.90784001       4.02290566      29.48841150        0      -0.00487483       0.00597635      -0.00022489
H        7.45162189       4.86089332      29.48782767        0       0.00692939       0.00066311       0.00119459
H        8.90545812       5.70302932      29.48724533        0      -0.00211838      -0.00616234       0.00258050
