40
Lattice="8.421641763931781 0.0 0.0 4.2108208819658905 7.293355709136913 0.0 0.0 0.0 46.87624170604845" Properties=species:S:1:pos:R:3:tags:I:1:forces:R:3 charge=0 spin=0 energy=-206.99314571341637 free_energy=-206.99314571341637 stress="0.010025978088378906 -2.723367060752935e-07 -2.0039026438212204e-08 -2.723367060752935e-07 0.010025925934314728 1.1619393944783951e-06 -2.0039026438212204e-08 1.1619393944783951e-06 -0.0002546242321841419" pbc="T T T"
Pt      -0.00000003       0.00000022      19.95723434        4       0.00000089      -0.00000323       0.02384332
Pt       2.80721396      -0.00000018      19.95723452        4       0.00294578       0.00443798       0.02106763
Pt       5.61442778      -0.00000004      19.95723454        4      -0.00391704       0.00383226       0.02255229
Pt       1.40360719       2.43111838      19.95723440        4       0.00527803       0.00149039       0.02258719
Pt       4.21082079       2.43111832      19.95723449        4       0.00000180       0.00000385      -0.04415539
Pt       7.01803484       2.43111842      19.95723441        4      -0.00532118       0.00034087       0.02108578
Pt       2.80721406       4.86223725      19.95723409        4       0.00237468      -0.00477868       0.02106956
Pt       5.61442803       4.86223733      19.95723425        4      -0.00136248      -0.00531662       0.02261281
Pt       8.42164141       4.86223723      19.95723442        4       0.00000161      -0.00000446       0.01830154
Pt       1.40360730       0.81037260      22.29206788        3       0.00024403       0.00118336      -0.07617345
Pt       4.21082126       0.81037254      22.29206791        3      -0.00258494       0.02789491      -0.08512936
Pt       7.01803479       0.81037259      22.29206783        3      -0.00112901      -0.00041728      -0.07621594
Pt       2.80721452       3.24149125      22.29206775        3       0.02544795      -0.01173731      -0.08512903
Pt       5.61442760       3.24149123      22.29206789        3      -0.02286859      -0.01614074      -0.08515143
Pt       8.42164156       3.24149116      22.29206803        3      -0.00309088       0.00175487      -0.04469504
Pt       4.21082093       5.67260998      22.29206800        3       0.00088690      -0.00074200      -0.07631149
Pt       7.01803487       5.67261039      22.29206775        3       0.00306491       0.00184906      -0.04475009
Pt       9.82524824       5.67261062      22.29206803        3       0.00002749      -0.00362476      -0.04478242
Pt      -0.00000058       1.62074570      24.58417378        2       0.00868183       0.00195270       0.00927799
Pt       2.80721444       1.62074548      24.58417392        2       0.03283458       0.03258627      -0.07058492
Pt       5.61442778       1.62074537      24.58417373        2      -0.04460388       0.01211567      -0.07048329
Pt       1.40360636       4.05186440      24.58417384        2      -0.13556719       0.08266453       0.25616872
Pt       4.21082088       4.05186399      24.58417380        2       0.01174555      -0.04469178      -0.07032474
Pt       7.01803502       4.05186406      24.58417406        2       0.13939184       0.07606907       0.25619432
Pt       2.80721280       6.48298341      24.58417369        2      -0.00597967       0.00640268       0.00947369
Pt       5.61442796       6.48298324      24.58417387        2      -0.00268595      -0.00846923       0.00938772
Pt       8.42164221       6.48298340      24.58417380        2      -0.00383042      -0.15862399       0.25574642
Pt      -0.00000038      -0.00001517      26.91809828        1       0.00000166       0.00004697       0.02028782
Pt       2.79575493       0.02287383      26.90765847        1       0.00275882      -0.02039388      -0.00845902
Pt       5.62200610       0.01531426      26.91221934        1       0.00972086       0.00116316      -0.03515756
Pt       1.41310998       2.41686579      26.91224586        1      -0.00416218      -0.00857743      -0.03534592
Pt       4.21081902       2.43109558      26.92376892        1       0.00000364       0.00008131       0.00684661
Pt       7.00392288       2.40972126      26.90767958        1       0.01656562       0.01295594      -0.00844524
Pt       2.83278518       4.86068108      26.90769751        1      -0.01927259       0.00787349      -0.00855145
Pt       5.59734979       4.86109735      26.91225309        1      -0.00560811       0.00783956      -0.03532507
Pt       8.42164133       4.86234994      26.99600592        1      -0.00000294       0.00027581      -0.04653710
N        8.42164076       4.86244937      29.14488641        0      -0.00001930      -0.00005975       0.00996644
H        7.93385403       5.70308443      29.48074271        0       0.01914188      -0.03224896       0.01351262
H        9.39376052       4.86417524      29.48005089        0      -0.03678462      -0.00051079       0.01508861
H        7.93731272       4.01932310      29.47936456        0       0.01767077       0.03152633       0.01663684
