40
Lattice="8.421641763931781 0.0 0.0 4.2108208819658905 7.293355709136913 0.0 0.0 0.0 46.87624170604845" Properties=species:S:1:pos:R:3:tags:I:1:forces:R:3 charge=0 spin=0 energy=-206.42858005484703 free_energy=-206.42858005484703 stress="0.01026410423219204 -3.54761091614364e-08 -4.1978112652607535e-10 -3.54761091614364e-08 0.010264080949127674 -1.1013731260334225e-08 -4.1978112652607535e-10 -1.1013731260334225e-08 -0.00026110594626516104" pbc="T T T"
Pt      -0.00000003       0.00000022      19.95723434        4       0.00000154      -0.00000276       0.02029729
Pt       2.80721396      -0.00000018      19.95723452        4      -0.00032633       0.00182061       0.01994252
Pt       5.61442778      -0.00000004      19.95723454        4      -0.00076799       0.00085600       0.01998408
Pt       1.40360719       2.43111838      19.95723440        4       0.00112601       0.00023941       0.02000815
Pt       4.21082079       2.43111832      19.95723449        4       0.00000281       0.00000166      -0.00014005
Pt       7.01803484       2.43111842      19.95723441        4      -0.00141259      -0.00118869       0.01994818
Pt       2.80721406       4.86223725      19.95723409        4       0.00173610      -0.00063034       0.01994286
Pt       5.61442803       4.86223733      19.95723425        4      -0.00036046      -0.00109396       0.02001695
Pt       8.42164141       4.86223723      19.95723442        4       0.00000118      -0.00000245       0.02016572
Pt       1.40360730       0.81037260      22.29206788        3       0.00040292      -0.00124451      -0.06090708
Pt       4.21082126       0.81037254      22.29206791        3      -0.00138092      -0.00405044      -0.04470957
Pt       7.01803479       0.81037259      22.29206783        3       0.00087722       0.00094084      -0.06093425
Pt       2.80721452       3.24149125      22.29206775        3      -0.00280379       0.00320420      -0.04472653
Pt       5.61442760       3.24149123      22.29206789        3       0.00417690       0.00085908      -0.04471920
Pt       8.42164156       3.24149116      22.29206803        3      -0.00066157       0.00111832      -0.05526658
Pt       4.21082093       5.67260998      22.29206800        3      -0.00127897       0.00030558      -0.06095967
Pt       7.01803487       5.67261039      22.29206775        3       0.00129347       0.00004699      -0.05527175
Pt       9.82524824       5.67261062      22.29206803        3      -0.00062731      -0.00117504      -0.05531007
Pt      -0.00000058       1.62074570      24.58417378        2       0.00342862      -0.00873841       0.01364664
Pt       2.80721444       1.62074548      24.58417392        2       0.02254792       0.01272572      -0.01357587
Pt       5.61442778       1.62074537      24.58417373        2      -0.02226144       0.01314553      -0.01347099
Pt       1.40360636       4.05186440      24.58417384        2      -0.03512547       0.02281779       0.07014442
Pt       4.21082088       4.05186399      24.58417380        2      -0.00026437      -0.02587546      -0.01351306
Pt       7.01803502       4.05186406      24.58417406        2       0.03731882       0.01898357       0.07019490
Pt       2.80721280       6.48298341      24.58417369        2       0.00583082       0.00737617       0.01370062
Pt       5.61442796       6.48298324      24.58417387        2      -0.00930137       0.00138886       0.01364851
Pt       8.42164221       6.48298340      24.58417380        2      -0.00217132      -0.04182030       0.07018778
Pt       0.00000042      -0.00000072      26.92112110        1      -0.00000012       0.00000009       0.00084932
Pt       2.80162592       0.00752497      26.91021870        1       0.00360057      -0.00422101       0.00503404
Pt       5.61995513       0.00735408      26.91002326        1      -0.00381315      -0.00428391       0.00499030
Pt       1.40720383       2.42265540      26.90998943        1      -0.00177600       0.00545390       0.00501203
Pt       4.21082156       2.43111951      26.91866826        1      -0.00000115      -0.00000220       0.00053393
Pt       7.01431236       2.42250576      26.91024130        1       0.00183973       0.00524816       0.00501059
Pt       2.81652574       4.86332560      26.91021312        1      -0.00544631      -0.00102863       0.00509097
Pt       5.60530286       4.86334654      26.90999350        1       0.00559202      -0.00117115       0.00504880
Pt       8.42164015       4.86223662      26.93320687        1       0.00000286      -0.00000185       0.03794080
N        8.42164088       4.86223792      29.84016393        0      -0.00001062      -0.00008603       0.04957124
H        7.56955597       4.37023335      29.56532077        0      -0.02001504      -0.01167196      -0.00245888
H        8.42159650       5.84616580      29.56532062        0      -0.00010379       0.02325456      -0.00248456
H        9.27377167       4.37031106      29.56532045        0       0.02013052      -0.01149761      -0.00246255
