40
Lattice="8.421641763931781 0.0 0.0 4.2108208819658905 7.293355709136913 0.0 0.0 0.0 46.87624170604845" Properties=species:S:1:pos:R:3:tags:I:1:forces:R:3 charge=0 spin=0 energy=-206.4284103008187 free_energy=-206.4284103008187 stress="0.010261696763336658 -4.2305791225771827e-07 -3.37629231239589e-08 -4.2305791225771827e-07 0.01026162039488554 -1.4527373082273698e-07 -3.37629231239589e-08 -1.4527373082273698e-07 -0.00026238130521960557" pbc="T T T"
Pt      -0.00000003       0.00000022      19.95723434        4       0.00000167      -0.00000223       0.02019305
Pt       2.80721396      -0.00000018      19.95723452        4      -0.00058267       0.00188348       0.01972772
Pt       5.61442778      -0.00000004      19.95723454        4      -0.00059897       0.00107144       0.02017302
Pt       1.40360719       2.43111838      19.95723440        4       0.00122678      -0.00001441       0.02019568
Pt       4.21082079       2.43111832      19.95723449        4       0.00000266       0.00000151      -0.00017655
Pt       7.01803484       2.43111842      19.95723441        4      -0.00133721      -0.00144220       0.01973362
Pt       2.80721406       4.86223725      19.95723409        4       0.00191688      -0.00043928       0.01972838
Pt       5.61442803       4.86223733      19.95723425        4      -0.00063075      -0.00105611       0.02020550
Pt       8.42164141       4.86223723      19.95723442        4       0.00000118      -0.00000211       0.02023746
Pt       1.40360730       0.81037260      22.29206788        3       0.00096531      -0.00239842      -0.05976044
Pt       4.21082126       0.81037254      22.29206791        3      -0.00272256      -0.00449695      -0.04502404
Pt       7.01803479       0.81037259      22.29206783        3       0.00159551       0.00200894      -0.05978976
Pt       2.80721452       3.24149125      22.29206775        3      -0.00251925       0.00459580      -0.04504957
Pt       5.61442760       3.24149123      22.29206789        3       0.00523547      -0.00008171      -0.04504146
Pt       8.42164156       3.24149116      22.29206803        3      -0.00149285       0.00159917      -0.05603767
Pt       4.21082093       5.67260998      22.29206800        3      -0.00256312       0.00039099      -0.05981465
Pt       7.01803487       5.67261039      22.29206775        3       0.00212328       0.00052618      -0.05604421
Pt       9.82524824       5.67261062      22.29206803        3      -0.00062531      -0.00213123      -0.05608063
Pt      -0.00000058       1.62074570      24.58417378        2       0.00275118      -0.00921439       0.01460392
Pt       2.80721444       1.62074548      24.58417392        2       0.02292497       0.01314472      -0.01506884
Pt       5.61442778       1.62074537      24.58417373        2      -0.02281271       0.01326359      -0.01495388
Pt       1.40360636       4.05186440      24.58417384        2      -0.03396372       0.02358233       0.07020478
Pt       4.21082088       4.05186399      24.58417380        2      -0.00009003      -0.02641394      -0.01499857
Pt       7.01803502       4.05186406      24.58417406        2       0.03739638       0.01759604       0.07024787
Pt       2.80721280       6.48298341      24.58417369        2       0.00658181       0.00702813       0.01467334
Pt       5.61442796       6.48298324      24.58417387        2      -0.00937240       0.00221361       0.01460884
Pt       8.42164221       6.48298340      24.58417380        2      -0.00341146      -0.04120992       0.07028635
Pt       0.00000001      -0.00000128      26.92159407        1       0.00000103      -0.00000327       0.00069334
Pt       2.80172596       0.00718531      26.91069402        1       0.00350753      -0.00388162       0.00491313
Pt       5.62022738       0.00762156      26.90933111        1      -0.00408798      -0.00459322       0.00539371
Pt       1.40729991       2.42228641      26.90929533        1      -0.00190053       0.00582989       0.00543671
Pt       4.21082125       2.43111858      26.91840441        1       0.00000437      -0.00000582       0.00047044
Pt       7.01455629       2.42276391      26.91071309        1       0.00157915       0.00498052       0.00489339
Pt       2.81618030       4.86340781      26.91068709        1      -0.00509486      -0.00111588       0.00497238
Pt       5.60493511       4.86344856      26.90930002        1       0.00598990      -0.00125647       0.00546402
Pt       8.42164136       4.86222524      26.93298955        1       0.00000048      -0.00001058       0.03850897
N        8.42163818       4.86234879      29.83992350        0       0.00031196       0.00131012       0.04941613
H        9.40570673       4.86198423      29.56563548        0       0.02294956       0.00033470      -0.00232297
H        7.92952786       4.01009243      29.56601380        0      -0.01231572      -0.02091394      -0.00264651
H        7.92969297       5.71453659      29.56525713        0      -0.01094499       0.01932242      -0.00217200
