40
Lattice="8.421641763931781 0.0 0.0 4.2108208819658905 7.293355709136913 0.0 0.0 0.0 46.87624170604845" Properties=species:S:1:pos:R:3:tags:I:1:forces:R:3 charge=0 spin=0 energy=-206.4284103008187 free_energy=-206.4284103008187 stress="0.010261664167046547 -4.031344076338428e-07 -1.645983971343412e-08 -4.031344076338428e-07 0.010261643677949905 -1.3283495547966595e-07 -1.645983971343412e-08 -1.3283495547966595e-07 -0.00026235266705043614" pbc="T T T"
Pt      -0.00000003       0.00000022      19.95723434        4       0.00000162      -0.00000249       0.02019303
Pt       2.80721396      -0.00000018      19.95723452        4      -0.00058244       0.00188356       0.01972770
Pt       5.61442778      -0.00000004      19.95723454        4      -0.00059902       0.00107136       0.02017293
Pt       1.40360719       2.43111838      19.95723440        4       0.00122690      -0.00001427       0.02019564
Pt       4.21082079       2.43111832      19.95723449        4       0.00000274       0.00000173      -0.00017661
Pt       7.01803484       2.43111842      19.95723441        4      -0.00133757      -0.00144215       0.01973366
Pt       2.80721406       4.86223725      19.95723409        4       0.00191698      -0.00043937       0.01972834
Pt       5.61442803       4.86223733      19.95723425        4      -0.00063070      -0.00105617       0.02020561
Pt       8.42164141       4.86223723      19.95723442        4       0.00000116      -0.00000208       0.02023756
Pt       1.40360730       0.81037260      22.29206788        3       0.00096545      -0.00239833      -0.05976076
Pt       4.21082126       0.81037254      22.29206791        3      -0.00272277      -0.00449694      -0.04502481
Pt       7.01803479       0.81037259      22.29206783        3       0.00159543       0.00200922      -0.05978994
Pt       2.80721452       3.24149125      22.29206775        3      -0.00251872       0.00459531      -0.04504978
Pt       5.61442760       3.24149123      22.29206789        3       0.00523521      -0.00008195      -0.04504144
Pt       8.42164156       3.24149116      22.29206803        3      -0.00149211       0.00159911      -0.05603703
Pt       4.21082093       5.67260998      22.29206800        3      -0.00256309       0.00039072      -0.05981500
Pt       7.01803487       5.67261039      22.29206775        3       0.00212309       0.00052600      -0.05604320
Pt       9.82524824       5.67261062      22.29206803        3      -0.00062525      -0.00213082      -0.05608024
Pt      -0.00000058       1.62074570      24.58417378        2       0.00275048      -0.00921472       0.01460491
Pt       2.80721444       1.62074548      24.58417392        2       0.02292612       0.01314570      -0.01506346
Pt       5.61442778       1.62074537      24.58417373        2      -0.02281385       0.01326432      -0.01494895
Pt       1.40360636       4.05186440      24.58417384        2      -0.03396774       0.02358369       0.07020879
Pt       4.21082088       4.05186399      24.58417380        2      -0.00008986      -0.02641518      -0.01499275
Pt       7.01803502       4.05186406      24.58417406        2       0.03739971       0.01759811       0.07025087
Pt       2.80721280       6.48298341      24.58417369        2       0.00658221       0.00702829       0.01467468
Pt       5.61442796       6.48298324      24.58417387        2      -0.00937243       0.00221362       0.01460920
Pt       8.42164221       6.48298340      24.58417380        2      -0.00341139      -0.04121398       0.07028978
Pt       0.00000009      -0.00000133      26.92159462        1      -0.00000204      -0.00000244       0.00069164
Pt       2.80172638       0.00718460      26.91069381        1       0.00350502      -0.00387434       0.00491277
Pt       5.62022673       0.00762091      26.90933095        1      -0.00408451      -0.00458558       0.00539343
Pt       1.40729960       2.42228715      26.90929515        1      -0.00189559       0.00582450       0.00543654
Pt       4.21082128       2.43111857      26.91840480        1       0.00000318      -0.00000575       0.00045929
Pt       7.01455663       2.42276469      26.91071295        1       0.00157731       0.00497315       0.00489373
Pt       2.81617949       4.86340777      26.91068703        1      -0.00508738      -0.00111726       0.00497136
Pt       5.60493598       4.86344850      26.90929980        1       0.00598248      -0.00125721       0.00546479
Pt       8.42164138       4.86222524      26.93299238        1       0.00000048      -0.00001013       0.03849690
N        8.42164015       4.86235010      29.83992198        0       0.00012775       0.00117264       0.04943343
H        7.92969276       5.71453650      29.56525906        0      -0.01095637       0.01936767      -0.00218386
H        9.40570547       4.86198436      29.56563756        0       0.02308806       0.00034079      -0.00236359
H        7.92952683       4.01009142      29.56601505        0      -0.01225843      -0.02082836      -0.00261542
