40
Lattice="8.421641763931781 0.0 0.0 4.2108208819658905 7.293355709136913 0.0 0.0 0.0 46.87624170604845" Properties=species:S:1:pos:R:3:tags:I:1:forces:R:3 charge=0 spin=0 energy=-206.99281955680016 free_energy=-206.99281955680016 stress="0.010041438043117523 -8.946907570361873e-08 -1.7781106365077903e-08 -8.946907570361873e-08 0.010041474364697933 -9.912726639527136e-09 -1.7781106365077903e-08 -9.912726639527136e-09 -0.00017485157877672464" pbc="T T T"
Pt      -0.00000003       0.00000022      19.95723434        4       0.00000197      -0.00000313       0.02436643
Pt       2.80721396      -0.00000018      19.95723452        4       0.00252383       0.00433776       0.02149822
Pt       5.61442778      -0.00000004      19.95723454        4      -0.00371493       0.00377282       0.02211376
Pt       1.40360719       2.43111838      19.95723440        4       0.00512200       0.00133987       0.02214665
Pt       4.21082079       2.43111832      19.95723449        4       0.00000216       0.00000160      -0.04319679
Pt       7.01803484       2.43111842      19.95723441        4      -0.00501895       0.00002498       0.02151657
Pt       2.80721406       4.86223725      19.95723409        4       0.00249344      -0.00436184       0.02150024
Pt       5.61442803       4.86223733      19.95723425        4      -0.00141057      -0.00511077       0.02217693
Pt       8.42164141       4.86223723      19.95723442        4       0.00000121      -0.00000233       0.01856460
Pt       1.40360730       0.81037260      22.29206788        3      -0.00037122       0.00210679      -0.07422812
Pt       4.21082126       0.81037254      22.29206791        3      -0.00149803       0.02584764      -0.08389426
Pt       7.01803479       0.81037259      22.29206783        3      -0.00163216      -0.00141352      -0.07428010
Pt       2.80721452       3.24149125      22.29206775        3       0.02314806      -0.01165024      -0.08393165
Pt       5.61442760       3.24149123      22.29206789        3      -0.02165617      -0.01418444      -0.08394939
Pt       8.42164156       3.24149116      22.29206803        3      -0.00225740       0.00214583      -0.04518510
Pt       4.21082093       5.67260998      22.29206800        3       0.00199718      -0.00068710      -0.07438173
Pt       7.01803487       5.67261039      22.29206775        3       0.00298508       0.00093865      -0.04524317
Pt       9.82524824       5.67261062      22.29206803        3      -0.00072163      -0.00309475      -0.04528237
Pt      -0.00000058       1.62074570      24.58417378        2       0.00405211      -0.01047565       0.01776351
Pt       2.80721444       1.62074548      24.58417392        2       0.03694626       0.02438348      -0.06721401
Pt       5.61442778       1.62074537      24.58417373        2      -0.03956747       0.01977139      -0.06712019
Pt       1.40360636       4.05186440      24.58417384        2      -0.13553591       0.08360670       0.24148791
Pt       4.21082088       4.05186399      24.58417380        2       0.00260850      -0.04414960      -0.06697322
Pt       7.01803502       4.05186406      24.58417406        2       0.14017747       0.07561398       0.24151960
Pt       2.80721280       6.48298341      24.58417369        2       0.00707258       0.00867731       0.01799790
Pt       5.61442796       6.48298324      24.58417387        2      -0.01110939       0.00179485       0.01793711
Pt       8.42164221       6.48298340      24.58417380        2      -0.00464093      -0.15921633       0.24152294
Pt       0.00000369       0.00000137      26.92918793        1       0.00000148      -0.00000560      -0.01948205
Pt       2.80013546       0.01635400      26.90784310        1      -0.02476990       0.01367352      -0.01246018
Pt       5.62175074       0.01564186      26.90708033        1       0.02593976       0.01448218      -0.01257136
Pt       1.41349122       2.41696113      26.90707476        1      -0.00043058      -0.02970658      -0.01267679
Pt       4.21081826       2.43111872      26.92455880        1       0.00000310       0.00000069      -0.00622681
Pt       7.00740634       2.41680319      26.90783733        1       0.00054367      -0.02829079      -0.01242285
Pt       2.82492189       4.86019968      26.90783998        1       0.02422903       0.01461991      -0.01244381
Pt       5.59722317       4.86075373      26.90707665        1      -0.02551454       0.01521147      -0.01262303
Pt       8.42164236       4.86223603      26.99524202        1      -0.00000033       0.00000397       0.03442612
N        8.42164174       4.86223684      29.15768812        0      -0.00008297      -0.00004145      -0.03573645
H        7.58050425       5.34881181      29.49438131        0       0.03814661      -0.02206726       0.00164653
H        9.26359476       5.34739353      29.49437927        0      -0.03810215      -0.02195095       0.00168318
H        8.42082267       3.89050333      29.49437958        0       0.00003972       0.04405683       0.00165515
