40
Lattice="8.421641763931781 0.0 0.0 4.2108208819658905 7.293355709136913 0.0 0.0 0.0 46.87624170604845" Properties=species:S:1:pos:R:3:tags:I:1:forces:R:3 charge=0 spin=0 energy=-206.99318576773766 free_energy=-206.99318576773766 stress="0.009989665821194649 -6.005885211379791e-08 -3.2846034780931177e-09 -6.005885211379791e-08 0.009989723563194275 -7.59564500185661e-08 -3.2846034780931177e-09 -7.59564500185661e-08 -0.00026758803869597614" pbc="T T T"
Pt      -0.00000003       0.00000022      19.95723434        4       0.00000240      -0.00000340       0.02406910
Pt       2.80721396      -0.00000018      19.95723452        4       0.00290178       0.00433138       0.02141731
Pt       5.61442778      -0.00000004      19.95723454        4      -0.00418251       0.00380800       0.02203425
Pt       1.40360719       2.43111838      19.95723440        4       0.00538928       0.00172733       0.02206608
Pt       4.21082079       2.43111832      19.95723449        4       0.00000267       0.00000249      -0.04362937
Pt       7.01803484       2.43111842      19.95723441        4      -0.00520558       0.00035631       0.02143624
Pt       2.80721406       4.86223725      19.95723409        4       0.00230091      -0.00468636       0.02141481
Pt       5.61442803       4.86223733      19.95723425        4      -0.00120914      -0.00553332       0.02209606
Pt       8.42164141       4.86223723      19.95723442        4       0.00000121      -0.00000309       0.01868169
Pt       1.40360730       0.81037260      22.29206788        3      -0.00025454       0.00227927      -0.07705439
Pt       4.21082126       0.81037254      22.29206791        3      -0.00180912       0.02758326      -0.08327293
Pt       7.01803479       0.81037259      22.29206783        3      -0.00183668      -0.00140122      -0.07710799
Pt       2.80721452       3.24149125      22.29206775        3       0.02480762      -0.01224972      -0.08331835
Pt       5.61442760       3.24149123      22.29206789        3      -0.02300162      -0.01532299      -0.08333391
Pt       8.42164156       3.24149116      22.29206803        3      -0.00222582       0.00140385      -0.04421052
Pt       4.21082093       5.67260998      22.29206800        3       0.00208997      -0.00087382      -0.07720602
Pt       7.01803487       5.67261039      22.29206775        3       0.00233296       0.00127911      -0.04426306
Pt       9.82524824       5.67261062      22.29206803        3      -0.00010037      -0.00270385      -0.04430132
Pt      -0.00000058       1.62074570      24.58417378        2       0.00407881      -0.00401234       0.00092742
Pt       2.80721444       1.62074548      24.58417392        2       0.04189987       0.02618188      -0.07172437
Pt       5.61442778       1.62074537      24.58417373        2      -0.04359472       0.02315079      -0.07160888
Pt       1.40360636       4.05186440      24.58417384        2      -0.13683529       0.08393666       0.24683663
Pt       4.21082088       4.05186399      24.58417380        2       0.00168234      -0.04933058      -0.07144485
Pt       7.01803502       4.05186406      24.58417406        2       0.14108711       0.07661620       0.24686876
Pt       2.80721280       6.48298341      24.58417369        2       0.00145325       0.00544102       0.00117911
Pt       5.61442796       6.48298324      24.58417387        2      -0.00552488      -0.00147964       0.00110401
Pt       8.42164221       6.48298340      24.58417380        2      -0.00424997      -0.16052458       0.24686839
Pt       0.00000082       0.00000133      26.92156037        1       0.00000704      -0.00000598       0.00558302
Pt       2.79753734       0.01804066      26.90685736        1      -0.00189136      -0.00085105      -0.00868577
Pt       5.62469581       0.01813235      26.90623384        1       0.00271575      -0.00097736      -0.00776346
Pt       1.41418021       2.41317811      26.90621982        1      -0.00223366      -0.00188295      -0.00782458
Pt       4.21081902       2.43111445      26.92734431        1       0.00000099       0.00001059      -0.00565904
Pt       7.00724357       2.41372432      26.90685066        1       0.00169769      -0.00124734      -0.00863056
Pt       2.82768305       4.86159334      26.90687608        1       0.00020165       0.00210802      -0.00873186
Pt       5.59359358       4.86204783      26.90623900        1      -0.00049286       0.00286312      -0.00783480
Pt       8.42164411       4.86224237      26.99557966        1      -0.00000669      -0.00000848      -0.02465044
N        8.42164140       4.86223122      29.14766730        0      -0.00005252       0.00010621       0.02480119
H        7.58136283       4.37780354      29.48766645        0       0.00551111       0.00316188       0.00161148
H        8.42225130       5.83215177      29.48765918        0      -0.00001387      -0.00640856       0.00162043
H        9.26130848       4.37674643      29.48766473        0      -0.00544335       0.00315945       0.00164040
