40
Lattice="8.421641763931781 0.0 0.0 4.2108208819658905 7.293355709136913 0.0 0.0 0.0 46.87624170604845" Properties=species:S:1:pos:R:3:tags:I:1:forces:R:3 charge=0 spin=0 energy=-206.99320865592125 free_energy=-206.99320865592125 stress="0.009987778961658478 -8.17231438077215e-08 9.049228921753638e-09 -8.17231438077215e-08 0.009987802244722843 -8.171187459993234e-08 9.049228921753638e-09 -8.171187459993234e-08 -0.0002657440782058984" pbc="T T T"
Pt      -0.00000003       0.00000022      19.95723434        4       0.00000228      -0.00000330       0.02405945
Pt       2.80721396      -0.00000018      19.95723452        4       0.00290044       0.00434390       0.02141824
Pt       5.61442778      -0.00000004      19.95723454        4      -0.00418439       0.00382130       0.02203404
Pt       1.40360719       2.43111838      19.95723440        4       0.00540181       0.00172270       0.02206603
Pt       4.21082079       2.43111832      19.95723449        4       0.00000295       0.00000256      -0.04358915
Pt       7.01803484       2.43111842      19.95723441        4      -0.00521564       0.00034890       0.02143743
Pt       2.80721406       4.86223725      19.95723409        4       0.00231253      -0.00469145       0.02141574
Pt       5.61442803       4.86223733      19.95723425        4      -0.00121943      -0.00554186       0.02209583
Pt       8.42164141       4.86223723      19.95723442        4       0.00000118      -0.00000314       0.01869416
Pt       1.40360730       0.81037260      22.29206788        3      -0.00026618       0.00226612      -0.07703097
Pt       4.21082126       0.81037254      22.29206791        3      -0.00180735       0.02752145      -0.08311184
Pt       7.01803479       0.81037259      22.29206783        3      -0.00181959      -0.00140451      -0.07708319
Pt       2.80721452       3.24149125      22.29206775        3       0.02475218      -0.01222025      -0.08315846
Pt       5.61442760       3.24149123      22.29206789        3      -0.02294906      -0.01528985      -0.08317315
Pt       8.42164156       3.24149116      22.29206803        3      -0.00222599       0.00141750      -0.04428760
Pt       4.21082093       5.67260998      22.29206800        3       0.00208440      -0.00085753      -0.07718214
Pt       7.01803487       5.67261039      22.29206775        3       0.00234478       0.00127254      -0.04433922
Pt       9.82524824       5.67261062      22.29206803        3      -0.00011192      -0.00271083      -0.04437842
Pt      -0.00000058       1.62074570      24.58417378        2       0.00408053      -0.00394637       0.00049116
Pt       2.80721444       1.62074548      24.58417392        2       0.04205356       0.02626780      -0.07245485
Pt       5.61442778       1.62074537      24.58417373        2      -0.04374481       0.02324174      -0.07233597
Pt       1.40360636       4.05186440      24.58417384        2      -0.13685712       0.08395109       0.24700882
Pt       4.21082088       4.05186399      24.58417380        2       0.00167972      -0.04950628      -0.07217398
Pt       7.01803502       4.05186406      24.58417406        2       0.14111127       0.07662603       0.24705006
Pt       2.80721280       6.48298341      24.58417369        2       0.00139407       0.00541270       0.00074115
Pt       5.61442796       6.48298324      24.58417387        2      -0.00547024      -0.00151780       0.00066662
Pt       8.42164221       6.48298340      24.58417380        2      -0.00425341      -0.16055058       0.24703974
Pt       0.00000012       0.00000071      26.92152244        1       0.00000351      -0.00000372       0.00603841
Pt       2.79740306       0.01822064      26.90676574        1      -0.00078311      -0.00247581      -0.00821712
Pt       5.62483282       0.01830958      26.90614722        1       0.00159505      -0.00258386      -0.00730223
Pt       1.41426445       2.41296964      26.90613156        1      -0.00306569      -0.00010562      -0.00736256
Pt       4.21081844       2.43111411      26.92727553        1       0.00000305       0.00001205      -0.00513841
Pt       7.00715304       2.41351721      26.90676132        1       0.00255306       0.00053047      -0.00817025
Pt       2.82790490       4.86161926      26.90678418        1      -0.00175760       0.00195714      -0.00826444
Pt       5.59336991       4.86207828      26.90615213        1       0.00146225       0.00269153      -0.00737886
Pt       8.42164301       4.86224197      26.99550692        1      -0.00000246      -0.00000674      -0.02121429
N        8.42164304       4.86223387      29.14825630        0       0.00004065       0.00000319       0.02163720
H        8.42225488       5.83207694      29.48838290        0      -0.00001596      -0.00510466       0.00116354
H        9.26124567       4.37678307      29.48838757        0      -0.00443782       0.00258311       0.00113203
H        7.58142901       4.37784283      29.48838465        0       0.00440860       0.00253059       0.00115756
