40
Lattice="8.421641763931781 0.0 0.0 4.2108208819658905 7.293355709136913 0.0 0.0 0.0 46.87624170604845" Properties=species:S:1:pos:R:3:tags:I:1:forces:R:3 charge=0 spin=0 energy=-206.99322010001305 free_energy=-206.99322010001305 stress="0.010000461712479591 -9.21955845001321e-08 -1.821997308582013e-08 -9.21955845001321e-08 0.01000049989670515 -3.129210668362248e-08 -1.821997308582013e-08 -3.129210668362248e-08 -0.00027007010066881776" pbc="T T T"
Pt      -0.00000003       0.00000022      19.95723434        4       0.00000211      -0.00000338       0.02421579
Pt       2.80721396      -0.00000018      19.95723452        4       0.00260466       0.00443886       0.02148484
Pt       5.61442778      -0.00000004      19.95723454        4      -0.00376360       0.00387302       0.02208325
Pt       1.40360719       2.43111838      19.95723440        4       0.00523438       0.00133248       0.02211595
Pt       4.21082079       2.43111832      19.95723449        4       0.00000240       0.00000251      -0.04379973
Pt       7.01803484       2.43111842      19.95723441        4      -0.00514789       0.00004432       0.02150316
Pt       2.80721406       4.86223725      19.95723409        4       0.00254114      -0.00448191       0.02148442
Pt       5.61442803       4.86223733      19.95723425        4      -0.00147358      -0.00520302       0.02214515
Pt       8.42164141       4.86223723      19.95723442        4       0.00000108      -0.00000274       0.01851615
Pt       1.40360730       0.81037260      22.29206788        3      -0.00038217       0.00220720      -0.07472704
Pt       4.21082126       0.81037254      22.29206791        3      -0.00153502       0.02691205      -0.08492307
Pt       7.01803479       0.81037259      22.29206783        3      -0.00171087      -0.00147116      -0.07478143
Pt       2.80721452       3.24149125      22.29206775        3       0.02408805      -0.01215104      -0.08497042
Pt       5.61442760       3.24149123      22.29206789        3      -0.02255792      -0.01474934      -0.08498801
Pt       8.42164156       3.24149116      22.29206803        3      -0.00223972       0.00199880      -0.04515749
Pt       4.21082093       5.67260998      22.29206800        3       0.00208902      -0.00072981      -0.07487948
Pt       7.01803487       5.67261039      22.29206775        3       0.00285147       0.00099392      -0.04520770
Pt       9.82524824       5.67261062      22.29206803        3      -0.00060483      -0.00300988      -0.04524636
Pt      -0.00000058       1.62074570      24.58417378        2       0.00378988      -0.00559166       0.00723851
Pt       2.80721444       1.62074548      24.58417392        2       0.04034836       0.02598904      -0.07143856
Pt       5.61442778       1.62074537      24.58417373        2      -0.04265984       0.02190267      -0.07133424
Pt       1.40360636       4.05186440      24.58417384        2      -0.13527495       0.08383582       0.24280910
Pt       4.21082088       4.05186399      24.58417380        2       0.00230001      -0.04789185      -0.07116143
Pt       7.01803502       4.05186406      24.58417406        2       0.14022613       0.07530823       0.24284725
Pt       2.80721280       6.48298341      24.58417369        2       0.00297343       0.00598331       0.00748670
Pt       5.61442796       6.48298324      24.58417387        2      -0.00674806      -0.00043720       0.00742540
Pt       8.42164221       6.48298340      24.58417380        2      -0.00495400      -0.15911886       0.24283618
Pt       0.00000151       0.00000197      26.92364530        1       0.00000894      -0.00001060       0.00324800
Pt       2.79846468       0.01732669      26.90741712        1      -0.01116570       0.00742160      -0.01092720
Pt       5.62332728       0.01660665      26.90625966        1       0.01252170       0.00810991      -0.00956286
Pt       1.41354879       2.41511654      26.90624734        1       0.00072640      -0.01491409      -0.00964300
Pt       4.21081940       2.43111468      26.92578649        1       0.00000028       0.00000811      -0.00883556
Pt       7.00739264       2.41487470      26.90740854        1      -0.00082322      -0.01340283      -0.01087040
Pt       2.82660549       4.86115054      26.90743215        1       0.01200122       0.00599528      -0.01096564
Pt       5.59559309       4.86162858      26.90626917        1      -0.01326482       0.00680920      -0.00965607
Pt       8.42164299       4.86223631      26.99490243        1      -0.00000182      -0.00000092      -0.02600467
N        8.42164350       4.86223377      29.14524337        0      -0.00016258       0.00002048       0.04880474
H        9.26208634       5.34686919      29.48560353        0      -0.01562940      -0.00904114      -0.00235681
H        8.42112522       3.89206990      29.48560556        0      -0.00000413       0.01813268      -0.00238835
H        7.58171153       5.34776444      29.48560377        0       0.01579362      -0.00910822      -0.00241926
