40
Lattice="8.421641763931781 0.0 0.0 4.2108208819658905 7.293355709136913 0.0 0.0 0.0 46.87624170604845" Properties=species:S:1:pos:R:3:tags:I:1:forces:R:3 charge=0 spin=0 energy=-206.9928214641488 free_energy=-206.9928214641488 stress="0.010041434317827225 -5.367605737660597e-08 6.5839356189201226e-09 -5.367605737660597e-08 0.01004148367792368 -1.2291486939375318e-08 6.5839356189201226e-09 -1.2291486939375318e-08 -0.00017483290866948664" pbc="T T T"
Pt      -0.00000003       0.00000022      19.95723434        4       0.00000204      -0.00000303       0.02436664
Pt       2.80721396      -0.00000018      19.95723452        4       0.00252384       0.00433770       0.02149833
Pt       5.61442778      -0.00000004      19.95723454        4      -0.00371491       0.00377290       0.02211370
Pt       1.40360719       2.43111838      19.95723440        4       0.00512193       0.00133987       0.02214633
Pt       4.21082079       2.43111832      19.95723449        4       0.00000223       0.00000182      -0.04319700
Pt       7.01803484       2.43111842      19.95723441        4      -0.00501891       0.00002483       0.02151661
Pt       2.80721406       4.86223725      19.95723409        4       0.00249348      -0.00436188       0.02150028
Pt       5.61442803       4.86223733      19.95723425        4      -0.00141044      -0.00511072       0.02217695
Pt       8.42164141       4.86223723      19.95723442        4       0.00000110      -0.00000233       0.01856462
Pt       1.40360730       0.81037260      22.29206788        3      -0.00037138       0.00210657      -0.07422786
Pt       4.21082126       0.81037254      22.29206791        3      -0.00149842       0.02584687      -0.08389445
Pt       7.01803479       0.81037259      22.29206783        3      -0.00163218      -0.00141378      -0.07427993
Pt       2.80721452       3.24149125      22.29206775        3       0.02314790      -0.01165017      -0.08393320
Pt       5.61442760       3.24149123      22.29206789        3      -0.02165611      -0.01418441      -0.08394907
Pt       8.42164156       3.24149116      22.29206803        3      -0.00225723       0.00214577      -0.04518528
Pt       4.21082093       5.67260998      22.29206800        3       0.00199707      -0.00068701      -0.07438177
Pt       7.01803487       5.67261039      22.29206775        3       0.00298485       0.00093843      -0.04524244
Pt       9.82524824       5.67261062      22.29206803        3      -0.00072194      -0.00309448      -0.04528196
Pt      -0.00000058       1.62074570      24.58417378        2       0.00405082      -0.01047516       0.01776599
Pt       2.80721444       1.62074548      24.58417392        2       0.03694621       0.02438187      -0.06721130
Pt       5.61442778       1.62074537      24.58417373        2      -0.03956595       0.01977215      -0.06711651
Pt       1.40360636       4.05186440      24.58417384        2      -0.13553669       0.08360694       0.24148926
Pt       4.21082088       4.05186399      24.58417380        2       0.00261035      -0.04414827      -0.06696950
Pt       7.01803502       4.05186406      24.58417406        2       0.14017566       0.07561328       0.24152285
Pt       2.80721280       6.48298341      24.58417369        2       0.00707291       0.00867759       0.01799877
Pt       5.61442796       6.48298324      24.58417387        2      -0.01110763       0.00179412       0.01794253
Pt       8.42164221       6.48298340      24.58417380        2      -0.00464214      -0.15921526       0.24152499
Pt       0.00000362       0.00000132      26.92918731        1       0.00000249      -0.00000559      -0.01948283
Pt       2.80013575       0.01635386      26.90784366        1      -0.02477249       0.01367400      -0.01246827
Pt       5.62175060       0.01564150      26.90708024        1       0.02593975       0.01448388      -0.01257205
Pt       1.41349107       2.41696139      26.90707467        1      -0.00043010      -0.02970950      -0.01267651
Pt       4.21081824       2.43111871      26.92455824        1       0.00000366       0.00000048      -0.00622708
Pt       7.00740632       2.41680328      26.90783801        1       0.00054331      -0.02829225      -0.01242970
Pt       2.82492140       4.86019965      26.90784036        1       0.02423058       0.01461960      -0.01244434
Pt       5.59722318       4.86075371      26.90707766        1      -0.02551530       0.01521236      -0.01263022
Pt       8.42164213       4.86223560      26.99524103        1      -0.00000265       0.00000752       0.03443239
N        8.42163951       4.86223747      29.15769052        0       0.00016030      -0.00006619      -0.03580105
H        8.42082299       3.89050314      29.49437804        0       0.00003056       0.04404325       0.00167087
H        7.58050575       5.34881088      29.49437957        0       0.03800647      -0.02198758       0.00171455
H        9.26359630       5.34739423      29.49437962        0      -0.03819297      -0.02199419       0.00165657
