40
Lattice="8.421641763931781 0.0 0.0 4.2108208819658905 7.293355709136913 0.0 0.0 0.0 46.87624170604845" Properties=species:S:1:pos:R:3:tags:I:1:forces:R:3 charge=0 spin=0 energy=-206.99401546439293 free_energy=-206.99401546439293 stress="0.00998867116868496 -6.538942898259847e-08 9.220456398395527e-09 -6.538942898259847e-08 0.00998878013342619 -9.55946120484441e-07 9.220456398395527e-09 -9.55946120484441e-07 -0.000266780611127615" pbc="T T T"
Pt      -0.00000003       0.00000022      19.95723434        4       0.00000290      -0.00000385       0.02404364
Pt       2.80721396      -0.00000018      19.95723452        4       0.00276200       0.00449283       0.02176135
Pt       5.61442778      -0.00000004      19.95723454        4      -0.00411532       0.00394906       0.02166972
Pt       1.40360719       2.43111838      19.95723440        4       0.00547505       0.00159460       0.02170070
Pt       4.21082079       2.43111832      19.95723449        4       0.00000461       0.00000045      -0.04373849
Pt       7.01803484       2.43111842      19.95723441        4      -0.00527253       0.00015260       0.02178304
Pt       2.80721406       4.86223725      19.95723409        4       0.00250712      -0.00464390       0.02175957
Pt       5.61442803       4.86223733      19.95723425        4      -0.00136420      -0.00554357       0.02173143
Pt       8.42164141       4.86223723      19.95723442        4       0.00000093      -0.00000095       0.01866806
Pt       1.40360730       0.81037260      22.29206788        3      -0.00082829       0.00320244      -0.07596125
Pt       4.21082126       0.81037254      22.29206791        3      -0.00064841       0.02717386      -0.08376534
Pt       7.01803479       0.81037259      22.29206783        3      -0.00235214      -0.00235946      -0.07601367
Pt       2.80721452       3.24149125      22.29206775        3       0.02388151      -0.01305692      -0.08385449
Pt       5.61442760       3.24149123      22.29206789        3      -0.02324125      -0.01410738      -0.08386761
Pt       8.42164156       3.24149116      22.29206803        3      -0.00140048       0.00145849      -0.04498591
Pt       4.21082093       5.67260998      22.29206800        3       0.00318311      -0.00085159      -0.07612313
Pt       7.01803487       5.67261039      22.29206775        3       0.00196749       0.00054382      -0.04503162
Pt       9.82524824       5.67261062      22.29206803        3      -0.00055704      -0.00201913      -0.04507151
Pt      -0.00000058       1.62074570      24.58417378        2       0.00064858      -0.00221080       0.00173881
Pt       2.80721444       1.62074548      24.58417392        2       0.04462538       0.02016268      -0.07552423
Pt       5.61442778       1.62074537      24.58417373        2      -0.03976843       0.02848841      -0.07542220
Pt       1.40360636       4.05186440      24.58417384        2      -0.13596340       0.08382216       0.25012499
Pt       4.21082088       4.05186399      24.58417380        2      -0.00485541      -0.04866557      -0.07521339
Pt       7.01803502       4.05186406      24.58417406        2       0.14050905       0.07598323       0.25016955
Pt       2.80721280       6.48298341      24.58417369        2       0.00157244       0.00160705       0.00203796
Pt       5.61442796       6.48298324      24.58417387        2      -0.00222407       0.00060551       0.00197329
Pt       8.42164221       6.48298340      24.58417380        2      -0.00455414      -0.15983894       0.25049469
Pt      -0.00000014       0.00001834      26.92125702        1       0.00000928      -0.00006305       0.01304818
Pt       2.79853063       0.01664530      26.90902255        1      -0.00100604      -0.00358550      -0.01949091
Pt       5.62707106       0.02132661      26.90510897        1      -0.00621616      -0.01689425      -0.00078349
Pt       1.41575454       2.40953795      26.90506370        1      -0.01134795       0.01349776      -0.00079369
Pt       4.21081994       2.43113360      26.92494884        1       0.00000645      -0.00005862       0.00046096
Pt       7.00796068       2.41529761      26.90898697        1       0.00341461       0.00055822      -0.01933396
Pt       2.82596894       4.86147373      26.90902434        1      -0.00241518       0.00264883      -0.01947770
Pt       5.58964646       4.86255317      26.90510364        1       0.01757056       0.00301180      -0.00084043
Pt       8.42164584       4.86211466      26.99566990        1      -0.00000856      -0.00011604      -0.02602102
N        8.42164183       4.86205191      29.14766696        0       0.00004705       0.00078194       0.02305223
H        8.90548800       5.70306694      29.48689752        0      -0.00327543      -0.00666244       0.00284623
H        8.90785802       4.02286318      29.48806838        0      -0.00419225       0.00627970       0.00054238
H        7.45157630       4.86089596      29.48748263        0       0.00741840       0.00066640       0.00170734
