40
Lattice="8.421641763931781 0.0 0.0 4.2108208819658905 7.293355709136913 0.0 0.0 0.0 46.87624170604845" Properties=species:S:1:pos:R:3:tags:I:1:forces:R:3 charge=0 spin=0 energy=-206.4284732433236 free_energy=-206.4284732433236 stress="0.01026144064962864 -4.2025891389130265e-07 1.3351986183351983e-08 -4.2025891389130265e-07 0.01026139222085476 1.6206543307362153e-07 1.3351986183351983e-08 1.6206543307362153e-07 -0.0002623356122057885" pbc="T T T"
Pt      -0.00000003       0.00000022      19.95723434        4       0.00000156      -0.00000281       0.02018695
Pt       2.80721396      -0.00000018      19.95723452        4      -0.00033811       0.00200506       0.02007183
Pt       5.61442778      -0.00000004      19.95723454        4      -0.00060965       0.00087118       0.01981195
Pt       1.40360719       2.43111838      19.95723440        4       0.00106047       0.00009521       0.01983544
Pt       4.21082079       2.43111832      19.95723449        4       0.00000245       0.00000133      -0.00011031
Pt       7.01803484       2.43111842      19.95723441        4      -0.00156603      -0.00129112       0.02007603
Pt       2.80721406       4.86223725      19.95723409        4       0.00190194      -0.00071267       0.02007208
Pt       5.61442803       4.86223733      19.95723425        4      -0.00045249      -0.00096550       0.01984392
Pt       8.42164141       4.86223723      19.95723442        4       0.00000124      -0.00000253       0.02024055
Pt       1.40360730       0.81037260      22.29206788        3      -0.00049181      -0.00028701      -0.06007195
Pt       4.21082126       0.81037254      22.29206791        3       0.00025704      -0.00452905      -0.04494789
Pt       7.01803479       0.81037259      22.29206783        3       0.00049294      -0.00031181      -0.06010446
Pt       2.80721452       3.24149125      22.29206775        3      -0.00403587       0.00202473      -0.04496228
Pt       5.61442760       3.24149123      22.29206789        3       0.00377375       0.00251342      -0.04495207
Pt       8.42164156       3.24149116      22.29206803        3       0.00007563       0.00110361      -0.05582126
Pt       4.21082093       5.67260998      22.29206800        3      -0.00000533       0.00060186      -0.06012497
Pt       7.01803487       5.67261039      22.29206775        3       0.00091143      -0.00058448      -0.05582028
Pt       9.82524824       5.67261062      22.29206803        3      -0.00098272      -0.00053068      -0.05586395
Pt      -0.00000058       1.62074570      24.58417378        2       0.00396645      -0.00833744       0.01383544
Pt       2.80721444       1.62074548      24.58417392        2       0.02294627       0.01363738      -0.01432357
Pt       5.61442778       1.62074537      24.58417373        2      -0.02325110       0.01303480      -0.01422038
Pt       1.40360636       4.05186440      24.58417384        2      -0.03533819       0.02204516       0.07023850
Pt       4.21082088       4.05186399      24.58417380        2       0.00032365      -0.02667651      -0.01426829
Pt       7.01803502       4.05186406      24.58417406        2       0.03676300       0.01954980       0.07028698
Pt       2.80721280       6.48298341      24.58417369        2       0.00521720       0.00763681       0.01388696
Pt       5.61442796       6.48298324      24.58417387        2      -0.00922436       0.00072863       0.01383900
Pt       8.42164221       6.48298340      24.58417380        2      -0.00140106      -0.04160217       0.07025480
Pt       0.00000081      -0.00000029      26.92142317        1      -0.00000133       0.00000381       0.00081196
Pt       2.80121770       0.00797977      26.90943144        1       0.00392938      -0.00453462       0.00553020
Pt       5.61978925       0.00684770      26.91054920        1      -0.00370996      -0.00392792       0.00483964
Pt       1.40684829       2.42305269      26.91051979        1      -0.00153202       0.00519938       0.00485552
Pt       4.21082165       2.43111989      26.91858329        1       0.00000006       0.00000041       0.00041802
Pt       7.01412311       2.42192427      26.90945563        1       0.00195698       0.00570154       0.00547959
Pt       2.81712342       4.86345193      26.90942823        1      -0.00588876      -0.00115286       0.00557021
Pt       5.60582384       4.86345523      26.91052146        1       0.00524315      -0.00125806       0.00490512
Pt       8.42164019       4.86224806      26.93304366        1       0.00000390       0.00000736       0.03855236
N        8.42164307       4.86212625      29.83986840        0      -0.00018259      -0.00124030       0.04933790
H        8.91369703       5.71443252      29.56602738        0       0.01216303       0.02091742      -0.00264125
H        8.91366210       4.00996219      29.56528110        0       0.01106180      -0.01926636      -0.00218527
H        7.43756316       4.86241405      29.56565489        0      -0.02304184      -0.00046495      -0.00236269
