40
Lattice="8.421641763931781 0.0 0.0 4.2108208819658905 7.293355709136913 0.0 0.0 0.0 46.87624170604845" Properties=species:S:1:pos:R:3:tags:I:1:forces:R:3 charge=0 spin=0 energy=-206.99298931082848 free_energy=-206.99298931082848 stress="0.010013488121330738 -6.30111287591717e-08 -1.2578705188559525e-08 -6.30111287591717e-08 0.010013529099524021 -3.06072003297686e-08 -1.2578705188559525e-08 -3.06072003297686e-08 -0.00022667522716801614" pbc="T T T"
Pt      -0.00000003       0.00000022      19.95723434        4       0.00000164      -0.00000295       0.02404626
Pt       2.80721396      -0.00000018      19.95723452        4       0.00283288       0.00436855       0.02140191
Pt       5.61442778      -0.00000004      19.95723454        4      -0.00415530       0.00389196       0.02204135
Pt       1.40360719       2.43111838      19.95723440        4       0.00544683       0.00166306       0.02207312
Pt       4.21082079       2.43111832      19.95723449        4       0.00000254       0.00000173      -0.04327579
Pt       7.01803484       2.43111842      19.95723441        4      -0.00520138       0.00027880       0.02142159
Pt       2.80721406       4.86223725      19.95723409        4       0.00236630      -0.00464598       0.02140323
Pt       5.61442803       4.86223733      19.95723425        4      -0.00129408      -0.00555281       0.02210537
Pt       8.42164141       4.86223723      19.95723442        4       0.00000107      -0.00000217       0.01876155
Pt       1.40360730       0.81037260      22.29206788        3      -0.00013308       0.00222107      -0.07624783
Pt       4.21082126       0.81037254      22.29206791        3      -0.00174700       0.02698668      -0.08225620
Pt       7.01803479       0.81037259      22.29206783        3      -0.00184751      -0.00126663      -0.07629358
Pt       2.80721452       3.24149125      22.29206775        3       0.02425975      -0.01200862      -0.08230058
Pt       5.61442760       3.24149123      22.29206789        3      -0.02251989      -0.01496615      -0.08231431
Pt       8.42164156       3.24149116      22.29206803        3      -0.00225190       0.00173534      -0.04532138
Pt       4.21082093       5.67260998      22.29206800        3       0.00197857      -0.00094952      -0.07639851
Pt       7.01803487       5.67261039      22.29206775        3       0.00262708       0.00114284      -0.04537845
Pt       9.82524824       5.67261062      22.29206803        3      -0.00036941      -0.00288833      -0.04541554
Pt      -0.00000058       1.62074570      24.58417378        2       0.00433587      -0.00706602       0.00525333
Pt       2.80721444       1.62074548      24.58417392        2       0.04038446       0.02572989      -0.07790855
Pt       5.61442778       1.62074537      24.58417373        2      -0.04243212       0.02206666      -0.07777385
Pt       1.40360636       4.05186440      24.58417384        2      -0.13651967       0.08350708       0.25020763
Pt       4.21082088       4.05186399      24.58417380        2       0.00205463      -0.04777863      -0.07762738
Pt       7.01803502       4.05186406      24.58417406        2       0.14057311       0.07651842       0.25026560
Pt       2.80721280       6.48298341      24.58417369        2       0.00394649       0.00722115       0.00552080
Pt       5.61442796       6.48298324      24.58417387        2      -0.00829749      -0.00018387       0.00544755
Pt       8.42164221       6.48298340      24.58417380        2      -0.00404814      -0.16002031       0.25025585
Pt       0.00000131      -0.00000600      26.92626495        1       0.00000455      -0.00001609      -0.00834186
Pt       2.79664862       0.01965331      26.90669763        1       0.00410320      -0.01611606      -0.00706278
Pt       5.62575964       0.01953298      26.90646942        1      -0.00377318      -0.01545815      -0.00768450
Pt       1.41483990       2.41154056      26.90644272        1      -0.01143809       0.01102186      -0.00770534
Pt       4.21082046       2.43112037      26.92456287        1      -0.00000593       0.00000708       0.00628796
Pt       7.00630630       2.41212971      26.90670364        1       0.01184444       0.01163871      -0.00704943
Pt       2.82950840       4.86156911      26.90670285        1      -0.01593064       0.00448259      -0.00707223
Pt       5.59186118       4.86227778      26.90646130        1       0.01520417       0.00443167      -0.00773265
Pt       8.42164140       4.86223759      26.99499327        1      -0.00000181       0.00000973       0.00850767
N        8.42164213       4.86223705      29.15419712        0      -0.00007149       0.00008795      -0.01948741
H        8.41871861       5.83400082      29.49105563        0       0.00012139      -0.04654234       0.00185966
H        9.26467357       4.37888835      29.49105401        0      -0.04025998       0.02310982       0.00190772
H        7.58153178       4.37382492      29.49105523        0       0.04020879       0.02334182       0.00188031
