40
Lattice="8.421641763931781 0.0 0.0 4.2108208819658905 7.293355709136913 0.0 0.0 0.0 46.87624170604845" Properties=species:S:1:pos:R:3:tags:I:1:forces:R:3 charge=0 spin=0 energy=-206.99402881583336 free_energy=-206.99402881583336 stress="0.010009849444031715 -1.127043276483164e-07 -8.248330907179025e-09 -1.127043276483164e-07 0.010009823366999626 2.0923822319218743e-07 -8.248330907179025e-09 2.0923822319218743e-07 -0.00023382970539387316" pbc="T T T"
Pt      -0.00000003       0.00000022      19.95723434        4       0.00000194      -0.00000416       0.02410977
Pt       2.80721396      -0.00000018      19.95723452        4       0.00275580       0.00455629       0.02159752
Pt       5.61442778      -0.00000004      19.95723454        4      -0.00392329       0.00389780       0.02174827
Pt       1.40360719       2.43111838      19.95723440        4       0.00533897       0.00145834       0.02178060
Pt       4.21082079       2.43111832      19.95723449        4       0.00000246       0.00000465      -0.04330181
Pt       7.01803484       2.43111842      19.95723441        4      -0.00532892       0.00011538       0.02161423
Pt       2.80721406       4.86223725      19.95723409        4       0.00257159      -0.00467684       0.02159720
Pt       5.61442803       4.86223733      19.95723425        4      -0.00141767      -0.00535914       0.02181137
Pt       8.42164141       4.86223723      19.95723442        4       0.00000105      -0.00000453       0.01877788
Pt       1.40360730       0.81037260      22.29206788        3      -0.00065616       0.00309593      -0.07510525
Pt       4.21082126       0.81037254      22.29206791        3      -0.00031393       0.02656053      -0.08283243
Pt       7.01803479       0.81037259      22.29206783        3      -0.00234894      -0.00216307      -0.07515785
Pt       2.80721452       3.24149125      22.29206775        3       0.02317786      -0.01304614      -0.08287235
Pt       5.61442760       3.24149123      22.29206789        3      -0.02287107      -0.01352493      -0.08288430
Pt       8.42164156       3.24149116      22.29206803        3      -0.00167811       0.00188247      -0.04588917
Pt       4.21082093       5.67260998      22.29206800        3       0.00299866      -0.00094017      -0.07525844
Pt       7.01803487       5.67261039      22.29206775        3       0.00247217       0.00056070      -0.04593140
Pt       9.82524824       5.67261062      22.29206803        3      -0.00078759      -0.00247556      -0.04597868
Pt      -0.00000058       1.62074570      24.58417378        2       0.00307260      -0.00891075       0.00686934
Pt       2.80721444       1.62074548      24.58417392        2       0.04207446       0.02435125      -0.08009921
Pt       5.61442778       1.62074537      24.58417373        2      -0.04206927       0.02427345      -0.07998163
Pt       1.40360636       4.05186440      24.58417384        2      -0.13644002       0.08394857       0.24896939
Pt       4.21082088       4.05186399      24.58417380        2       0.00000012      -0.04853793      -0.07984730
Pt       7.01803502       4.05186406      24.58417406        2       0.14090666       0.07626573       0.24901819
Pt       2.80721280       6.48298341      24.58417369        2       0.00619952       0.00706840       0.00712743
Pt       5.61442796       6.48298324      24.58417387        2      -0.00928642       0.00185383       0.00706862
Pt       8.42164221       6.48298340      24.58417380        2      -0.00446031      -0.16015057       0.24904431
Pt       0.00000032       0.00000974      26.92895279        1       0.00000140       0.00002510      -0.01202020
Pt       2.79660636       0.01996197      26.90621990        1       0.00478460      -0.01912335      -0.00733925
Pt       5.62603315       0.01917856      26.90576062        1      -0.00216205      -0.01360937      -0.00323427
Pt       1.41435575       2.41153542      26.90573983        1      -0.01062405       0.00870613      -0.00328183
Pt       4.21081791       2.43113693      26.92403185        1      -0.00000463       0.00003093       0.00425739
Pt       7.00608396       2.41200260      26.90622398        1       0.01416079       0.01370661      -0.00734987
Pt       2.82977596       4.86146364      26.90621951        1      -0.01894167       0.00549009      -0.00734436
Pt       5.59206909       4.86271292      26.90575813        1       0.01278059       0.00496011      -0.00329303
Pt       8.42164307       4.86233258      26.99528038        1       0.00000560      -0.00005628       0.00440199
N        8.42163956       4.86223261      29.15362957        0       0.00005981       0.00001278      -0.01617852
H        8.90940015       5.70260434      29.49083777        0      -0.02131353      -0.03798392       0.00142615
H        8.90561481       4.01950772      29.49040368        0      -0.02223306       0.03743657       0.00215374
H        7.44990359       4.86436043      29.49061715        0       0.04349392       0.00030495       0.00180785
