40
Lattice="8.421641763931781 0.0 0.0 4.2108208819658905 7.293355709136913 0.0 0.0 0.0 46.87624170604845" Properties=species:S:1:pos:R:3:tags:I:1:forces:R:3 charge=0 spin=0 energy=-206.99402881583336 free_energy=-206.99402881583336 stress="0.009987575933337212 -3.0380417115338787e-07 6.4421676881920575e-09 -3.0380417115338787e-07 0.00998768862336874 -1.0113852795257117e-06 6.4421676881920575e-09 -1.0113852795257117e-06 -0.0002660911704879254" pbc="T T T"
Pt      -0.00000003       0.00000022      19.95723434        4       0.00000301      -0.00000398       0.02404735
Pt       2.80721396      -0.00000018      19.95723452        4       0.00276228       0.00449234       0.02175993
Pt       5.61442778      -0.00000004      19.95723454        4      -0.00411392       0.00394759       0.02167131
Pt       1.40360719       2.43111838      19.95723440        4       0.00547284       0.00159405       0.02170246
Pt       4.21082079       2.43111832      19.95723449        4       0.00000441       0.00000037      -0.04372891
Pt       7.01803484       2.43111842      19.95723441        4      -0.00527166       0.00015312       0.02178136
Pt       2.80721406       4.86223725      19.95723409        4       0.00250616      -0.00464353       0.02175791
Pt       5.61442803       4.86223733      19.95723425        4      -0.00136347      -0.00554155       0.02173291
Pt       8.42164141       4.86223723      19.95723442        4       0.00000101      -0.00000073       0.01867194
Pt       1.40360730       0.81037260      22.29206788        3      -0.00082800       0.00320236      -0.07595727
Pt       4.21082126       0.81037254      22.29206791        3      -0.00064898       0.02716336      -0.08375764
Pt       7.01803479       0.81037259      22.29206783        3      -0.00235197      -0.00235901      -0.07600932
Pt       2.80721452       3.24149125      22.29206775        3       0.02387315      -0.01305130      -0.08384760
Pt       5.61442760       3.24149123      22.29206789        3      -0.02323245      -0.01410237      -0.08386160
Pt       8.42164156       3.24149116      22.29206803        3      -0.00140206       0.00145954      -0.04497005
Pt       4.21082093       5.67260998      22.29206800        3       0.00318334      -0.00085130      -0.07611965
Pt       7.01803487       5.67261039      22.29206775        3       0.00196961       0.00054484      -0.04501650
Pt       9.82524824       5.67261062      22.29206803        3      -0.00055729      -0.00202128      -0.04505670
Pt      -0.00000058       1.62074570      24.58417378        2       0.00067311      -0.00226575       0.00171882
Pt       2.80721444       1.62074548      24.58417392        2       0.04460132       0.02018852      -0.07547548
Pt       5.61442778       1.62074537      24.58417373        2      -0.03977939       0.02845133      -0.07537138
Pt       1.40360636       4.05186440      24.58417384        2      -0.13606632       0.08386461       0.25014794
Pt       4.21082088       4.05186399      24.58417380        2      -0.00482140      -0.04865810      -0.07516444
Pt       7.01803502       4.05186406      24.58417406        2       0.14059857       0.07605081       0.25019351
Pt       2.80721280       6.48298341      24.58417369        2       0.00160570       0.00165685       0.00201930
Pt       5.61442796       6.48298324      24.58417387        2      -0.00228421       0.00061121       0.00195207
Pt       8.42164221       6.48298340      24.58417380        2      -0.00453848      -0.15994973       0.25051785
Pt      -0.00000065       0.00001800      26.92128914        1       0.00000887      -0.00006328       0.01290162
Pt       2.79853641       0.01662415      26.90898180        1      -0.00106649      -0.00341920      -0.01930750
Pt       5.62705305       0.02128906      26.90510415        1      -0.00611182      -0.01666341      -0.00076291
Pt       1.41573184       2.40957088      26.90505569        1      -0.01120375       0.01329056      -0.00076732
Pt       4.21081988       2.43113317      26.92495990        1       0.00000509      -0.00006018       0.00036476
Pt       7.00797474       2.41531141      26.90894556        1       0.00330478       0.00042626      -0.01915193
Pt       2.82594774       4.86147945      26.90898252        1      -0.00224075       0.00261550      -0.01929536
Pt       5.58968644       4.86255584      26.90509681        1       0.01731803       0.00298838      -0.00081243
Pt       8.42164495       4.86211307      26.99576786        1      -0.00000571      -0.00011681      -0.02583341
N        8.42164276       4.86205108      29.14788193        0       0.00001870       0.00089688       0.02020168
H        7.45164710       4.86089697      29.48768921        0       0.00480765       0.00064994       0.00237676
H        8.90545238       5.70300888      29.48710211        0      -0.00112368      -0.00443660       0.00372815
H        8.90782560       4.02292664      29.48827592        0      -0.00370577       0.00395954       0.00101966
