40
Lattice="8.421641763931781 0.0 0.0 4.2108208819658905 7.293355709136913 0.0 0.0 0.0 46.87624170604845" Properties=species:S:1:pos:R:3:tags:I:1:forces:R:3 charge=0 spin=0 energy=-206.99357105216149 free_energy=-206.99357105216149 stress="0.01003952231258154 -3.153545833356475e-07 -1.41031737399544e-08 -3.153545833356475e-07 0.01003955863416195 -5.351251957108616e-07 -1.41031737399544e-08 -5.351251957108616e-07 -0.0001778612204361707" pbc="T T T"
Pt      -0.00000003       0.00000022      19.95723434        4       0.00000277      -0.00000329       0.02433375
Pt       2.80721396      -0.00000018      19.95723452        4       0.00265377       0.00430057       0.02175950
Pt       5.61442778      -0.00000004      19.95723454        4      -0.00400086       0.00370574       0.02167611
Pt       1.40360719       2.43111838      19.95723440        4       0.00520645       0.00161834       0.02170715
Pt       4.21082079       2.43111832      19.95723449        4       0.00000352       0.00000208      -0.04318888
Pt       7.01803484       2.43111842      19.95723441        4      -0.00505231       0.00015611       0.02177880
Pt       2.80721406       4.86223725      19.95723409        4       0.00239556      -0.00445507       0.02175851
Pt       5.61442803       4.86223733      19.95723425        4      -0.00121011      -0.00532325       0.02173819
Pt       8.42164141       4.86223723      19.95723442        4       0.00000091      -0.00000172       0.01863926
Pt       1.40360730       0.81037260      22.29206788        3      -0.00081052       0.00310680      -0.07563347
Pt       4.21082126       0.81037254      22.29206791        3      -0.00058921       0.02610964      -0.08317031
Pt       7.01803479       0.81037259      22.29206783        3      -0.00228119      -0.00229787      -0.07568906
Pt       2.80721452       3.24149125      22.29206775        3       0.02292851      -0.01257174      -0.08323863
Pt       5.61442760       3.24149123      22.29206789        3      -0.02234718      -0.01352872      -0.08325133
Pt       8.42164156       3.24149116      22.29206803        3      -0.00146244       0.00156180      -0.04441572
Pt       4.21082093       5.67260998      22.29206800        3       0.00308788      -0.00081151      -0.07579774
Pt       7.01803487       5.67261039      22.29206775        3       0.00208650       0.00054578      -0.04447044
Pt       9.82524824       5.67261062      22.29206803        3      -0.00061412      -0.00211882      -0.04451449
Pt      -0.00000058       1.62074570      24.58417378        2       0.00080021      -0.01008328       0.01466395
Pt       2.80721444       1.62074548      24.58417392        2       0.04148242       0.01896839      -0.06492140
Pt       5.61442778       1.62074537      24.58417373        2      -0.03715488       0.02639925      -0.06483700
Pt       1.40360636       4.05186440      24.58417384        2      -0.13500194       0.08361644       0.24112770
Pt       4.21082088       4.05186399      24.58417380        2      -0.00433518      -0.04536769      -0.06467453
Pt       7.01803502       4.05186406      24.58417406        2       0.13989125       0.07519501       0.24116166
Pt       2.80721280       6.48298341      24.58417369        2       0.00834037       0.00567762       0.01493038
Pt       5.61442796       6.48298324      24.58417387        2      -0.00912849       0.00442015       0.01487650
Pt       8.42164221       6.48298340      24.58417380        2      -0.00489560      -0.15886089       0.24141051
Pt       0.00000280       0.00000883      26.92861942        1       0.00000239      -0.00003549      -0.01859312
Pt       2.80129946       0.01401633      26.90926403        1      -0.02589356       0.02001557      -0.02109529
Pt       5.62355458       0.01792527      26.90529949        1       0.02113989       0.00932786      -0.00273845
Pt       1.41455336       2.41428148      26.90527777        1      -0.00235905      -0.02317556      -0.00281884
Pt       4.21081786       2.43112700      26.92607342        1       0.00000839      -0.00003309      -0.00819014
Pt       7.00886370       2.41900691      26.90923761        1      -0.00453115      -0.03265503      -0.02099808
Pt       2.82230010       4.86037168      26.90924986        1       0.03040922       0.01243835      -0.02104704
Pt       5.59435745       4.86118799      26.90528873        1      -0.01876937       0.01363890      -0.00277567
Pt       8.42164280       4.86219138      26.99498196        1       0.00000183      -0.00017665       0.03573719
N        8.42164224       4.86208933      29.15745566        0      -0.00012364       0.00137448      -0.03592486
H        8.90874072       4.02129325      29.49440376        0      -0.02278338       0.03754161       0.00104002
H        7.44982305       4.86098882      29.49406104        0       0.04381104      -0.00007527       0.00153646
H        8.90635613       5.70452785      29.49371866        0      -0.02090890      -0.03814524       0.00210872
