40
Lattice="8.421641763931781 0.0 0.0 4.2108208819658905 7.293355709136913 0.0 0.0 0.0 46.87624170604845" Properties=species:S:1:pos:R:3:tags:I:1:forces:R:3 charge=0 spin=0 energy=-206.42841220816734 free_energy=-206.42841220816734 stress="0.010261641815304756 -4.36912557688629e-07 -1.4434580197786318e-09 -4.36912557688629e-07 0.01026166882365942 -1.5882835668890039e-07 -1.4434580197786318e-09 -1.5882835668890039e-07 -0.0002623590116854757" pbc="T T T"
Pt      -0.00000003       0.00000022      19.95723434        4       0.00000149      -0.00000241       0.02019305
Pt       2.80721396      -0.00000018      19.95723452        4      -0.00058247       0.00188347       0.01972779
Pt       5.61442778      -0.00000004      19.95723454        4      -0.00059895       0.00107133       0.02017285
Pt       1.40360719       2.43111838      19.95723440        4       0.00122678      -0.00001433       0.02019581
Pt       4.21082079       2.43111832      19.95723449        4       0.00000271       0.00000152      -0.00017667
Pt       7.01803484       2.43111842      19.95723441        4      -0.00133745      -0.00144212       0.01973362
Pt       2.80721406       4.86223725      19.95723409        4       0.00191693      -0.00043928       0.01972832
Pt       5.61442803       4.86223733      19.95723425        4      -0.00063075      -0.00105612       0.02020550
Pt       8.42164141       4.86223723      19.95723442        4       0.00000107      -0.00000201       0.02023741
Pt       1.40360730       0.81037260      22.29206788        3       0.00096546      -0.00239843      -0.05976066
Pt       4.21082126       0.81037254      22.29206791        3      -0.00272285      -0.00449677      -0.04502458
Pt       7.01803479       0.81037259      22.29206783        3       0.00159565       0.00200910      -0.05978961
Pt       2.80721452       3.24149125      22.29206775        3      -0.00251892       0.00459565      -0.04504944
Pt       5.61442760       3.24149123      22.29206789        3       0.00523536      -0.00008137      -0.04504165
Pt       8.42164156       3.24149116      22.29206803        3      -0.00149229       0.00159898      -0.05603698
Pt       4.21082093       5.67260998      22.29206800        3      -0.00256299       0.00039089      -0.05981532
Pt       7.01803487       5.67261039      22.29206775        3       0.00212312       0.00052596      -0.05604354
Pt       9.82524824       5.67261062      22.29206803        3      -0.00062522      -0.00213093      -0.05608026
Pt      -0.00000058       1.62074570      24.58417378        2       0.00275060      -0.00921510       0.01460435
Pt       2.80721444       1.62074548      24.58417392        2       0.02292632       0.01314529      -0.01506354
Pt       5.61442778       1.62074537      24.58417373        2      -0.02281417       0.01326163      -0.01494558
Pt       1.40360636       4.05186440      24.58417384        2      -0.03396602       0.02358292       0.07020578
Pt       4.21082088       4.05186399      24.58417380        2      -0.00008987      -0.02641542      -0.01499340
Pt       7.01803502       4.05186406      24.58417406        2       0.03739804       0.01759685       0.07024869
Pt       2.80721280       6.48298341      24.58417369        2       0.00658060       0.00702965       0.01467755
Pt       5.61442796       6.48298324      24.58417387        2      -0.00937256       0.00221376       0.01460957
Pt       8.42164221       6.48298340      24.58417380        2      -0.00340944      -0.04121040       0.07028954
Pt       0.00000015      -0.00000138      26.92159433        1      -0.00000266      -0.00000347       0.00069156
Pt       2.80172630       0.00718465      26.91069412        1       0.00350651      -0.00387484       0.00491311
Pt       5.62022684       0.00762089      26.90933176        1      -0.00408475      -0.00458525       0.00538438
Pt       1.40729961       2.42228717      26.90929538        1      -0.00189556       0.00582458       0.00543616
Pt       4.21082127       2.43111868      26.91840482        1       0.00000384      -0.00000693       0.00045907
Pt       7.01455654       2.42276465      26.91071322        1       0.00157577       0.00497308       0.00489405
Pt       2.81617955       4.86340764      26.91068717        1      -0.00508689      -0.00111621       0.00497115
Pt       5.60493600       4.86344839      26.90930005        1       0.00598200      -0.00125728       0.00546453
Pt       8.42164130       4.86222512      26.93299148        1       0.00000065      -0.00000978       0.03850165
N        8.42164177       4.86234733      29.83992324        0      -0.00002282       0.00143480       0.04943296
H        7.92952772       4.01009245      29.56601428        0      -0.01229621      -0.02091322      -0.00264076
H        7.92969229       5.71453782      29.56525741        0      -0.01086666       0.01920410      -0.00212735
H        9.40570349       4.86198441      29.56563671        0       0.02318658       0.00032815      -0.00238926
