40
Lattice="8.421641763931781 0.0 0.0 4.2108208819658905 7.293355709136913 0.0 0.0 0.0 46.87624170604845" Properties=species:S:1:pos:R:3:tags:I:1:forces:R:3 charge=0 spin=0 energy=-206.99357295951012 free_energy=-206.99357295951012 stress="0.010039485059678555 2.19161663039813e-07 5.420331739003359e-09 2.19161663039813e-07 0.01003949623554945 2.744043001712271e-07 5.420331739003359e-09 2.744043001712271e-07 -0.00017723970813676715" pbc="T T T"
Pt      -0.00000003       0.00000022      19.95723434        4       0.00000157      -0.00000266       0.02428683
Pt       2.80721396      -0.00000018      19.95723452        4       0.00268208       0.00425395       0.02108196
Pt       5.61442778      -0.00000004      19.95723454        4      -0.00382656       0.00373500       0.02244055
Pt       1.40360719       2.43111838      19.95723440        4       0.00514452       0.00145768       0.02247273
Pt       4.21082079       2.43111832      19.95723449        4       0.00000219       0.00000240      -0.04323567
Pt       7.01803484       2.43111842      19.95723441        4      -0.00502580       0.00020472       0.02109971
Pt       2.80721406       4.86223725      19.95723409        4       0.00234193      -0.00445615       0.02108361
Pt       5.61442803       4.86223733      19.95723425        4      -0.00132069      -0.00518742       0.02250208
Pt       8.42164141       4.86223723      19.95723442        4       0.00000104      -0.00000238       0.01846036
Pt       1.40360730       0.81037260      22.29206788        3       0.00020075       0.00109182      -0.07531138
Pt       4.21082126       0.81037254      22.29206791        3      -0.00266828       0.02620195      -0.08330096
Pt       7.01803479       0.81037259      22.29206783        3      -0.00103423      -0.00041058      -0.07535481
Pt       2.80721452       3.24149125      22.29206775        3       0.02403573      -0.01081076      -0.08333065
Pt       5.61442760       3.24149123      22.29206789        3      -0.02137234      -0.01537044      -0.08335130
Pt       8.42164156       3.24149116      22.29206803        3      -0.00301319       0.00217097      -0.04452401
Pt       4.21082093       5.67260998      22.29206800        3       0.00083199      -0.00066701      -0.07545839
Pt       7.01803487       5.67261039      22.29206775        3       0.00338453       0.00158195      -0.04458685
Pt       9.82524824       5.67261062      22.29206803        3      -0.00036647      -0.00375867      -0.04461990
Pt      -0.00000058       1.62074570      24.58417378        2       0.00732565      -0.01041216       0.01464238
Pt       2.80721444       1.62074548      24.58417392        2       0.03515897       0.03075004      -0.06512517
Pt       5.61442778       1.62074537      24.58417373        2      -0.04418614       0.01502705      -0.06501950
Pt       1.40360636       4.05186440      24.58417384        2      -0.13576184       0.08264681       0.24124463
Pt       4.21082088       4.05186399      24.58417380        2       0.00901263      -0.04579506      -0.06488354
Pt       7.01803502       4.05186406      24.58417406        2       0.13946722       0.07625588       0.24127066
Pt       2.80721280       6.48298341      24.58417369        2       0.00537992       0.01146874       0.01486439
Pt       5.61442796       6.48298324      24.58417387        2      -0.01269685      -0.00108994       0.01478904
Pt       8.42164221       6.48298340      24.58417380        2      -0.00370611      -0.15891358       0.24117266
Pt       0.00000380      -0.00000977      26.92785427        1      -0.00000573       0.00000743      -0.01782463
Pt       2.79872388       0.01820962      26.90590183        1      -0.01881852       0.01020205      -0.00254750
Pt       5.62088941       0.01361346      26.90866673        1       0.02525266       0.02164775      -0.02084008
Pt       1.41218068       2.41869315      26.90866454        1       0.00602741      -0.03254789      -0.02097853
Pt       4.21081742       2.43110675      26.92670208        1       0.00000629       0.00001637      -0.00936617
Pt       7.00648952       2.41462658      26.90590755        1       0.00065507      -0.02126939      -0.00253895
Pt       2.82724887       4.86047463      26.90590630        1       0.01817499       0.01119111      -0.00255363
Pt       5.59939218       4.86100123      26.90866490        1      -0.03128333       0.01102238      -0.02090980
Pt       8.42164120       4.86225744      26.99498237        1      -0.00000208      -0.00001070       0.03638338
N        8.42163983       4.86225533      29.15756495        0       0.00011921       0.00084452      -0.03631631
H        7.93419530       5.70289536      29.49438592        0       0.02148584      -0.03724502       0.00093374
H        9.39342881       4.86417769      29.49423897        0      -0.04328437      -0.00141975       0.00136738
H        7.93730167       4.01970828      29.49409211        0       0.02168046       0.03758897       0.00188149
