40
Lattice="8.421641763931781 0.0 0.0 4.2108208819658905 7.293355709136913 0.0 0.0 0.0 46.87624170604845" Properties=species:S:1:pos:R:3:tags:I:1:forces:R:3 charge=0 spin=0 energy=-206.9934089275277 free_energy=-206.9934089275277 stress="0.010006810538470745 6.936220984243846e-07 -4.573404766006206e-08 6.936220984243846e-07 0.010006852447986603 3.7920420936643495e-07 -4.573404766006206e-08 3.7920420936643495e-07 -0.00027036736719310284" pbc="T T T"
Pt      -0.00000003       0.00000022      19.95723434        4       0.00000070      -0.00000349       0.02378823
Pt       2.80721396      -0.00000018      19.95723452        4       0.00290689       0.00451212       0.02108786
Pt       5.61442778      -0.00000004      19.95723454        4      -0.00393360       0.00394134       0.02250378
Pt       1.40360719       2.43111838      19.95723440        4       0.00538168       0.00145075       0.02253859
Pt       4.21082079       2.43111832      19.95723449        4       0.00000191       0.00000324      -0.04408336
Pt       7.01803484       2.43111842      19.95723441        4      -0.00536612       0.00027059       0.02110581
Pt       2.80721406       4.86223725      19.95723409        4       0.00245851      -0.00478267       0.02109057
Pt       5.61442803       4.86223733      19.95723425        4      -0.00144950      -0.00538713       0.02256465
Pt       8.42164141       4.86223723      19.95723442        4       0.00000171      -0.00000497       0.01834236
Pt       1.40360730       0.81037260      22.29206788        3       0.00020285       0.00114877      -0.07597279
Pt       4.21082126       0.81037254      22.29206791        3      -0.00257841       0.02768790      -0.08432472
Pt       7.01803479       0.81037259      22.29206783        3      -0.00107948      -0.00043645      -0.07601553
Pt       2.80721452       3.24149125      22.29206775        3       0.02526688      -0.01164258      -0.08432782
Pt       5.61442760       3.24149123      22.29206789        3      -0.02269532      -0.01603122      -0.08434838
Pt       8.42164156       3.24149116      22.29206803        3      -0.00306006       0.00190124      -0.04536037
Pt       4.21082093       5.67260998      22.29206800        3       0.00087827      -0.00069031      -0.07610752
Pt       7.01803487       5.67261039      22.29206775        3       0.00317469       0.00174886      -0.04541320
Pt       9.82524824       5.67261062      22.29206803        3      -0.00011436      -0.00367253      -0.04544574
Pt      -0.00000058       1.62074570      24.58417378        2       0.00816630       0.00165723       0.00543557
Pt       2.80721444       1.62074548      24.58417392        2       0.03501627       0.03285382      -0.07630314
Pt       5.61442778       1.62074537      24.58417373        2      -0.04592036       0.01387815      -0.07619850
Pt       1.40360636       4.05186440      24.58417384        2      -0.13440581       0.08241099       0.25470361
Pt       4.21082088       4.05186399      24.58417380        2       0.01088252      -0.04671390      -0.07605215
Pt       7.01803502       4.05186406      24.58417406        2       0.13859357       0.07519191       0.25473997
Pt       2.80721280       6.48298341      24.58417369        2      -0.00546828       0.00610805       0.00563117
Pt       5.61442796       6.48298324      24.58417387        2      -0.00268473      -0.00787676       0.00554940
Pt       8.42164221       6.48298340      24.58417380        2      -0.00419064      -0.15747727       0.25428650
Pt      -0.00000004      -0.00001420      26.91828985        1       0.00000581       0.00005119       0.02239029
Pt       2.79484278       0.02368249      26.90717757        1       0.01037869      -0.02872824      -0.00634680
Pt       5.62327870       0.01671760      26.91089484        1       0.00082061      -0.00925359      -0.02954307
Pt       1.41368254       2.41507379      26.91091662        1      -0.00872261       0.00431460      -0.02971132
Pt       4.21082014       2.43109748      26.92365511        1      -0.00000164       0.00007577       0.00904264
Pt       7.00368474       2.40853538      26.90720267        1       0.01997215       0.02372386      -0.00631676
Pt       2.83393680       4.86106742      26.90721555        1      -0.03030511       0.00545281      -0.00641952
Pt       5.59550307       4.86149438      26.91092406        1       0.00786432       0.00537207      -0.02969983
Pt       8.42164104       4.86236050      26.99412531        1       0.00000153       0.00023747      -0.03540051
N        8.42164393       4.86249874      29.14352851        0      -0.00029431      -0.00673123       0.04341767
H        7.93776087       4.02015555      29.48143007        0       0.01755901       0.03165907       0.00185532
H        7.93439334       5.70220736      29.48268904        0       0.01574301      -0.02603742       0.00152624
H        9.39277033       4.86413837      29.48205891        0      -0.03300752      -0.00018188       0.00179076
