40
Lattice="8.421641763931781 0.0 0.0 4.2108208819658905 7.293355709136913 0.0 0.0 0.0 46.87624170604845" Properties=species:S:1:pos:R:3:tags:I:1:forces:R:3 charge=0 spin=0 energy=-206.4285838695443 free_energy=-206.4285838695443 stress="0.010264118202030659 -6.546238040527896e-08 -2.0760754892990008e-08 -6.546238040527896e-08 0.010264089331030846 -8.240966131722871e-09 -2.0760754892990008e-08 -8.240966131722871e-09 -0.0002611083909869194" pbc="T T T"
Pt      -0.00000003       0.00000022      19.95723434        4       0.00000140      -0.00000283       0.02029721
Pt       2.80721396      -0.00000018      19.95723452        4      -0.00032625       0.00182069       0.01994265
Pt       5.61442778      -0.00000004      19.95723454        4      -0.00076798       0.00085608       0.01998400
Pt       1.40360719       2.43111838      19.95723440        4       0.00112602       0.00023945       0.02000802
Pt       4.21082079       2.43111832      19.95723449        4       0.00000285       0.00000155      -0.00014014
Pt       7.01803484       2.43111842      19.95723441        4      -0.00141260      -0.00118876       0.01994814
Pt       2.80721406       4.86223725      19.95723409        4       0.00173618      -0.00063030       0.01994299
Pt       5.61442803       4.86223733      19.95723425        4      -0.00036052      -0.00109406       0.02001701
Pt       8.42164141       4.86223723      19.95723442        4       0.00000118      -0.00000251       0.02016578
Pt       1.40360730       0.81037260      22.29206788        3       0.00040290      -0.00124452      -0.06090707
Pt       4.21082126       0.81037254      22.29206791        3      -0.00138097      -0.00405042      -0.04470925
Pt       7.01803479       0.81037259      22.29206783        3       0.00087712       0.00094079      -0.06093427
Pt       2.80721452       3.24149125      22.29206775        3      -0.00280380       0.00320421      -0.04472658
Pt       5.61442760       3.24149123      22.29206789        3       0.00417702       0.00085926      -0.04471952
Pt       8.42164156       3.24149116      22.29206803        3      -0.00066164       0.00111837      -0.05526668
Pt       4.21082093       5.67260998      22.29206800        3      -0.00127903       0.00030562      -0.06095984
Pt       7.01803487       5.67261039      22.29206775        3       0.00129350       0.00004675      -0.05527168
Pt       9.82524824       5.67261062      22.29206803        3      -0.00062723      -0.00117498      -0.05531027
Pt      -0.00000058       1.62074570      24.58417378        2       0.00342874      -0.00873823       0.01364674
Pt       2.80721444       1.62074548      24.58417392        2       0.02254786       0.01272608      -0.01357647
Pt       5.61442778       1.62074537      24.58417373        2      -0.02226185       0.01314568      -0.01347203
Pt       1.40360636       4.05186440      24.58417384        2      -0.03512526       0.02281774       0.07014547
Pt       4.21082088       4.05186399      24.58417380        2      -0.00026447      -0.02587542      -0.01351294
Pt       7.01803502       4.05186406      24.58417406        2       0.03731882       0.01898337       0.07019515
Pt       2.80721280       6.48298341      24.58417369        2       0.00583066       0.00737591       0.01370042
Pt       5.61442796       6.48298324      24.58417387        2      -0.00930114       0.00138876       0.01364868
Pt       8.42164221       6.48298340      24.58417380        2      -0.00217096      -0.04182030       0.07018825
Pt       0.00000046      -0.00000071      26.92112087        1       0.00000072      -0.00000042       0.00084972
Pt       2.80162578       0.00752520      26.91021879        1       0.00360312      -0.00422262       0.00503461
Pt       5.61995536       0.00735428      26.91002337        1      -0.00381576      -0.00428569       0.00499076
Pt       1.40720397       2.42265515      26.90998954        1      -0.00177778       0.00545581       0.00501182
Pt       4.21082154       2.43111951      26.91866807        1      -0.00000058      -0.00000215       0.00053414
Pt       7.01431216       2.42250561      26.91024145        1       0.00184114       0.00525041       0.00501048
Pt       2.81652596       4.86332561      26.91021340        1      -0.00544861      -0.00102871       0.00509106
Pt       5.60530259       4.86334655      26.90999359        1       0.00559261      -0.00117156       0.00504863
Pt       8.42164019       4.86223659      26.93320577        1       0.00000387      -0.00000148       0.03793804
N        8.42163958       4.86223839      29.84016499        0       0.00020245      -0.00011509       0.04955830
H        8.42159621       5.84616554      29.56531967        0      -0.00011155       0.02325439      -0.00248459
H        9.27377223       4.37031054      29.56531917        0       0.02001292      -0.01142787      -0.00242120
H        7.56955730       4.37023420      29.56531975        0      -0.02010317      -0.01171265      -0.00248542
