40
Lattice="8.421641763931781 0.0 0.0 4.2108208819658905 7.293355709136913 0.0 0.0 0.0 46.87624170604845" Properties=species:S:1:pos:R:3:tags:I:1:forces:R:3 charge=0 spin=0 energy=-206.99403263053063 free_energy=-206.99403263053063 stress="0.01000985037535429 -1.3553913902342174e-07 -4.124165453589512e-09 -1.3553913902342174e-07 0.010009825229644775 2.019957321408583e-07 -4.124165453589512e-09 2.019957321408583e-07 -0.0002338334161322564" pbc="T T T"
Pt      -0.00000003       0.00000022      19.95723434        4       0.00000209      -0.00000418       0.02410977
Pt       2.80721396      -0.00000018      19.95723452        4       0.00275576       0.00455623       0.02159748
Pt       5.61442778      -0.00000004      19.95723454        4      -0.00392324       0.00389768       0.02174824
Pt       1.40360719       2.43111838      19.95723440        4       0.00533903       0.00145841       0.02178039
Pt       4.21082079       2.43111832      19.95723449        4       0.00000230       0.00000466      -0.04330175
Pt       7.01803484       2.43111842      19.95723441        4      -0.00532885       0.00011544       0.02161430
Pt       2.80721406       4.86223725      19.95723409        4       0.00257152      -0.00467684       0.02159727
Pt       5.61442803       4.86223733      19.95723425        4      -0.00141766      -0.00535912       0.02181126
Pt       8.42164141       4.86223723      19.95723442        4       0.00000098      -0.00000446       0.01877785
Pt       1.40360730       0.81037260      22.29206788        3      -0.00065596       0.00309584      -0.07510540
Pt       4.21082126       0.81037254      22.29206791        3      -0.00031412       0.02656014      -0.08283313
Pt       7.01803479       0.81037259      22.29206783        3      -0.00234909      -0.00216325      -0.07515775
Pt       2.80721452       3.24149125      22.29206775        3       0.02317778      -0.01304634      -0.08287244
Pt       5.61442760       3.24149123      22.29206789        3      -0.02287111      -0.01352496      -0.08288413
Pt       8.42164156       3.24149116      22.29206803        3      -0.00167805       0.00188225      -0.04588907
Pt       4.21082093       5.67260998      22.29206800        3       0.00299910      -0.00094023      -0.07525921
Pt       7.01803487       5.67261039      22.29206775        3       0.00247220       0.00056065      -0.04593113
Pt       9.82524824       5.67261062      22.29206803        3      -0.00078770      -0.00247566      -0.04597823
Pt      -0.00000058       1.62074570      24.58417378        2       0.00307129      -0.00890983       0.00687261
Pt       2.80721444       1.62074548      24.58417392        2       0.04207424       0.02435154      -0.08009875
Pt       5.61442778       1.62074537      24.58417373        2      -0.04206704       0.02427397      -0.07997741
Pt       1.40360636       4.05186440      24.58417384        2      -0.13643962       0.08394878       0.24896774
Pt       4.21082088       4.05186399      24.58417380        2       0.00000022      -0.04853744      -0.07984637
Pt       7.01803502       4.05186406      24.58417406        2       0.14090630       0.07626428       0.24901937
Pt       2.80721280       6.48298341      24.58417369        2       0.00619949       0.00706884       0.00712884
Pt       5.61442796       6.48298324      24.58417387        2      -0.00928656       0.00185399       0.00706932
Pt       8.42164221       6.48298340      24.58417380        2      -0.00446009      -0.16015108       0.24904446
Pt       0.00000024       0.00000974      26.92895285        1       0.00000050       0.00002743      -0.01202056
Pt       2.79660655       0.01996183      26.90621999        1       0.00478239      -0.01912046      -0.00733929
Pt       5.62603281       0.01917820      26.90576070        1      -0.00215841      -0.01360392      -0.00323391
Pt       1.41435560       2.41153613      26.90573990        1      -0.01062446       0.00870238      -0.00328219
Pt       4.21081793       2.43113710      26.92403170        1      -0.00000406       0.00002978       0.00425701
Pt       7.00608416       2.41200325      26.90622430        1       0.01416005       0.01370169      -0.00735793
Pt       2.82977560       4.86146359      26.90621972        1      -0.01893974       0.00549094      -0.00734478
Pt       5.59206919       4.86271297      26.90575839        1       0.01277933       0.00495999      -0.00329342
Pt       8.42164305       4.86233266      26.99528057        1       0.00000680      -0.00005909       0.00439889
N        8.42163976       4.86223126      29.15362949        0       0.00008828      -0.00001781      -0.01622117
H        8.90560450       4.01949900      29.49040220        0      -0.02227832       0.03746079       0.00215765
H        7.44990359       4.86437750      29.49061477        0       0.04345658       0.00027145       0.00183227
H        8.90941086       5.70259548      29.49083446        0      -0.02126191      -0.03794244       0.00144374
