40
Lattice="8.421641763931781 0.0 0.0 4.2108208819658905 7.293355709136913 0.0 0.0 0.0 46.87624170604845" Properties=species:S:1:pos:R:3:tags:I:1:forces:R:3 charge=0 spin=0 energy=-206.42858196219566 free_energy=-206.42858196219566 stress="0.0102641386911273 -4.899517591638869e-08 -1.0398442995551704e-08 -4.899517591638869e-08 0.010264086537063122 -7.732809947924579e-10 -1.0398442995551704e-08 -7.732809947924579e-10 -0.00026110938051715493" pbc="T T T"
Pt      -0.00000003       0.00000022      19.95723434        4       0.00000140      -0.00000280       0.02029725
Pt       2.80721396      -0.00000018      19.95723452        4      -0.00032632       0.00182062       0.01994263
Pt       5.61442778      -0.00000004      19.95723454        4      -0.00076797       0.00085589       0.01998402
Pt       1.40360719       2.43111838      19.95723440        4       0.00112602       0.00023943       0.02000813
Pt       4.21082079       2.43111832      19.95723449        4       0.00000291       0.00000166      -0.00013997
Pt       7.01803484       2.43111842      19.95723441        4      -0.00141261      -0.00118876       0.01994810
Pt       2.80721406       4.86223725      19.95723409        4       0.00173604      -0.00063032       0.01994278
Pt       5.61442803       4.86223733      19.95723425        4      -0.00036044      -0.00109403       0.02001714
Pt       8.42164141       4.86223723      19.95723442        4       0.00000110      -0.00000249       0.02016580
Pt       1.40360730       0.81037260      22.29206788        3       0.00040294      -0.00124457      -0.06090704
Pt       4.21082126       0.81037254      22.29206791        3      -0.00138116      -0.00405026      -0.04470924
Pt       7.01803479       0.81037259      22.29206783        3       0.00087720       0.00094090      -0.06093413
Pt       2.80721452       3.24149125      22.29206775        3      -0.00280374       0.00320415      -0.04472654
Pt       5.61442760       3.24149123      22.29206789        3       0.00417697       0.00085919      -0.04471959
Pt       8.42164156       3.24149116      22.29206803        3      -0.00066167       0.00111833      -0.05526681
Pt       4.21082093       5.67260998      22.29206800        3      -0.00127895       0.00030569      -0.06095984
Pt       7.01803487       5.67261039      22.29206775        3       0.00129339       0.00004672      -0.05527161
Pt       9.82524824       5.67261062      22.29206803        3      -0.00062719      -0.00117502      -0.05531010
Pt      -0.00000058       1.62074570      24.58417378        2       0.00342872      -0.00873809       0.01364701
Pt       2.80721444       1.62074548      24.58417392        2       0.02254797       0.01272596      -0.01357647
Pt       5.61442778       1.62074537      24.58417373        2      -0.02226183       0.01314564      -0.01347179
Pt       1.40360636       4.05186440      24.58417384        2      -0.03512514       0.02281797       0.07014474
Pt       4.21082088       4.05186399      24.58417380        2      -0.00026442      -0.02587548      -0.01351308
Pt       7.01803502       4.05186406      24.58417406        2       0.03731873       0.01898335       0.07019506
Pt       2.80721280       6.48298341      24.58417369        2       0.00583073       0.00737578       0.01370058
Pt       5.61442796       6.48298324      24.58417387        2      -0.00930114       0.00138880       0.01364870
Pt       8.42164221       6.48298340      24.58417380        2      -0.00217105      -0.04182012       0.07018831
Pt       0.00000041      -0.00000072      26.92112087        1       0.00000060      -0.00000023       0.00084923
Pt       2.80162585       0.00752517      26.91021883        1       0.00360307      -0.00422260       0.00503476
Pt       5.61995531       0.00735425      26.91002339        1      -0.00381612      -0.00428575       0.00499061
Pt       1.40720388       2.42265529      26.90998950        1      -0.00177774       0.00545508       0.00501220
Pt       4.21082152       2.43111953      26.91866810        1      -0.00000038      -0.00000224       0.00053420
Pt       7.01431225       2.42250556      26.91024141        1       0.00184117       0.00525048       0.00501040
Pt       2.81652589       4.86332556      26.91021342        1      -0.00544832      -0.00102850       0.00509089
Pt       5.60530268       4.86334655      26.90999368        1       0.00559259      -0.00117166       0.00504865
Pt       8.42164021       4.86223654      26.93320573        1       0.00000382      -0.00000164       0.03793700
N        8.42164081       4.86223908      29.84016522        0       0.00008725      -0.00018657       0.04954157
H        9.27377195       4.37031095      29.56531927        0       0.02002976      -0.01143530      -0.00242659
H        7.56955600       4.37023293      29.56531951        0      -0.02000652      -0.01165686      -0.00245456
H        8.42159691       5.84616523      29.56531957        0      -0.00010975       0.02327771      -0.00249205
