40
Lattice="8.421641763931781 0.0 0.0 4.2108208819658905 7.293355709136913 0.0 0.0 0.0 46.87624170604845" Properties=species:S:1:pos:R:3:tags:I:1:forces:R:3 charge=0 spin=0 energy=-206.99317432364586 free_energy=-206.99317432364586 stress="0.010014014318585396 -1.1634462282472668e-07 -4.3111597847200755e-08 -1.1634462282472668e-07 0.010014034807682037 -3.6822908611178207e-10 -4.3111597847200755e-08 -3.6822908611178207e-10 -0.0002264163049403578" pbc="T T T"
Pt      -0.00000003       0.00000022      19.95723434        4       0.00000140      -0.00000304       0.02415536
Pt       2.80721396      -0.00000018      19.95723452        4       0.00252684       0.00453682       0.02146194
Pt       5.61442778      -0.00000004      19.95723454        4      -0.00375422       0.00404251       0.02207670
Pt       1.40360719       2.43111838      19.95723440        4       0.00537556       0.00124066       0.02210927
Pt       4.21082079       2.43111832      19.95723449        4       0.00000250       0.00000175      -0.04331837
Pt       7.01803484       2.43111842      19.95723441        4      -0.00519245      -0.00007131       0.02148092
Pt       2.80721406       4.86223725      19.95723409        4       0.00266348      -0.00446465       0.02146550
Pt       5.61442803       4.86223733      19.95723425        4      -0.00162436      -0.00528151       0.02214105
Pt       8.42164141       4.86223723      19.95723442        4       0.00000096      -0.00000171       0.01868810
Pt       1.40360730       0.81037260      22.29206788        3      -0.00025873       0.00216360      -0.07368407
Pt       4.21082126       0.81037254      22.29206791        3      -0.00145713       0.02618537      -0.08346611
Pt       7.01803479       0.81037259      22.29206783        3      -0.00173544      -0.00134206      -0.07373383
Pt       2.80721452       3.24149125      22.29206775        3       0.02342086      -0.01185880      -0.08350977
Pt       5.61442760       3.24149123      22.29206789        3      -0.02197072      -0.01431438      -0.08352869
Pt       8.42164156       3.24149116      22.29206803        3      -0.00224295       0.00242299      -0.04669599
Pt       4.21082093       5.67260998      22.29206800        3       0.00198995      -0.00081527      -0.07383700
Pt       7.01803487       5.67261039      22.29206775        3       0.00321360       0.00079005      -0.04674834
Pt       9.82524824       5.67261062      22.29206803        3      -0.00096588      -0.00322185      -0.04678392
Pt      -0.00000058       1.62074570      24.58417378        2       0.00405105      -0.00840539       0.00947953
Pt       2.80721444       1.62074548      24.58417392        2       0.03958467       0.02568440      -0.08192800
Pt       5.61442778       1.62074537      24.58417373        2      -0.04199909       0.02139704      -0.08179880
Pt       1.40360636       4.05186440      24.58417384        2      -0.13585252       0.08375221       0.24959834
Pt       4.21082088       4.05186399      24.58417380        2       0.00241157      -0.04706112      -0.08164380
Pt       7.01803502       4.05186406      24.58417406        2       0.14045987       0.07582188       0.24964550
Pt       2.80721280       6.48298341      24.58417369        2       0.00525554       0.00764170       0.00975602
Pt       5.61442796       6.48298324      24.58417387        2      -0.00931711       0.00074571       0.00967573
Pt       8.42164221       6.48298340      24.58417380        2      -0.00459055      -0.15956406       0.24964933
Pt       0.00000132      -0.00000377      26.92861371        1       0.00000831      -0.00001530      -0.00936480
Pt       2.79669272       0.01980117      26.90686222        1       0.00260210      -0.01730431      -0.00714047
Pt       5.62559424       0.01929503      26.90613534        1      -0.00264495      -0.01714043      -0.00725242
Pt       1.41471972       2.41180170      26.90610933        1      -0.01346255       0.01088115      -0.00728119
Pt       4.21082024       2.43112213      26.92230059        1      -0.00000123       0.00001045       0.00710772
Pt       7.00615511       2.41209170      26.90686473        1       0.01362610       0.01093040      -0.00713278
Pt       2.82961715       4.86146424      26.90686926        1      -0.01621554       0.00637443      -0.00717405
Pt       5.59214909       4.86226002      26.90612495        1       0.01609278       0.00624674      -0.00728969
Pt       8.42164188       4.86223834      26.99502500        1       0.00000104      -0.00000200       0.00945678
N        8.42164336       4.86223695      29.15419633        0      -0.00030371      -0.00003789      -0.01993798
H        7.57894982       5.34625590      29.49103477        0       0.04127484      -0.02371793       0.00171132
H        9.26215585       5.35001649      29.49103434        0      -0.04090260      -0.02372712       0.00183051
H        8.42381212       3.89043677      29.49103300        0      -0.00007104       0.04748010       0.00176034
