40
Lattice="8.421641763931781 0.0 0.0 4.2108208819658905 7.293355709136913 0.0 0.0 0.0 46.87624170604845" Properties=species:S:1:pos:R:3:tags:I:1:forces:R:3 charge=0 spin=0 energy=-206.9931762309945 free_energy=-206.9931762309945 stress="0.010014038532972336 -7.646667654626071e-08 -1.1547664158229054e-08 -7.646667654626071e-08 0.010014037601649761 8.837496956459745e-09 -1.1547664158229054e-08 8.837496956459745e-09 -0.00022638785594608635" pbc="T T T"
Pt      -0.00000003       0.00000022      19.95723434        4       0.00000144      -0.00000301       0.02415547
Pt       2.80721396      -0.00000018      19.95723452        4       0.00252679       0.00453666       0.02146181
Pt       5.61442778      -0.00000004      19.95723454        4      -0.00375414       0.00404248       0.02207663
Pt       1.40360719       2.43111838      19.95723440        4       0.00537551       0.00124060       0.02210918
Pt       4.21082079       2.43111832      19.95723449        4       0.00000255       0.00000177      -0.04331812
Pt       7.01803484       2.43111842      19.95723441        4      -0.00519257      -0.00007144       0.02148092
Pt       2.80721406       4.86223725      19.95723409        4       0.00266353      -0.00446463       0.02146553
Pt       5.61442803       4.86223733      19.95723425        4      -0.00162438      -0.00528140       0.02214095
Pt       8.42164141       4.86223723      19.95723442        4       0.00000087      -0.00000165       0.01868797
Pt       1.40360730       0.81037260      22.29206788        3      -0.00025870       0.00216404      -0.07368479
Pt       4.21082126       0.81037254      22.29206791        3      -0.00145701       0.02618524      -0.08346587
Pt       7.01803479       0.81037259      22.29206783        3      -0.00173531      -0.00134220      -0.07373378
Pt       2.80721452       3.24149125      22.29206775        3       0.02342092      -0.01185848      -0.08350888
Pt       5.61442760       3.24149123      22.29206789        3      -0.02197059      -0.01431428      -0.08352826
Pt       8.42164156       3.24149116      22.29206803        3      -0.00224278       0.00242306      -0.04669620
Pt       4.21082093       5.67260998      22.29206800        3       0.00198986      -0.00081517      -0.07383672
Pt       7.01803487       5.67261039      22.29206775        3       0.00321342       0.00079000      -0.04674831
Pt       9.82524824       5.67261062      22.29206803        3      -0.00096580      -0.00322189      -0.04678386
Pt      -0.00000058       1.62074570      24.58417378        2       0.00405094      -0.00840537       0.00947974
Pt       2.80721444       1.62074548      24.58417392        2       0.03958491       0.02568453      -0.08192772
Pt       5.61442778       1.62074537      24.58417373        2      -0.04199926       0.02139727      -0.08179835
Pt       1.40360636       4.05186440      24.58417384        2      -0.13585293       0.08375277       0.24959986
Pt       4.21082088       4.05186399      24.58417380        2       0.00241262      -0.04706030      -0.08164132
Pt       7.01803502       4.05186406      24.58417406        2       0.14045760       0.07582229       0.24964637
Pt       2.80721280       6.48298341      24.58417369        2       0.00525564       0.00764189       0.00975550
Pt       5.61442796       6.48298324      24.58417387        2      -0.00931710       0.00074373       0.00967810
Pt       8.42164221       6.48298340      24.58417380        2      -0.00459052      -0.15956463       0.24965057
Pt       0.00000121      -0.00000384      26.92861355        1       0.00000982      -0.00001333      -0.00936480
Pt       2.79669268       0.01980128      26.90686240        1       0.00260289      -0.01730591      -0.00714046
Pt       5.62559447       0.01929515      26.90613538        1      -0.00264820      -0.01714159      -0.00725204
Pt       1.41471976       2.41180157      26.90610922        1      -0.01346387       0.01088303      -0.00728109
Pt       4.21082014       2.43112219      26.92230017        1      -0.00000115       0.00000996       0.00710740
Pt       7.00615509       2.41209169      26.90686510        1       0.01362613       0.01093244      -0.00713328
Pt       2.82961723       4.86146443      26.90686932        1      -0.01621644       0.00637181      -0.00717357
Pt       5.59214893       4.86226006      26.90612510        1       0.01609513       0.00624606      -0.00729692
Pt       8.42164202       4.86223831      26.99502586        1      -0.00000145      -0.00000253       0.00947016
N        8.42163997       4.86223589      29.15419717        0       0.00000081       0.00004357      -0.01989797
H        8.42381246       3.89043700      29.49103728        0      -0.00009199       0.04745742       0.00175989
H        7.57895141       5.34625510      29.49103877        0       0.04117714      -0.02367828       0.00174199
H        9.26215766       5.35001729      29.49103974        0      -0.04108410      -0.02382467       0.00174410
