40
Lattice="8.421641763931781 0.0 0.0 4.2108208819658905 7.293355709136913 0.0 0.0 0.0 46.87624170604845" Properties=species:S:1:pos:R:3:tags:I:1:forces:R:3 charge=0 spin=0 energy=-206.99321247061852 free_energy=-206.99321247061852 stress="0.01000113133341074 -9.110562615433082e-08 -1.3749673399843232e-08 -9.110562615433082e-08 0.0100011695176363 -3.3416785782947045e-08 -1.3749673399843232e-08 -3.3416785782947045e-08 -0.0002696901501622051" pbc="T T T"
Pt      -0.00000003       0.00000022      19.95723434        4       0.00000206      -0.00000338       0.02421755
Pt       2.80721396      -0.00000018      19.95723452        4       0.00260382       0.00443559       0.02148559
Pt       5.61442778      -0.00000004      19.95723454        4      -0.00376287       0.00386888       0.02208340
Pt       1.40360719       2.43111838      19.95723440        4       0.00523040       0.00133399       0.02211610
Pt       4.21082079       2.43111832      19.95723449        4       0.00000247       0.00000240      -0.04380295
Pt       7.01803484       2.43111842      19.95723441        4      -0.00514463       0.00004546       0.02150408
Pt       2.80721406       4.86223725      19.95723409        4       0.00253860      -0.00447958       0.02148512
Pt       5.61442803       4.86223733      19.95723425        4      -0.00147050      -0.00520049       0.02214527
Pt       8.42164141       4.86223723      19.95723442        4       0.00000127      -0.00000272       0.01851129
Pt       1.40360730       0.81037260      22.29206788        3      -0.00038275       0.00220652      -0.07473484
Pt       4.21082126       0.81037254      22.29206791        3      -0.00153466       0.02691095      -0.08493464
Pt       7.01803479       0.81037259      22.29206783        3      -0.00170933      -0.00147123      -0.07478791
Pt       2.80721452       3.24149125      22.29206775        3       0.02408673      -0.01215015      -0.08498100
Pt       5.61442760       3.24149123      22.29206789        3      -0.02255546      -0.01474834      -0.08499852
Pt       8.42164156       3.24149116      22.29206803        3      -0.00223950       0.00199468      -0.04514047
Pt       4.21082093       5.67260998      22.29206800        3       0.00208949      -0.00072789      -0.07488641
Pt       7.01803487       5.67261039      22.29206775        3       0.00284804       0.00099535      -0.04519178
Pt       9.82524824       5.67261062      22.29206803        3      -0.00060171      -0.00300785      -0.04522969
Pt      -0.00000058       1.62074570      24.58417378        2       0.00378619      -0.00562499       0.00739519
Pt       2.80721444       1.62074548      24.58417392        2       0.04030060       0.02596261      -0.07122596
Pt       5.61442778       1.62074537      24.58417373        2      -0.04261203       0.02187111      -0.07111555
Pt       1.40360636       4.05186440      24.58417384        2      -0.13520990       0.08380035       0.24262007
Pt       4.21082088       4.05186399      24.58417380        2       0.00230123      -0.04783595      -0.07094415
Pt       7.01803502       4.05186406      24.58417406        2       0.14016050       0.07527021       0.24266063
Pt       2.80721280       6.48298341      24.58417369        2       0.00299988       0.00599843       0.00764660
Pt       5.61442796       6.48298324      24.58417387        2      -0.00677717      -0.00042051       0.00758131
Pt       8.42164221       6.48298340      24.58417380        2      -0.00495137      -0.15904255       0.24264818
Pt       0.00000116       0.00000166      26.92365549        1       0.00000755      -0.00000999       0.00308587
Pt       2.79851976       0.01727512      26.90744301        1      -0.01161478       0.00789719      -0.01105707
Pt       5.62326919       0.01655410      26.90628608        1       0.01298019       0.00859145      -0.00970058
Pt       1.41353214       2.41519303      26.90627138        1       0.00091225      -0.01554830      -0.00976556
Pt       4.21081925       2.43111462      26.92580983        1       0.00000135       0.00000866      -0.00898407
Pt       7.00740927       2.41494844      26.90743538        1      -0.00101249      -0.01403227      -0.01100725
Pt       2.82653292       4.86112821      26.90745966        1       0.01264205       0.00614817      -0.01110242
Pt       5.59566753       4.86160483      26.90629399        1      -0.01391020       0.00696367      -0.00978694
Pt       8.42164307       4.86223657      26.99484241        1      -0.00000259       0.00000049      -0.02555599
N        8.42164364       4.86223439      29.14518938        0      -0.00014259      -0.00001714       0.04928289
H        8.42112559       3.89204710      29.48553752        0      -0.00000133       0.01883501      -0.00251671
H        7.58169245       5.34777488      29.48553563        0       0.01637212      -0.00943426      -0.00253651
H        9.26210611       5.34688044      29.48553594        0      -0.01623086      -0.00938341      -0.00248192
