40
Lattice="8.421641763931781 0.0 0.0 4.2108208819658905 7.293355709136913 0.0 0.0 0.0 46.87624170604845" Properties=species:S:1:pos:R:3:tags:I:1:forces:R:3 charge=0 spin=0 energy=-206.99298931082848 free_energy=-206.99298931082848 stress="0.010013486258685589 -5.976036021593245e-08 -1.5686557830463244e-08 -5.976036021593245e-08 0.010013519786298275 -3.423793870638292e-08 -1.5686557830463244e-08 -3.423793870638292e-08 -0.00022667678422294557" pbc="T T T"
Pt      -0.00000003       0.00000022      19.95723434        4       0.00000172      -0.00000294       0.02404624
Pt       2.80721396      -0.00000018      19.95723452        4       0.00283282       0.00436865       0.02140170
Pt       5.61442778      -0.00000004      19.95723454        4      -0.00415549       0.00389208       0.02204129
Pt       1.40360719       2.43111838      19.95723440        4       0.00544696       0.00166297       0.02207297
Pt       4.21082079       2.43111832      19.95723449        4       0.00000262       0.00000183      -0.04327569
Pt       7.01803484       2.43111842      19.95723441        4      -0.00520156       0.00027879       0.02142178
Pt       2.80721406       4.86223725      19.95723409        4       0.00236637      -0.00464614       0.02140319
Pt       5.61442803       4.86223733      19.95723425        4      -0.00129406      -0.00555286       0.02210520
Pt       8.42164141       4.86223723      19.95723442        4       0.00000090      -0.00000228       0.01876155
Pt       1.40360730       0.81037260      22.29206788        3      -0.00013278       0.00222112      -0.07624705
Pt       4.21082126       0.81037254      22.29206791        3      -0.00174647       0.02698656      -0.08225662
Pt       7.01803479       0.81037259      22.29206783        3      -0.00184736      -0.00126672      -0.07629392
Pt       2.80721452       3.24149125      22.29206775        3       0.02425984      -0.01200844      -0.08230031
Pt       5.61442760       3.24149123      22.29206789        3      -0.02251988      -0.01496625      -0.08231426
Pt       8.42164156       3.24149116      22.29206803        3      -0.00225183       0.00173545      -0.04532192
Pt       4.21082093       5.67260998      22.29206800        3       0.00197868      -0.00094937      -0.07639853
Pt       7.01803487       5.67261039      22.29206775        3       0.00262735       0.00114286      -0.04537880
Pt       9.82524824       5.67261062      22.29206803        3      -0.00036908      -0.00288837      -0.04541527
Pt      -0.00000058       1.62074570      24.58417378        2       0.00433592      -0.00706415       0.00525162
Pt       2.80721444       1.62074548      24.58417392        2       0.04038473       0.02572931      -0.07790870
Pt       5.61442778       1.62074537      24.58417373        2      -0.04243295       0.02206688      -0.07777431
Pt       1.40360636       4.05186440      24.58417384        2      -0.13651995       0.08350746       0.25020787
Pt       4.21082088       4.05186399      24.58417380        2       0.00205482      -0.04777858      -0.07762729
Pt       7.01803502       4.05186406      24.58417406        2       0.14057314       0.07651811       0.25026581
Pt       2.80721280       6.48298341      24.58417369        2       0.00394502       0.00722025       0.00551830
Pt       5.61442796       6.48298324      24.58417387        2      -0.00829643      -0.00018466       0.00544523
Pt       8.42164221       6.48298340      24.58417380        2      -0.00404813      -0.16002066       0.25025576
Pt       0.00000140      -0.00000612      26.92626465        1       0.00000499      -0.00001642      -0.00833435
Pt       2.79664838       0.01965339      26.90669769        1       0.00410414      -0.01611698      -0.00706257
Pt       5.62575976       0.01953309      26.90646867        1      -0.00377446      -0.01545921      -0.00768457
Pt       1.41484010       2.41154027      26.90644297        1      -0.01144069       0.01102369      -0.00770472
Pt       4.21082024       2.43112029      26.92456325        1      -0.00000357       0.00000758       0.00628749
Pt       7.00630612       2.41212950      26.90670348        1       0.01184404       0.01164141      -0.00704964
Pt       2.82950851       4.86156916      26.90670267        1      -0.01593236       0.00448156      -0.00707229
Pt       5.59186112       4.86227798      26.90646081        1       0.01520509       0.00443085      -0.00773259
Pt       8.42164122       4.86223751      26.99499308        1      -0.00000213       0.00000836       0.00850796
N        8.42164201       4.86223720      29.15419799        0      -0.00009124       0.00005879      -0.01948107
H        7.58153198       4.37382512      29.49105572        0       0.04022610       0.02335083       0.00186864
H        8.41871832       5.83400030      29.49105666        0       0.00012360      -0.04652234       0.00186469
H        9.26467348       4.37888825      29.49105513        0      -0.04025840       0.02311079       0.00190712
