40
Lattice="8.421641763931781 0.0 0.0 4.2108208819658905 7.293355709136913 0.0 0.0 0.0 46.87624170604845" Properties=species:S:1:pos:R:3:tags:I:1:forces:R:3 charge=0 spin=0 energy=-206.99318576773766 free_energy=-206.99318576773766 stress="0.009989400394260883 -7.993838835318456e-08 4.851130053218355e-10 -7.993838835318456e-08 0.009989412501454353 -8.439442211738424e-08 4.851130053218355e-10 -8.439442211738424e-08 -0.0002673469134606421" pbc="T T T"
Pt      -0.00000003       0.00000022      19.95723434        4       0.00000231      -0.00000334       0.02406764
Pt       2.80721396      -0.00000018      19.95723452        4       0.00290174       0.00433321       0.02141729
Pt       5.61442778      -0.00000004      19.95723454        4      -0.00418279       0.00380989       0.02203427
Pt       1.40360719       2.43111838      19.95723440        4       0.00539118       0.00172684       0.02206618
Pt       4.21082079       2.43111832      19.95723449        4       0.00000279       0.00000278      -0.04362361
Pt       7.01803484       2.43111842      19.95723441        4      -0.00520710       0.00035542       0.02143654
Pt       2.80721406       4.86223725      19.95723409        4       0.00230273      -0.00468731       0.02141478
Pt       5.61442803       4.86223733      19.95723425        4      -0.00121073      -0.00553489       0.02209610
Pt       8.42164141       4.86223723      19.95723442        4       0.00000127      -0.00000310       0.01868362
Pt       1.40360730       0.81037260      22.29206788        3      -0.00025647       0.00227795      -0.07705124
Pt       4.21082126       0.81037254      22.29206791        3      -0.00180925       0.02757553      -0.08325037
Pt       7.01803479       0.81037259      22.29206783        3      -0.00183501      -0.00140152      -0.07710329
Pt       2.80721452       3.24149125      22.29206775        3       0.02480021      -0.01224562      -0.08329627
Pt       5.61442760       3.24149123      22.29206789        3      -0.02299480      -0.01531874      -0.08331124
Pt       8.42164156       3.24149116      22.29206803        3      -0.00222585       0.00140581      -0.04422208
Pt       4.21082093       5.67260998      22.29206800        3       0.00208932      -0.00087182      -0.07720248
Pt       7.01803487       5.67261039      22.29206775        3       0.00233457       0.00127834      -0.04427466
Pt       9.82524824       5.67261062      22.29206803        3      -0.00010227      -0.00270488      -0.04431283
Pt      -0.00000058       1.62074570      24.58417378        2       0.00407886      -0.00400165       0.00086029
Pt       2.80721444       1.62074548      24.58417392        2       0.04192297       0.02619350      -0.07183629
Pt       5.61442778       1.62074537      24.58417373        2      -0.04361552       0.02316444      -0.07171991
Pt       1.40360636       4.05186440      24.58417384        2      -0.13684517       0.08394162       0.24687360
Pt       4.21082088       4.05186399      24.58417380        2       0.00168457      -0.04935619      -0.07155582
Pt       7.01803502       4.05186406      24.58417406        2       0.14109355       0.07661991       0.24690437
Pt       2.80721280       6.48298341      24.58417369        2       0.00144383       0.00543736       0.00111039
Pt       5.61442796       6.48298324      24.58417387        2      -0.00551486      -0.00148691       0.00103905
Pt       8.42164221       6.48298340      24.58417380        2      -0.00425021      -0.16053356       0.24690227
Pt       0.00000112       0.00000111      26.92155463        1       0.00000813      -0.00000572       0.00565300
Pt       2.79751730       0.01806779      26.90684328        1      -0.00172172      -0.00109885      -0.00861745
Pt       5.62471722       0.01815963      26.90622168        1       0.00254145      -0.00122489      -0.00769272
Pt       1.41419343       2.41314553      26.90620647        1      -0.00236042      -0.00160599      -0.00775411
Pt       4.21081950       2.43111416      26.92733168        1       0.00000047       0.00001234      -0.00557592
Pt       7.00723031       2.41369257      26.90683674        1       0.00182771      -0.00097270      -0.00856165
Pt       2.82771762       4.86159733      26.90686088        1      -0.00010229       0.00208173      -0.00865584
Pt       5.59355989       4.86205272      26.90622699        1      -0.00019388       0.00283346      -0.00777237
Pt       8.42164378       4.86224235      26.99557275        1      -0.00001095      -0.00000694      -0.02421048
N        8.42163845       4.86223303      29.14775078        0       0.00006503      -0.00001945       0.02434998
H        9.26129952       4.37675153      29.48776459        0      -0.00535680       0.00311592       0.00155341
H        7.58137202       4.37780943      29.48777183        0       0.00531861       0.00305829       0.00155217
H        8.42225104       5.83214050      29.48776337        0      -0.00001523      -0.00614019       0.00158548
