40
Lattice="8.421641763931781 0.0 0.0 4.2108208819658905 7.293355709136913 0.0 0.0 0.0 46.87624170604845" Properties=species:S:1:pos:R:3:tags:I:1:forces:R:3 charge=0 spin=0 energy=-206.99357295951012 free_energy=-206.99357295951012 stress="0.010039457120001316 1.325302463328626e-07 -2.0488265306539688e-08 1.325302463328626e-07 0.010039538145065308 2.0494158547990082e-07 -2.0488265306539688e-08 2.0494158547990082e-07 -0.00017725166981108487" pbc="T T T"
Pt      -0.00000003       0.00000022      19.95723434        4       0.00000165      -0.00000248       0.02428672
Pt       2.80721396      -0.00000018      19.95723452        4       0.00268199       0.00425413       0.02108200
Pt       5.61442778      -0.00000004      19.95723454        4      -0.00382650       0.00373490       0.02244067
Pt       1.40360719       2.43111838      19.95723440        4       0.00514452       0.00145740       0.02247282
Pt       4.21082079       2.43111832      19.95723449        4       0.00000235       0.00000253      -0.04323595
Pt       7.01803484       2.43111842      19.95723441        4      -0.00502571       0.00020477       0.02109986
Pt       2.80721406       4.86223725      19.95723409        4       0.00234185      -0.00445605       0.02108334
Pt       5.61442803       4.86223733      19.95723425        4      -0.00132069      -0.00518731       0.02250199
Pt       8.42164141       4.86223723      19.95723442        4       0.00000102      -0.00000258       0.01846040
Pt       1.40360730       0.81037260      22.29206788        3       0.00020052       0.00109178      -0.07531069
Pt       4.21082126       0.81037254      22.29206791        3      -0.00266830       0.02620123      -0.08329934
Pt       7.01803479       0.81037259      22.29206783        3      -0.00103440      -0.00041054      -0.07535502
Pt       2.80721452       3.24149125      22.29206775        3       0.02403539      -0.01080984      -0.08333173
Pt       5.61442760       3.24149123      22.29206789        3      -0.02137375      -0.01537096      -0.08335261
Pt       8.42164156       3.24149116      22.29206803        3      -0.00301318       0.00217119      -0.04452365
Pt       4.21082093       5.67260998      22.29206800        3       0.00083178      -0.00066718      -0.07545815
Pt       7.01803487       5.67261039      22.29206775        3       0.00338461       0.00158226      -0.04458671
Pt       9.82524824       5.67261062      22.29206803        3      -0.00036655      -0.00375848      -0.04462004
Pt      -0.00000058       1.62074570      24.58417378        2       0.00732537      -0.01041222       0.01464151
Pt       2.80721444       1.62074548      24.58417392        2       0.03515938       0.03075047      -0.06512540
Pt       5.61442778       1.62074537      24.58417373        2      -0.04418619       0.01502712      -0.06502047
Pt       1.40360636       4.05186440      24.58417384        2      -0.13575926       0.08264520       0.24124037
Pt       4.21082088       4.05186399      24.58417380        2       0.00901300      -0.04579481      -0.06488241
Pt       7.01803502       4.05186406      24.58417406        2       0.13946660       0.07625590       0.24127030
Pt       2.80721280       6.48298341      24.58417369        2       0.00538015       0.01146859       0.01486395
Pt       5.61442796       6.48298324      24.58417387        2      -0.01269685      -0.00108959       0.01478898
Pt       8.42164221       6.48298340      24.58417380        2      -0.00370640      -0.15891722       0.24117801
Pt       0.00000379      -0.00000963      26.92785507        1      -0.00000633       0.00000660      -0.01782396
Pt       2.79872385       0.01820925      26.90590155        1      -0.01881795       0.01020140      -0.00254493
Pt       5.62088931       0.01361324      26.90866626        1       0.02525190       0.02164648      -0.02084239
Pt       1.41218053       2.41869308      26.90866430        1       0.00603139      -0.03255121      -0.02097624
Pt       4.21081732       2.43110669      26.92670263        1       0.00000570       0.00001574      -0.00936711
Pt       7.00648963       2.41462671      26.90590734        1       0.00065119      -0.02127317      -0.00254001
Pt       2.82724831       4.86047466      26.90590621        1       0.01817617       0.01118990      -0.00255573
Pt       5.59939233       4.86100139      26.90866521        1      -0.03128329       0.01101979      -0.02090999
Pt       8.42164107       4.86225554      26.99498157        1       0.00000159      -0.00003690       0.03637348
N        8.42164230       4.86225784      29.15756319        0      -0.00011289       0.00062828      -0.03630017
H        9.39342755       4.86419849      29.49423841        0      -0.04315295      -0.00117474       0.00141524
H        7.93734777       4.01969697      29.49412506        0       0.02156815       0.03766010       0.00174395
H        7.93414895       5.70288559      29.49435121        0       0.02169508      -0.03730053       0.00101920
