40
Lattice="8.421641763931781 0.0 0.0 4.2108208819658905 7.293355709136913 0.0 0.0 0.0 46.87624170604845" Properties=species:S:1:pos:R:3:tags:I:1:forces:R:3 charge=0 spin=0 energy=-206.99357295951012 free_energy=-206.99357295951012 stress="0.010039475746452808 1.2545564231913886e-07 -1.1930621823807996e-08 1.2545564231913886e-07 0.010039540007710457 2.3130354520617402e-07 -1.1930621823807996e-08 2.3130354520617402e-07 -0.0001772202958818525" pbc="T T T"
Pt      -0.00000003       0.00000022      19.95723434        4       0.00000169      -0.00000254       0.02428679
Pt       2.80721396      -0.00000018      19.95723452        4       0.00268193       0.00425422       0.02108203
Pt       5.61442778      -0.00000004      19.95723454        4      -0.00382657       0.00373505       0.02244071
Pt       1.40360719       2.43111838      19.95723440        4       0.00514432       0.00145758       0.02247267
Pt       4.21082079       2.43111832      19.95723449        4       0.00000244       0.00000236      -0.04323557
Pt       7.01803484       2.43111842      19.95723441        4      -0.00502563       0.00020479       0.02109990
Pt       2.80721406       4.86223725      19.95723409        4       0.00234180      -0.00445624       0.02108349
Pt       5.61442803       4.86223733      19.95723425        4      -0.00132061      -0.00518729       0.02250202
Pt       8.42164141       4.86223723      19.95723442        4       0.00000093      -0.00000258       0.01846053
Pt       1.40360730       0.81037260      22.29206788        3       0.00020112       0.00109162      -0.07531130
Pt       4.21082126       0.81037254      22.29206791        3      -0.00266824       0.02620116      -0.08329937
Pt       7.01803479       0.81037259      22.29206783        3      -0.00103425      -0.00041075      -0.07535492
Pt       2.80721452       3.24149125      22.29206775        3       0.02403499      -0.01080980      -0.08333090
Pt       5.61442760       3.24149123      22.29206789        3      -0.02137316      -0.01537061      -0.08335222
Pt       8.42164156       3.24149116      22.29206803        3      -0.00301309       0.00217112      -0.04452372
Pt       4.21082093       5.67260998      22.29206800        3       0.00083185      -0.00066696      -0.07545839
Pt       7.01803487       5.67261039      22.29206775        3       0.00338479       0.00158197      -0.04458669
Pt       9.82524824       5.67261062      22.29206803        3      -0.00036662      -0.00375883      -0.04461961
Pt      -0.00000058       1.62074570      24.58417378        2       0.00732358      -0.01041103       0.01464568
Pt       2.80721444       1.62074548      24.58417392        2       0.03515901       0.03075087      -0.06512496
Pt       5.61442778       1.62074537      24.58417373        2      -0.04418409       0.01502815      -0.06501651
Pt       1.40360636       4.05186440      24.58417384        2      -0.13575998       0.08264575       0.24124143
Pt       4.21082088       4.05186399      24.58417380        2       0.00901282      -0.04579527      -0.06488184
Pt       7.01803502       4.05186406      24.58417406        2       0.13946658       0.07625381       0.24127232
Pt       2.80721280       6.48298341      24.58417369        2       0.00537994       0.01146880       0.01486489
Pt       5.61442796       6.48298324      24.58417387        2      -0.01269687      -0.00108993       0.01478975
Pt       8.42164221       6.48298340      24.58417380        2      -0.00370627      -0.15891610       0.24117681
Pt       0.00000382      -0.00000983      26.92785458        1      -0.00000614       0.00000806      -0.01782451
Pt       2.79872383       0.01820948      26.90590189        1      -0.01881842       0.01020047      -0.00254530
Pt       5.62088916       0.01361306      26.90866673        1       0.02525241       0.02164741      -0.02084239
Pt       1.41218073       2.41869334      26.90866466        1       0.00602820      -0.03255126      -0.02097730
Pt       4.21081762       2.43110664      26.92670178        1       0.00000402       0.00001655      -0.00936762
Pt       7.00648929       2.41462681      26.90590792        1       0.00065588      -0.02127273      -0.00254833
Pt       2.82724843       4.86047463      26.90590607        1       0.01817665       0.01118961      -0.00255517
Pt       5.59939237       4.86100099      26.90866485        1      -0.03128258       0.01102202      -0.02090989
Pt       8.42164111       4.86225609      26.99498269        1      -0.00000054      -0.00003039       0.03639197
N        8.42164118       4.86225780      29.15756626        0      -0.00004322       0.00074668      -0.03632861
H        7.93734001       4.01969995      29.49412020        0       0.02155135       0.03759534       0.00179376
H        7.93415634       5.70288890      29.49436111        0       0.02169238      -0.03734124       0.00098604
H        9.39342847       4.86419128      29.49424029        0      -0.04320228      -0.00119992       0.00140428
