40
Lattice="8.421641763931781 0.0 0.0 4.2108208819658905 7.293355709136913 0.0 0.0 0.0 46.87624170604845" Properties=species:S:1:pos:R:3:tags:I:1:forces:R:3 charge=0 spin=0 energy=-206.9929912181771 free_energy=-206.9929912181771 stress="0.01001349650323391 -8.326671263603203e-08 1.1235014030219759e-09 -8.326671263603203e-08 0.010013516061007977 -3.604225895514901e-08 1.1235014030219759e-09 -3.604225895514901e-08 -0.00022667154553346336" pbc="T T T"
Pt      -0.00000003       0.00000022      19.95723434        4       0.00000176      -0.00000295       0.02404633
Pt       2.80721396      -0.00000018      19.95723452        4       0.00283289       0.00436868       0.02140183
Pt       5.61442778      -0.00000004      19.95723454        4      -0.00415542       0.00389203       0.02204125
Pt       1.40360719       2.43111838      19.95723440        4       0.00544692       0.00166288       0.02207301
Pt       4.21082079       2.43111832      19.95723449        4       0.00000249       0.00000177      -0.04327564
Pt       7.01803484       2.43111842      19.95723441        4      -0.00520128       0.00027868       0.02142165
Pt       2.80721406       4.86223725      19.95723409        4       0.00236657      -0.00464612       0.02140321
Pt       5.61442803       4.86223733      19.95723425        4      -0.00129424      -0.00555282       0.02210526
Pt       8.42164141       4.86223723      19.95723442        4       0.00000117      -0.00000191       0.01876159
Pt       1.40360730       0.81037260      22.29206788        3      -0.00013283       0.00222125      -0.07624713
Pt       4.21082126       0.81037254      22.29206791        3      -0.00174680       0.02698656      -0.08225645
Pt       7.01803479       0.81037259      22.29206783        3      -0.00184735      -0.00126664      -0.07629403
Pt       2.80721452       3.24149125      22.29206775        3       0.02425982      -0.01200846      -0.08230026
Pt       5.61442760       3.24149123      22.29206789        3      -0.02251991      -0.01496635      -0.08231459
Pt       8.42164156       3.24149116      22.29206803        3      -0.00225198       0.00173522      -0.04532157
Pt       4.21082093       5.67260998      22.29206800        3       0.00197853      -0.00094945      -0.07639828
Pt       7.01803487       5.67261039      22.29206775        3       0.00262719       0.00114278      -0.04537857
Pt       9.82524824       5.67261062      22.29206803        3      -0.00036951      -0.00288835      -0.04541529
Pt      -0.00000058       1.62074570      24.58417378        2       0.00433553      -0.00706595       0.00525399
Pt       2.80721444       1.62074548      24.58417392        2       0.04038450       0.02572938      -0.07790807
Pt       5.61442778       1.62074537      24.58417373        2      -0.04243280       0.02206693      -0.07777499
Pt       1.40360636       4.05186440      24.58417384        2      -0.13652004       0.08350772       0.25020885
Pt       4.21082088       4.05186399      24.58417380        2       0.00205496      -0.04777856      -0.07762729
Pt       7.01803502       4.05186406      24.58417406        2       0.14057282       0.07651819       0.25026521
Pt       2.80721280       6.48298341      24.58417369        2       0.00394646       0.00722096       0.00552080
Pt       5.61442796       6.48298324      24.58417387        2      -0.00829771      -0.00018412       0.00544710
Pt       8.42164221       6.48298340      24.58417380        2      -0.00404816      -0.16002014       0.25025630
Pt       0.00000142      -0.00000612      26.92626477        1       0.00000424      -0.00001566      -0.00834188
Pt       2.79664833       0.01965338      26.90669799        1       0.00410454      -0.01611638      -0.00706315
Pt       5.62575971       0.01953313      26.90646887        1      -0.00377321      -0.01545820      -0.00768484
Pt       1.41484000       2.41154051      26.90644294        1      -0.01144020       0.01102244      -0.00770506
Pt       4.21082031       2.43112030      26.92456292        1      -0.00000345       0.00000723       0.00628720
Pt       7.00630631       2.41212981      26.90670357        1       0.01184430       0.01163805      -0.00704999
Pt       2.82950861       4.86156913      26.90670295        1      -0.01593252       0.00448256      -0.00707200
Pt       5.59186124       4.86227788      26.90646123        1       0.01520398       0.00443121      -0.00773264
Pt       8.42164121       4.86223758      26.99499369        1      -0.00000309       0.00001060       0.00850729
N        8.42164075       4.86223768      29.15419718        0       0.00008978       0.00003307      -0.01948481
H        9.26467448       4.37888788      29.49105506        0      -0.04034870       0.02315488       0.00187103
H        7.58153253       4.37382505      29.49105482        0       0.04015401       0.02332022       0.00190378
H        8.41871911       5.83400015      29.49105602        0       0.00010702      -0.04651144       0.00187099
