40
Lattice="8.421641763931781 0.0 0.0 4.2108208819658905 7.293355709136913 0.0 0.0 0.0 46.87624170604845" Properties=species:S:1:pos:R:3:tags:I:1:forces:R:3 charge=0 spin=0 energy=-206.42854190787438 free_energy=-206.42854190787438 stress="0.010263695381581783 -4.6505949313768724e-08 5.825383730950762e-09 -4.6505949313768724e-08 0.010263736359775066 4.6032319289679435e-08 5.825383730950762e-09 4.6032319289679435e-08 -0.00025905697839334607" pbc="T T T"
Pt      -0.00000003       0.00000022      19.95723434        4       0.00000136      -0.00000266       0.02011216
Pt       2.80721396      -0.00000018      19.95723452        4      -0.00061036       0.00201976       0.01990663
Pt       5.61442778      -0.00000004      19.95723454        4      -0.00041257       0.00104617       0.02004740
Pt       1.40360719       2.43111838      19.95723440        4       0.00111154      -0.00016240       0.02006994
Pt       4.21082079       2.43111832      19.95723449        4       0.00000287       0.00000137      -0.00002231
Pt       7.01803484       2.43111842      19.95723441        4      -0.00144160      -0.00153508       0.01991019
Pt       2.80721406       4.86223725      19.95723409        4       0.00204963      -0.00048347       0.01990660
Pt       5.61442803       4.86223733      19.95723425        4      -0.00070127      -0.00088233       0.02007893
Pt       8.42164141       4.86223723      19.95723442        4       0.00000095      -0.00000221       0.02030416
Pt       1.40360730       0.81037260      22.29206788        3       0.00008596      -0.00140977      -0.05885817
Pt       4.21082126       0.81037254      22.29206791        3      -0.00108830      -0.00486624      -0.04541963
Pt       7.01803479       0.81037259      22.29206783        3       0.00117974       0.00075280      -0.05888706
Pt       2.80721452       3.24149125      22.29206775        3      -0.00365686       0.00335888      -0.04543753
Pt       5.61442760       3.24149123      22.29206789        3       0.00473760       0.00152045      -0.04543294
Pt       8.42164156       3.24149116      22.29206803        3      -0.00072494       0.00158377      -0.05645235
Pt       4.21082093       5.67260998      22.29206800        3      -0.00126589       0.00065987      -0.05890978
Pt       7.01803487       5.67261039      22.29206775        3       0.00172550      -0.00013130      -0.05645305
Pt       9.82524824       5.67261062      22.29206803        3      -0.00099609      -0.00146109      -0.05649094
Pt      -0.00000058       1.62074570      24.58417378        2       0.00341121      -0.00894467       0.01469497
Pt       2.80721444       1.62074548      24.58417392        2       0.02269777       0.01369007      -0.01436818
Pt       5.61442778       1.62074537      24.58417373        2      -0.02317373       0.01279455      -0.01426349
Pt       1.40360636       4.05186440      24.58417384        2      -0.03407799       0.02276338       0.07000062
Pt       4.21082088       4.05186399      24.58417380        2       0.00049163      -0.02648911      -0.01430703
Pt       7.01803502       4.05186406      24.58417406        2       0.03675058       0.01810531       0.07004410
Pt       2.80721280       6.48298341      24.58417369        2       0.00601928       0.00746076       0.01476556
Pt       5.61442796       6.48298324      24.58417387        2      -0.00947056       0.00150900       0.01470419
Pt       8.42164221       6.48298340      24.58417380        2      -0.00264611      -0.04088423       0.07005531
Pt       0.00000051      -0.00000104      26.92175493        1      -0.00000249       0.00000103       0.00088634
Pt       2.80139979       0.00757007      26.91013472        1       0.00370203      -0.00410624       0.00504371
Pt       5.62000908       0.00701312      26.91009872        1      -0.00390388      -0.00414986       0.00488924
Pt       1.40688162       2.42277995      26.91006571        1      -0.00161381       0.00546297       0.00491294
Pt       4.21082147       2.43111896      26.91819583        1      -0.00000052      -0.00000159       0.00044343
Pt       7.01438660       2.42228784      26.91015654        1       0.00169048       0.00527433       0.00502047
Pt       2.81667733       4.86349844      26.91013080        1      -0.00539695      -0.00116961       0.00508805
Pt       5.60557076       4.86356286      26.91006905        1       0.00552136      -0.00131809       0.00495855
Pt       8.42164084       4.86223681      26.93297923        1       0.00000434      -0.00000343       0.03796953
N        8.42164234       4.86223755      29.84016463        0      -0.00009282      -0.00003652       0.04925866
H        9.27368570       5.35425218      29.56516799        0       0.02004600       0.01178568      -0.00260775
H        8.42171607       3.87833655      29.56516767        0       0.00019799      -0.02316618      -0.00258366
H        7.56952141       5.35412245      29.56516783        0      -0.02015100       0.01141591      -0.00257781
