40
Lattice="8.421641763931781 0.0 0.0 4.2108208819658905 7.293355709136913 0.0 0.0 0.0 46.87624170604845" Properties=species:S:1:pos:R:3:tags:I:1:forces:R:3 charge=0 spin=0 energy=-206.9931304546273 free_energy=-206.9931304546273 stress="0.010027111507952213 -2.4952305466285907e-07 -1.3521371577951413e-08 -2.4952305466285907e-07 0.01002704817801714 1.1502297638799064e-06 -1.3521371577951413e-08 1.1502297638799064e-06 -0.00025326228933408856" pbc="T T T"
Pt      -0.00000003       0.00000022      19.95723434        4       0.00000063      -0.00000333       0.02384217
Pt       2.80721396      -0.00000018      19.95723452        4       0.00294640       0.00443494       0.02106801
Pt       5.61442778      -0.00000004      19.95723454        4      -0.00391527       0.00382651       0.02255552
Pt       1.40360719       2.43111838      19.95723440        4       0.00527244       0.00149184       0.02259071
Pt       4.21082079       2.43111832      19.95723449        4       0.00000174       0.00000373      -0.04415414
Pt       7.01803484       2.43111842      19.95723441        4      -0.00531857       0.00034309       0.02108639
Pt       2.80721406       4.86223725      19.95723409        4       0.00237145      -0.00477748       0.02107017
Pt       5.61442803       4.86223733      19.95723425        4      -0.00135831      -0.00531261       0.02261629
Pt       8.42164141       4.86223723      19.95723442        4       0.00000156      -0.00000439       0.01829554
Pt       1.40360730       0.81037260      22.29206788        3       0.00024285       0.00118078      -0.07618245
Pt       4.21082126       0.81037254      22.29206791        3      -0.00258399       0.02788799      -0.08513606
Pt       7.01803479       0.81037259      22.29206783        3      -0.00112645      -0.00041679      -0.07622473
Pt       2.80721452       3.24149125      22.29206775        3       0.02544156      -0.01173463      -0.08513576
Pt       5.61442760       3.24149123      22.29206789        3      -0.02286312      -0.01613628      -0.08515801
Pt       8.42164156       3.24149116      22.29206803        3      -0.00309200       0.00174835      -0.04467383
Pt       4.21082093       5.67260998      22.29206800        3       0.00088506      -0.00073950      -0.07632015
Pt       7.01803487       5.67261039      22.29206775        3       0.00305901       0.00185259      -0.04472830
Pt       9.82524824       5.67261062      22.29206803        3       0.00003311      -0.00362218      -0.04476079
Pt      -0.00000058       1.62074570      24.58417378        2       0.00871661       0.00198729       0.00948684
Pt       2.80721444       1.62074548      24.58417392        2       0.03269264       0.03257066      -0.07031264
Pt       5.61442778       1.62074537      24.58417373        2      -0.04452110       0.01199948      -0.07021237
Pt       1.40360636       4.05186440      24.58417384        2      -0.13550754       0.08260632       0.25607789
Pt       4.21082088       4.05186399      24.58417380        2       0.01180107      -0.04456151      -0.07005222
Pt       7.01803502       4.05186406      24.58417406        2       0.13931200       0.07604789       0.25610414
Pt       2.80721280       6.48298341      24.58417369        2      -0.00602641       0.00641283       0.00967926
Pt       5.61442796       6.48298324      24.58417387        2      -0.00267207      -0.00851564       0.00959420
Pt       8.42164221       6.48298340      24.58417380        2      -0.00380768      -0.15854277       0.25565344
Pt       0.00000000      -0.00001537      26.91805625        1       0.00000457       0.00005017       0.02029216
Pt       2.79580612       0.02284378      26.90769049        1       0.00230993      -0.02001365      -0.00860685
Pt       5.62193321       0.01524160      26.91230712        1       0.01024268       0.00169545      -0.03552530
Pt       1.41308537       2.41696657      26.91233482        1      -0.00396769      -0.00930565      -0.03571488
Pt       4.21081927       2.43109527      26.92374513        1       0.00000228       0.00007931       0.00686378
Pt       7.00392183       2.40977935      26.90771237        1       0.01646678       0.01238296      -0.00859107
Pt       2.83273442       4.86065222      26.90773145        1      -0.01872414       0.00806764      -0.00870273
Pt       5.59744768       4.86106867      26.91234014        1      -0.00632795       0.00803123      -0.03569178
Pt       8.42164087       4.86234846      26.99596338        1       0.00000106       0.00028116      -0.04551511
N        8.42164085       4.86245129      29.14498840        0       0.00003568      -0.00018941       0.00821731
H        9.39382144       4.86417214      29.48000453        0      -0.03763786      -0.00050998       0.01542976
H        7.93727787       4.01927397      29.47931768        0       0.01810885       0.03228170       0.01697315
H        7.93382951       5.70313936      29.48069559        0       0.01950023      -0.03287834       0.01390231
