40
Lattice="8.421641763931781 0.0 0.0 4.2108208819658905 7.293355709136913 0.0 0.0 0.0 46.87624170604845" Properties=species:S:1:pos:R:3:tags:I:1:forces:R:3 charge=0 spin=0 energy=-206.42913318595055 free_energy=-206.42913318595055 stress="0.010527837090194225 2.6948153930561602e-08 -2.3267473281407547e-08 2.6948153930561602e-08 0.010527890175580978 -2.379864305623869e-08 -2.3267473281407547e-08 -2.379864305623869e-08 -4.094043833902106e-05" pbc="T T T"
Pt      -0.00000005       0.00000022      19.95723419        4      -0.00053686      -0.00001126       0.01845682
Pt       2.80721406      -0.00000018      19.95723436        4      -0.00023335      -0.00019061       0.01804543
Pt       5.61442778      -0.00000006      19.95723442        4       0.00027715      -0.00045733       0.01844327
Pt       1.40360717       2.43111838      19.95723425        4      -0.00005143       0.00029620       0.01804637
Pt       4.21082080       2.43111835      19.95723435        4       0.00028379      -0.00010010       0.01804628
Pt       7.01803478       2.43111843      19.95723423        4       0.00002839      -0.00012229       0.01864721
Pt       2.80721408       4.86223724      19.95723395        4       0.00026262       0.00047349       0.01845538
Pt       5.61442803       4.86223730      19.95723413        4      -0.00012319       0.00003692       0.01864910
Pt       8.42164138       4.86223726      19.95723427        4       0.00009265       0.00008536       0.01864373
Pt       1.40360728       0.81037260      22.29206790        3      -0.00053480      -0.00063262      -0.04940836
Pt       4.21082128       0.81037250      22.29206784        3       0.00081208      -0.00013085      -0.04941840
Pt       7.01803477       0.81037260      22.29206779        3       0.00048899       0.00086333      -0.05178758
Pt       2.80721450       3.24149125      22.29206775        3      -0.00029298       0.00079095      -0.04944278
Pt       5.61442762       3.24149123      22.29206790        3       0.00099884       0.00016162      -0.05390961
Pt       8.42164156       3.24149116      22.29206805        3      -0.00062177       0.00079186      -0.05392059
Pt       4.21082094       5.67260998      22.29206797        3       0.00049263      -0.00084053      -0.05179438
Pt       7.01803488       5.67261038      22.29206774        3      -0.00036662      -0.00094319      -0.05390010
Pt       9.82524823       5.67261061      22.29206804        3      -0.00097550      -0.00001093      -0.05181544
Pt      -0.00000056       1.62074572      24.58417389        2       0.00505504      -0.00734265       0.04280523
Pt       2.80721443       1.62074548      24.58417398        2      -0.00000657      -0.00006445       0.03561060
Pt       5.61442779       1.62074532      24.58417370        2      -0.00354746      -0.00713524       0.04333351
Pt       1.40360636       4.05186439      24.58417390        2       0.00792668       0.00047151       0.04333856
Pt       4.21082088       4.05186401      24.58417381        2      -0.00881581      -0.00071266       0.04276369
Pt       7.01803503       4.05186407      24.58417407        2      -0.00002575       0.00000683       0.02145916
Pt       2.80721279       6.48298345      24.58417372        2       0.00003634       0.00000599       0.05847807
Pt       5.61442797       6.48298324      24.58417392        2      -0.00437478       0.00662575       0.04344805
Pt       8.42164222       6.48298343      24.58417383        2       0.00374939       0.00800475       0.04283345
Pt      -0.00075498      -0.00048353      26.92127592        1       0.00193799       0.00155011      -0.02349790
Pt       2.80754368      -0.00012499      26.91715095        1       0.00013472       0.00226314      -0.00865216
Pt       5.61521080      -0.00044085      26.92125164        1      -0.00232863       0.00092096      -0.02334803
Pt       1.40336530       2.43084935      26.91710418        1       0.00189516      -0.00119841      -0.00860297
Pt       4.21074338       2.43143427      26.91710072        1      -0.00205687      -0.00100281      -0.00854750
Pt       7.01770091       2.43114786      26.91430957        1      -0.00002524      -0.00840646       0.00819796
Pt       2.80718044       4.86310411      26.92123431        1       0.00038207      -0.00245076      -0.02353397
Pt       5.61462217       4.86250200      26.91433331        1      -0.00728980       0.00417344       0.00798617
Pt       8.42176783       4.86189764      26.91431753        1       0.00734312       0.00422912       0.00805114
N        7.01803413       4.05186169      31.00808123        0       0.00005283       0.00005921      -0.00553959
H        6.20484282       4.54372373      30.61392955        0       0.01673537      -0.01027741       0.00112563
H        7.85059530       4.51017914      30.61393296        0      -0.01731738      -0.00938980       0.00114296
H        6.99866678       3.10168831      30.61392851        0       0.00053926       0.01960991       0.00111160
