40
Lattice="8.421641763931781 0.0 0.0 4.2108208819658905 7.293355709136913 0.0 0.0 0.0 46.87624170604845" Properties=species:S:1:pos:R:3:tags:I:1:forces:R:3 charge=0 spin=0 energy=-206.4280440898812 free_energy=-206.4280440898812 stress="0.010447519831359386 -1.6001624913997148e-08 2.5717119100931995e-08 -1.6001624913997148e-08 0.010447549633681774 2.625473172201964e-09 2.5717119100931995e-08 2.625473172201964e-09 -0.000149183179019019" pbc="T T T"
Pt      -0.00000005       0.00000022      19.95723419        4      -0.00003580       0.00043033       0.01876350
Pt       2.80721406      -0.00000018      19.95723436        4       0.00016640       0.00004823       0.01776344
Pt       5.61442778      -0.00000006      19.95723442        4      -0.00004441      -0.00016429       0.01775650
Pt       1.40360717       2.43111838      19.95723425        4      -0.00035735      -0.00024938       0.01875078
Pt       4.21082080       2.43111835      19.95723435        4       0.00027002       0.00070127       0.01848553
Pt       7.01803478       2.43111843      19.95723423        4       0.00039505      -0.00017913       0.01875616
Pt       2.80721408       4.86223724      19.95723395        4       0.00046986      -0.00058646       0.01849020
Pt       5.61442803       4.86223730      19.95723413        4      -0.00073928      -0.00012094       0.01849414
Pt       8.42164138       4.86223726      19.95723427        4      -0.00012381       0.00011864       0.01775992
Pt       1.40360728       0.81037260      22.29206790        3       0.00012067       0.00036393      -0.05168806
Pt       4.21082128       0.81037250      22.29206784        3      -0.00006870       0.00010968      -0.05119351
Pt       7.01803477       0.81037260      22.29206779        3       0.00025277      -0.00027429      -0.05168070
Pt       2.80721450       3.24149125      22.29206775        3      -0.00071717       0.00014665      -0.05167898
Pt       5.61442762       3.24149123      22.29206790        3       0.00023012      -0.00068698      -0.05166946
Pt       8.42164156       3.24149116      22.29206805        3      -0.00036876      -0.00007419      -0.05169060
Pt       4.21082094       5.67260998      22.29206797        3       0.00047828       0.00054122      -0.05164931
Pt       7.01803488       5.67261038      22.29206774        3      -0.00005353      -0.00011864      -0.05117221
Pt       9.82524823       5.67261061      22.29206804        3       0.00012577      -0.00000515      -0.05117762
Pt      -0.00000056       1.62074572      24.58417389        2       0.00000374      -0.00001630       0.04140317
Pt       2.80721443       1.62074548      24.58417398        2      -0.00474919       0.00330492       0.02568429
Pt       5.61442779       1.62074532      24.58417370        2       0.00385955       0.00215195       0.02505068
Pt       1.40360636       4.05186439      24.58417390        2      -0.00007099      -0.00442193       0.02509812
Pt       4.21082088       4.05186401      24.58417381        2      -0.00000604       0.00003155       0.04170996
Pt       7.01803503       4.05186407      24.58417407        2      -0.00048604      -0.00576320       0.02571142
Pt       2.80721279       6.48298345      24.58417372        2       0.00523086       0.00245352       0.02570537
Pt       5.61442797       6.48298324      24.58417392        2      -0.00378161       0.00227020       0.02511067
Pt       8.42164222       6.48298343      24.58417383        2      -0.00000199      -0.00001378       0.02100942
Pt      -0.00042124      -0.00300919      26.91832531        1       0.00056982       0.01565893      -0.01011541
Pt       2.80478537       0.00106137      26.91251053        1       0.00943256      -0.00617777       0.01402439
Pt       5.61656092       0.00157269      26.91251230        1      -0.01007496      -0.00506553       0.01406084
Pt       1.40642376       2.43225893      26.91831180        1      -0.01382074      -0.00734443      -0.01014497
Pt       4.21073078       2.42689797      26.91346643        1       0.00128825       0.02851677       0.00659735
Pt       7.01563729       2.43298754      26.91831245        1       0.01325017      -0.00831603      -0.01015680
Pt       2.80360260       4.86442587      26.91348834        1       0.02405421      -0.01534481       0.00671037
Pt       5.61812755       4.86427175      26.91348787        1      -0.02532388      -0.01314415       0.00666253
Pt       8.42193570       4.85960391      26.91251612        1       0.00063256       0.01121880       0.01412042
N        8.42164279       1.62074096      30.84807184        0      -0.00013282      -0.00003794      -0.01011732
H        8.40619948       0.67171689      30.45226054        0      -0.00033063      -0.01482388       0.00683028
H        7.60748125       2.10863226      30.45227432        0      -0.01264543       0.00769211       0.00684226
H        9.25124498       2.08188408      30.45227563        0       0.01310247       0.00717051       0.00678323
