40
Lattice="8.421641763931781 0.0 0.0 4.2108208819658905 7.293355709136913 0.0 0.0 0.0 46.87624170604845" Properties=species:S:1:pos:R:3:tags:I:1:forces:R:3 charge=0 spin=0 energy=-206.42906261405113 free_energy=-206.42906261405113 stress="0.010530510917305946 -3.211877874775837e-09 -2.2977493241427283e-09 -3.211877874775837e-09 0.010530474595725536 -4.6544151643956866e-08 -2.2977493241427283e-09 -4.6544151643956866e-08 -4.576182982418686e-05" pbc="T T T"
Pt      -0.00000005       0.00000022      19.95723419        4       0.00005468       0.00015174       0.01849055
Pt       2.80721406      -0.00000018      19.95723436        4      -0.00012972      -0.00008869       0.01871140
Pt       5.61442778      -0.00000006      19.95723442        4       0.00010714      -0.00011814       0.01847571
Pt       1.40360717       2.43111838      19.95723425        4      -0.00021975       0.00025652       0.01795116
Pt       4.21082080       2.43111835      19.95723435        4      -0.00011352      -0.00031820       0.01794809
Pt       7.01803478       2.43111843      19.95723423        4      -0.00015878      -0.00003282       0.01849248
Pt       2.80721408       4.86223724      19.95723395        4       0.00033475       0.00005788       0.01794558
Pt       5.61442803       4.86223730      19.95723413        4       0.00013996      -0.00006897       0.01871369
Pt       8.42164138       4.86223726      19.95723427        4      -0.00001114       0.00014852       0.01870955
Pt       1.40360728       0.81037260      22.29206790        3      -0.00044697      -0.00084093      -0.05223610
Pt       4.21082128       0.81037250      22.29206784        3      -0.00039766      -0.00027372      -0.05246149
Pt       7.01803477       0.81037260      22.29206779        3      -0.00000084      -0.00000189      -0.05500211
Pt       2.80721450       3.24149125      22.29206775        3      -0.00000506      -0.00000618      -0.04615377
Pt       5.61442762       3.24149123      22.29206790        3       0.00094944       0.00002551      -0.05224449
Pt       8.42164156       3.24149116      22.29206805        3      -0.00003699       0.00047391      -0.05243827
Pt       4.21082094       5.67260998      22.29206797        3       0.00043564      -0.00020384      -0.05244121
Pt       7.01803488       5.67261038      22.29206774        3       0.00000100      -0.00000860      -0.05015566
Pt       9.82524823       5.67261061      22.29206804        3      -0.00049203       0.00079226      -0.05225533
Pt      -0.00000056       1.62074572      24.58417389        2       0.00909641       0.00403447       0.04577645
Pt       2.80721443       1.62074548      24.58417398        2       0.00000962       0.00899056       0.04873711
Pt       5.61442779       1.62074532      24.58417370        2      -0.00797713       0.00591713       0.04573982
Pt       1.40360636       4.05186439      24.58417390        2       0.00774446      -0.00450921       0.04883053
Pt       4.21082088       4.05186401      24.58417381        2      -0.00780000      -0.00439000       0.04876382
Pt       7.01803503       4.05186407      24.58417407        2       0.00053181      -0.00195944       0.02937873
Pt       2.80721279       6.48298345      24.58417372        2      -0.00107395      -0.00989524       0.04572716
Pt       5.61442797       6.48298324      24.58417392        2      -0.00201566       0.00054231       0.02927320
Pt       8.42164222       6.48298343      24.58417383        2       0.00146103       0.00140234       0.02930879
Pt       0.00048819      -0.00009502      26.91505935        1      -0.00266192       0.00260368       0.00024044
Pt       2.80772577       0.00030917      26.91508700        1      -0.00017429       0.00647094       0.00522297
Pt       5.61406231      -0.00036410      26.91505471        1       0.00365340       0.00104006       0.00025519
Pt       1.40459814       2.43116615      26.92235037        1      -0.00262507      -0.00009799      -0.02941349
Pt       4.21029531       2.43198873      26.92231434        1       0.00140231      -0.00225212      -0.02927488
Pt       7.01788693       2.43164636      26.91508417        1      -0.00094587      -0.00367680       0.00015072
Pt       2.80673980       4.86137719      26.92234583        1       0.00122806       0.00231864      -0.02939402
Pt       5.61391253       4.86256869      26.91510721        1      -0.00552855      -0.00344926       0.00516195
Pt       8.42164570       4.86164879      26.91513121        1       0.00566226      -0.00303950       0.00507121
N        7.01803536       5.67260912      30.99578877        0      -0.00000241       0.00002794      -0.00874760
H        6.18547633       5.21324772      30.60224451        0       0.02750260       0.01505361       0.00304675
H        7.03649192       6.62331063      30.60225073        0      -0.00070626      -0.03137150       0.00305298
H        7.83213415       5.18127693      30.60224063        0      -0.02679115       0.01629493       0.00304229
