40
Lattice="8.421641763931781 0.0 0.0 4.2108208819658905 7.293355709136913 0.0 0.0 0.0 46.87624170604845" Properties=species:S:1:pos:R:3:tags:I:1:forces:R:3 charge=0 spin=0 energy=-206.4254386516488 free_energy=-206.4254386516488 stress="0.010535088367760181 1.051584604283562e-05 4.749995241581928e-06 1.051584604283562e-05 0.010511555708944798 -1.2824386885768035e-06 4.749995241581928e-06 -1.2824386885768035e-06 -3.3217391319340095e-05" pbc="T T T"
Pt      -0.00000005       0.00000022      19.95723419        4      -0.00027638      -0.00073262       0.01861712
Pt       2.80721406      -0.00000018      19.95723436        4      -0.00090502      -0.00026953       0.01832690
Pt       5.61442778      -0.00000006      19.95723442        4      -0.00078261      -0.00061144       0.01753869
Pt       1.40360717       2.43111838      19.95723425        4      -0.00058127      -0.00056344       0.01881960
Pt       4.21082080       2.43111835      19.95723435        4      -0.00031969      -0.00035371       0.01766144
Pt       7.01803478       2.43111843      19.95723423        4      -0.00041381      -0.00071791       0.01839603
Pt       2.80721408       4.86223724      19.95723395        4      -0.00040974      -0.00042483       0.01848636
Pt       5.61442803       4.86223730      19.95723413        4      -0.00031556       0.00010421       0.01870385
Pt       8.42164138       4.86223726      19.95723427        4      -0.00083055      -0.00034170       0.01891765
Pt       1.40360728       0.81037260      22.29206790        3      -0.00191486      -0.00077845      -0.05200392
Pt       4.21082128       0.81037250      22.29206784        3      -0.00316486      -0.00208045      -0.04560332
Pt       7.01803477       0.81037260      22.29206779        3      -0.00104570      -0.00134427      -0.05056216
Pt       2.80721450       3.24149125      22.29206775        3      -0.00353065      -0.00030818      -0.05314321
Pt       5.61442762       3.24149123      22.29206790        3      -0.00199921      -0.00080925      -0.05154029
Pt       8.42164156       3.24149116      22.29206805        3      -0.00189210      -0.00133267      -0.05182787
Pt       4.21082094       5.67260998      22.29206797        3      -0.00336925      -0.00158891      -0.05390699
Pt       7.01803488       5.67261038      22.29206774        3      -0.00211265      -0.00242461      -0.05168883
Pt       9.82524823       5.67261061      22.29206804        3      -0.00302087      -0.00240910      -0.05397859
Pt      -0.00000056       1.62074572      24.58417389        2       0.01080526      -0.00327744       0.03631302
Pt       2.80721443       1.62074548      24.58417398        2       0.01111874      -0.00114663       0.05057137
Pt       5.61442779       1.62074532      24.58417370        2      -0.00327667      -0.00194172       0.03976592
Pt       1.40360636       4.05186439      24.58417390        2       0.00418691       0.00511400       0.02421687
Pt       4.21082088       4.05186401      24.58417381        2       0.01592350      -0.00346384       0.04264683
Pt       7.01803503       4.05186407      24.58417407        2       0.00419605       0.00964969       0.03687421
Pt       2.80721279       6.48298345      24.58417372        2       0.00455567       0.01897234       0.04464214
Pt       5.61442797       6.48298324      24.58417392        2       0.01057117       0.00616550       0.05714889
Pt       8.42164222       6.48298343      24.58417383        2       0.00506649       0.00816169       0.05358372
Pt       0.01059849       0.00676684      26.92081560        1      -0.01070476      -0.00832634      -0.02046570
Pt       2.81687101       0.00463708      26.92319837        1      -0.00466338       0.00025934      -0.02937006
Pt       5.62243630       0.00523237      26.92180112        1       0.00404056       0.00219656      -0.02597448
Pt       1.41270453       2.43694347      26.91573032        1       0.00140001      -0.01335519       0.00164372
Pt       4.21840217       2.43554731      26.92092416        1       0.00546267       0.00241795      -0.02260901
Pt       7.02518805       2.43599561      26.91172654        1      -0.00366291      -0.00247747       0.01541645
Pt       2.81898068       4.86926541      26.91091289        1      -0.00484242      -0.00556681       0.01805243
Pt       5.62541244       4.86891944      26.91948570        1      -0.01148866      -0.00441237      -0.01699319
Pt       8.43207678       4.86768230      26.91752937        1      -0.01138056       0.00733828      -0.00540020
N        9.12519815       3.63487143      30.83611582        0      -0.00235621       0.00928015       0.01344576
H        9.58894514       4.47019860      30.45653044        0       0.00935405       0.00042345      -0.00364080
H        9.59159926       2.82313937      30.41075375        0      -0.00866253       0.00461737      -0.00517840
H        8.16410493       3.64591429      30.47111604        0       0.00124181      -0.01364172      -0.00590203
