40
Lattice="8.421641763931781 0.0 0.0 4.2108208819658905 7.293355709136913 0.0 0.0 0.0 46.87624170604845" Properties=species:S:1:pos:R:3:tags:I:1:forces:R:3 charge=0 spin=0 energy=-206.42854190787438 free_energy=-206.42854190787438 stress="0.010263774544000626 -7.113495126276348e-09 -2.5177087081829086e-08 -7.113495126276348e-09 0.010263709351420403 1.2431413232150135e-08 -2.5177087081829086e-08 1.2431413232150135e-08 -0.00025900546461343765" pbc="T T T"
Pt      -0.00000005       0.00000022      19.95723419        4      -0.00040988       0.00104156       0.02005592
Pt       2.80721406      -0.00000018      19.95723436        4      -0.00000288       0.00000288       0.02011199
Pt       5.61442778      -0.00000006      19.95723442        4      -0.00060880       0.00202107       0.01990663
Pt       1.40360717       2.43111838      19.95723425        4      -0.00143918      -0.00153498       0.01991884
Pt       4.21082080       2.43111835      19.95723435        4       0.00111294      -0.00016147       0.02007770
Pt       7.01803478       2.43111843      19.95723423        4      -0.00000099       0.00000117      -0.00001385
Pt       2.80721408       4.86223724      19.95723395        4       0.00000102      -0.00000322       0.02031415
Pt       5.61442803       4.86223730      19.95723413        4       0.00204556      -0.00048417       0.01990597
Pt       8.42164138       4.86223726      19.95723427        4      -0.00069760      -0.00088384       0.02007882
Pt       1.40360728       0.81037260      22.29206790        3       0.00117692       0.00075494      -0.05889190
Pt       4.21082128       0.81037250      22.29206784        3       0.00008530      -0.00140501      -0.05886341
Pt       7.01803477       0.81037260      22.29206779        3      -0.00108452      -0.00486810      -0.04542405
Pt       2.80721450       3.24149125      22.29206775        3      -0.00073533       0.00158279      -0.05645934
Pt       5.61442762       3.24149123      22.29206790        3      -0.00364670       0.00335529      -0.04544535
Pt       8.42164156       3.24149116      22.29206805        3       0.00473761       0.00152043      -0.04543921
Pt       4.21082094       5.67260998      22.29206797        3      -0.00100722      -0.00144866      -0.05649377
Pt       7.01803488       5.67261038      22.29206774        3      -0.00126593       0.00065204      -0.05891054
Pt       9.82524823       5.67261061      22.29206804        3       0.00173627      -0.00013685      -0.05645826
Pt      -0.00000056       1.62074572      24.58417389        2      -0.02317129       0.01278807      -0.01426145
Pt       2.80721443       1.62074548      24.58417398        2       0.00340222      -0.00894377       0.01469834
Pt       5.61442779       1.62074532      24.58417370        2       0.02270545       0.01369370      -0.01436599
Pt       1.40360636       4.05186439      24.58417390        2       0.03676212       0.01810036       0.07004249
Pt       4.21082088       4.05186401      24.58417381        2      -0.03408534       0.02277191       0.07000636
Pt       7.01803503       4.05186407      24.58417407        2       0.00048794      -0.02649051      -0.01430608
Pt       2.80721279       6.48298345      24.58417372        2      -0.00262585      -0.04088935       0.07005364
Pt       5.61442797       6.48298324      24.58417392        2       0.00600629       0.00746664       0.01477007
Pt       8.42164222       6.48298343      24.58417383        2      -0.00947816       0.00150717       0.01471081
Pt       0.00558109       0.00701226      26.91009821        1      -0.00389828      -0.00414418       0.00488620
Pt       2.80721434      -0.00000099      26.92175595        1      -0.00000260       0.00000085       0.00087659
Pt       5.60861408       0.00756948      26.91013557        1       0.00369697      -0.00409989       0.00504666
Pt       1.39995958       2.42228854      26.91015643        1       0.00168684       0.00526728       0.00501805
Pt       4.21409535       2.42278072      26.91006658        1      -0.00161232       0.00545706       0.00491411
Pt       7.01803495       2.43111877      26.91819601        1       0.00000137       0.00000024       0.00044139
Pt       2.80721280       4.86223676      26.93298223        1       0.00000588      -0.00000446       0.03796156
Pt       5.62389033       4.86349842      26.91013094        1      -0.00539086      -0.00116910       0.00508807
Pt       8.41278531       4.86356297      26.91006908        1       0.00551289      -0.00131736       0.00495991
N        2.80721183       4.86223435      29.84016385        0       0.00021628       0.00029137       0.04925319
H        1.95509410       5.35412261      29.56516933        0      -0.02020893       0.01142429      -0.00259506
H        3.65926084       5.35425362      29.56516877        0       0.01981356       0.01164774      -0.00252730
H        2.80728890       3.87833865      29.56516963        0       0.00017951      -0.02336393      -0.00264199
