40
Lattice="8.421641763931781 0.0 0.0 4.2108208819658905 7.293355709136913 0.0 0.0 0.0 46.87624170604845" Properties=species:S:1:pos:R:3:tags:I:1:forces:R:3 charge=0 spin=0 energy=-206.4254386516488 free_energy=-206.4254386516488 stress="0.010535039938986301 1.0565295269771013e-05 4.7435082706215326e-06 1.0565295269771013e-05 0.010511520318686962 -1.2780482165908325e-06 4.7435082706215326e-06 -1.2780482165908325e-06 -3.324406497995369e-05" pbc="T T T"
Pt      -0.00000005       0.00000022      19.95723419        4      -0.00089992      -0.00027375       0.01832739
Pt       2.80721406      -0.00000018      19.95723436        4      -0.00078378      -0.00061272       0.01754717
Pt       5.61442778      -0.00000006      19.95723442        4      -0.00028041      -0.00072763       0.01860811
Pt       1.40360717       2.43111838      19.95723425        4      -0.00032106      -0.00035377       0.01766225
Pt       4.21082080       2.43111835      19.95723435        4      -0.00041093      -0.00071790       0.01839586
Pt       7.01803478       2.43111843      19.95723423        4      -0.00058292      -0.00056265       0.01881903
Pt       2.80721408       4.86223724      19.95723395        4      -0.00031294       0.00010323       0.01870500
Pt       5.61442803       4.86223730      19.95723413        4      -0.00083309      -0.00034095       0.01891780
Pt       8.42164138       4.86223726      19.95723427        4      -0.00040997      -0.00042492       0.01848506
Pt       1.40360728       0.81037260      22.29206790        3      -0.00316264      -0.00208509      -0.04560415
Pt       4.21082128       0.81037250      22.29206784        3      -0.00105167      -0.00134123      -0.05056494
Pt       7.01803477       0.81037260      22.29206779        3      -0.00191257      -0.00077830      -0.05200203
Pt       2.80721450       3.24149125      22.29206775        3      -0.00200927      -0.00080846      -0.05153808
Pt       5.61442762       3.24149123      22.29206790        3      -0.00189322      -0.00133495      -0.05182849
Pt       8.42164156       3.24149116      22.29206805        3      -0.00352108      -0.00030797      -0.05314391
Pt       4.21082094       5.67260998      22.29206797        3      -0.00211303      -0.00241688      -0.05168825
Pt       7.01803488       5.67261038      22.29206774        3      -0.00303063      -0.00240272      -0.05397867
Pt       9.82524823       5.67261061      22.29206804        3      -0.00336014      -0.00160359      -0.05390619
Pt      -0.00000056       1.62074572      24.58417389        2       0.01113099      -0.00115048       0.05056821
Pt       2.80721443       1.62074548      24.58417398        2      -0.00328431      -0.00194456       0.03977218
Pt       5.61442779       1.62074532      24.58417370        2       0.01080362      -0.00327160       0.03630771
Pt       1.40360636       4.05186439      24.58417390        2       0.01593147      -0.00346811       0.04264658
Pt       4.21082088       4.05186401      24.58417381        2       0.00419531       0.00965276       0.03687021
Pt       7.01803503       4.05186407      24.58417407        2       0.00418279       0.00512047       0.02420073
Pt       2.80721279       6.48298345      24.58417372        2       0.01058460       0.00615751       0.05715149
Pt       5.61442797       6.48298324      24.58417392        2       0.00507411       0.00816865       0.05357529
Pt       8.42164222       6.48298343      24.58417383        2       0.00453842       0.01897406       0.04464518
Pt       0.00965821       0.00463697      26.92319746        1      -0.00466624       0.00026660      -0.02936567
Pt       2.81522504       0.00523171      26.92180020        1       0.00403175       0.00220679      -0.02598125
Pt       5.62502685       0.00676887      26.92081646        1      -0.01070027      -0.00833835      -0.02046214
Pt       1.41118784       2.43554882      26.92092290        1       0.00547634       0.00240982      -0.02261404
Pt       4.21797791       2.43599818      26.91172595        1      -0.00368662      -0.00249053       0.01541792
Pt       7.02713215       2.43694615      26.91572797        1       0.00141041      -0.01337563       0.00165687
Pt       2.81820022       4.86891840      26.91948656        1      -0.01149588      -0.00440449      -0.01700269
Pt       5.62486584       4.86768063      26.91752692        1      -0.01139736       0.00735703      -0.00537859
Pt       8.43340680       4.86926503      26.91091294        1      -0.00482049      -0.00555735       0.01805824
N        6.31797779       3.63484794      30.83617273        0      -0.00231686       0.00923499       0.01351803
H        6.78421200       2.82305818      30.41074359        0      -0.00855182       0.00453994      -0.00518985
H        5.35688967       3.64610010      30.47116947        0       0.00115347      -0.01353125      -0.00593329
H        6.78189830       4.47011201      30.45666043        0       0.00929565       0.00043414      -0.00367396
