40
Lattice="8.421641763931781 0.0 0.0 4.2108208819658905 7.293355709136913 0.0 0.0 0.0 46.87624170604845" Properties=species:S:1:pos:R:3:tags:I:1:forces:R:3 charge=0 spin=0 energy=-206.42858005484703 free_energy=-206.42858005484703 stress="0.010264147073030472 -2.4921282815171253e-08 7.557900971733034e-10 -2.4921282815171253e-08 0.010264109820127487 3.3877073368770994e-10 7.557900971733034e-10 3.3877073368770994e-10 -0.00026108039310202" pbc="T T T"
Pt      -0.00000005       0.00000022      19.95723419        4       0.00000283      -0.00000107       0.02017412
Pt       2.80721406      -0.00000018      19.95723436        4       0.00173177      -0.00062577       0.01994112
Pt       5.61442778      -0.00000006      19.95723442        4      -0.00035855      -0.00108840       0.02000783
Pt       1.40360717       2.43111838      19.95723425        4      -0.00076817       0.00085407       0.01999422
Pt       4.21082080       2.43111835      19.95723435        4       0.00000078       0.00000172       0.02029799
Pt       7.01803478       2.43111843      19.95723423        4      -0.00032521       0.00181999       0.01995207
Pt       2.80721408       4.86223724      19.95723395        4      -0.00140925      -0.00119335       0.01995684
Pt       5.61442803       4.86223730      19.95723413        4       0.00112454       0.00023573       0.02001515
Pt       8.42164138       4.86223726      19.95723427        4       0.00000146      -0.00000429      -0.00013236
Pt       1.40360728       0.81037260      22.29206790        3      -0.00063726      -0.00116360      -0.05531523
Pt       4.21082128       0.81037250      22.29206784        3      -0.00128026       0.00030761      -0.06096211
Pt       7.01803477       0.81037260      22.29206779        3       0.00129919       0.00005386      -0.05527719
Pt       2.80721450       3.24149125      22.29206775        3       0.00086816       0.00094313      -0.06093886
Pt       5.61442762       3.24149123      22.29206790        3       0.00040799      -0.00124444      -0.06091417
Pt       8.42164156       3.24149116      22.29206805        3      -0.00137569      -0.00405166      -0.04471606
Pt       4.21082094       5.67260998      22.29206797        3      -0.00066764       0.00111952      -0.05527306
Pt       7.01803488       5.67261038      22.29206774        3      -0.00279904       0.00319618      -0.04473171
Pt       9.82524823       5.67261061      22.29206804        3       0.00418041       0.00084549      -0.04472209
Pt      -0.00000056       1.62074572      24.58417389        2      -0.00215898      -0.04181651       0.07018646
Pt       2.80721443       1.62074548      24.58417398        2       0.00581275       0.00738544       0.01370252
Pt       5.61442779       1.62074532      24.58417370        2      -0.00929483       0.00139845       0.01365019
Pt       1.40360636       4.05186439      24.58417390        2      -0.02225980       0.01313609      -0.01347744
Pt       4.21082088       4.05186401      24.58417381        2       0.00342729      -0.00873459       0.01364489
Pt       7.01803503       4.05186407      24.58417407        2       0.02255070       0.01272542      -0.01357664
Pt       2.80721279       6.48298345      24.58417372        2       0.03733471       0.01897521       0.07019303
Pt       5.61442797       6.48298324      24.58417392        2      -0.03513454       0.02281923       0.07014869
Pt       8.42164222       6.48298343      24.58417383        2      -0.00027310      -0.02588570      -0.01351217
Pt      -0.00000173      -0.00000065      26.93320697        1       0.00000795      -0.00000045       0.03793978
Pt       2.81652613       0.00108819      26.91021352        1      -0.00545154      -0.00102691       0.00509206
Pt       5.60530289       0.00110942      26.90999414        1       0.00559241      -0.00117125       0.00505348
Pt       1.40913452       2.43847288      26.91002268        1      -0.00381279      -0.00428709       0.00498538
Pt       4.21082154       2.43111789      26.92112125        1      -0.00000270      -0.00000013       0.00085087
Pt       7.01244645       2.43864364      26.91021860        1       0.00360314      -0.00422064       0.00503493
Pt       2.80349151       4.85362453      26.91024101        1       0.00184048       0.00524935       0.00501776
Pt       5.61802442       4.85377398      26.90998955        1      -0.00177553       0.00545487       0.00501222
Pt       8.42164218       4.86223821      26.91866795        1      -0.00000208      -0.00000421       0.00053460
N        0.00000123       0.00000182      29.84016336        0      -0.00004011      -0.00018913       0.04955714
H        0.85213118      -0.49192622      29.56532072        0       0.02010605      -0.01147255      -0.00245357
H       -0.85208606      -0.49200474      29.56532011        0      -0.01996110      -0.01162951      -0.00244095
H       -0.00004404       0.98392847      29.56532079        0      -0.00010447       0.02328980      -0.00249958
