40
Lattice="8.421641763931781 0.0 0.0 4.2108208819658905 7.293355709136913 0.0 0.0 0.0 46.87624170604845" Properties=species:S:1:pos:R:3:tags:I:1:forces:R:3 charge=0 spin=0 energy=-206.99403263053063 free_energy=-206.99403263053063 stress="0.010009747929871082 -1.1094189744653704e-07 -2.8721867106895616e-09 -1.1094189744653704e-07 0.010009875521063805 -2.9265373768794234e-07 -2.8721867106895616e-09 -2.9265373768794234e-07 -0.00023343962675426155" pbc="T T T"
Pt      -0.00000005       0.00000022      19.95723419        4       0.00248844      -0.00446611       0.02112093
Pt       2.80721406      -0.00000018      19.95723436        4      -0.00152011      -0.00550040       0.02233955
Pt       5.61442778      -0.00000006      19.95723442        4      -0.00000134       0.00000717       0.01862758
Pt       1.40360717       2.43111838      19.95723425        4      -0.00000020       0.00000277       0.02418223
Pt       4.21082080       2.43111835      19.95723435        4       0.00262160       0.00439155       0.02112672
Pt       7.01803478       2.43111843      19.95723423        4      -0.00400491       0.00406855       0.02228274
Pt       2.80721408       4.86223724      19.95723395        4       0.00552123       0.00143854       0.02231425
Pt       5.61442803       4.86223730      19.95723413        4      -0.00000190      -0.00000660      -0.04340874
Pt       8.42164138       4.86223726      19.95723427        4      -0.00510503       0.00007876       0.02114672
Pt       1.40360728       0.81037260      22.29206790        3       0.00089937      -0.00082571      -0.07494892
Pt       4.21082128       0.81037250      22.29206784        3       0.00352819       0.00131185      -0.04606811
Pt       7.01803477       0.81037260      22.29206779        3      -0.00069541      -0.00371955      -0.04609652
Pt       2.80721450       3.24149125      22.29206775        3       0.00029450       0.00123314      -0.07479924
Pt       5.61442762       3.24149123      22.29206790        3      -0.00285859       0.02655532      -0.08294167
Pt       8.42164156       3.24149116      22.29206805        3      -0.00119891      -0.00038184      -0.07485159
Pt       4.21082094       5.67260998      22.29206797        3       0.02444997      -0.01080829      -0.08299046
Pt       7.01803488       5.67261038      22.29206774        3      -0.02158975      -0.01571689      -0.08300963
Pt       9.82524823       5.67261061      22.29206804        3      -0.00282782       0.00243768      -0.04600473
Pt      -0.00000056       1.62074572      24.58417389        2       0.00537572       0.00903964       0.00754890
Pt       2.80721443       1.62074548      24.58417398        2      -0.01059135       0.00015496       0.00746446
Pt       5.61442779       1.62074532      24.58417370        2      -0.00420913      -0.16012506       0.24918132
Pt       1.40360636       4.05186439      24.58417390        2       0.00521386      -0.00924187       0.00729355
Pt       4.21082088       4.05186401      24.58417381        2       0.04037820       0.02856774      -0.08056708
Pt       7.01803503       4.05186407      24.58417407        2      -0.04493000       0.02057667      -0.08044099
Pt       2.80721279       6.48298345      24.58417372        2      -0.13652220       0.08367170       0.24918558
Pt       5.61442797       6.48298324      24.58417392        2       0.00453211      -0.04922672      -0.08028694
Pt       8.42164222       6.48298343      24.58417383        2       0.14075091       0.07638723       0.24923217
Pt       0.02219685      -0.00061565      26.90628480        1      -0.01302758       0.00439987      -0.00278997
Pt       2.78457675      -0.00023051      26.90567290        1       0.01848585       0.00514424      -0.00744146
Pt       5.61442555      -0.00011486      26.99539369        1      -0.00001055       0.00006844       0.00342868
Pt       1.40360808       2.43109513      26.92827665        1       0.00001481      -0.00004412      -0.01175820
Pt       4.20026602       2.45062158      26.90627773        1       0.00263229      -0.01360901      -0.00277047
Pt       7.02915630       2.45079002      26.90568580        1      -0.00471286      -0.01863151      -0.00742572
Pt       2.81872975       4.84270218      26.90566564        1      -0.01378135       0.01339754      -0.00745308
Pt       5.61442585       4.86221935      26.92480099        1       0.00000579      -0.00003432       0.00275379
Pt       8.40999370       4.84325473      26.90627552        1       0.01040574       0.00913945      -0.00273421
N        5.61442942       0.00001563      29.15364000        0      -0.00006326      -0.00008857      -0.01614791
H        5.12988021       0.84239728      29.49041269        0       0.02178814      -0.03683541       0.00235043
H        6.58613670      -0.00142561      29.49067785        0      -0.04276337      -0.00012740       0.00191119
H        5.12726846      -0.84065142      29.49094512        0       0.02102894       0.03731663       0.00144483
