40
Lattice="8.421641763931781 0.0 0.0 4.2108208819658905 7.293355709136913 0.0 0.0 0.0 46.87624170604845" Properties=species:S:1:pos:R:3:tags:I:1:forces:R:3 charge=0 spin=0 energy=-206.42496372183922 free_energy=-206.42496372183922 stress="0.010533586144447327 -1.3527354347786513e-08 -3.987552688045071e-08 -1.3527354347786513e-08 0.010533700697124004 1.756029064381437e-07 -3.987552688045071e-08 1.756029064381437e-07 -7.4028475864906795e-06" pbc="T T T"
Pt      -0.00000005       0.00000022      19.95723419        4       0.00001584       0.00030400       0.01809045
Pt       2.80721406      -0.00000018      19.95723436        4       0.00025665      -0.00015999       0.01808969
Pt       5.61442778      -0.00000006      19.95723442        4       0.00002838      -0.00012534       0.01860994
Pt       1.40360717       2.43111838      19.95723425        4       0.00026766       0.00038610       0.01854759
Pt       4.21082080       2.43111835      19.95723435        4      -0.00012487       0.00004332       0.01862228
Pt       7.01803478       2.43111843      19.95723423        4       0.00009504       0.00009141       0.01861725
Pt       2.80721408       4.86223724      19.95723395        4      -0.00046253       0.00003763       0.01855215
Pt       5.61442803       4.86223730      19.95723413        4      -0.00027504      -0.00014652       0.01809246
Pt       8.42164138       4.86223726      19.95723427        4       0.00019598      -0.00042453       0.01854545
Pt       1.40360728       0.81037260      22.29206790        3      -0.00039392       0.00133113      -0.04922652
Pt       4.21082128       0.81037250      22.29206784        3       0.00102296       0.00021010      -0.05322635
Pt       7.01803477       0.81037260      22.29206779        3      -0.00067920       0.00080474      -0.05323729
Pt       2.80721450       3.24149125      22.29206775        3       0.00020391      -0.00077847      -0.05280965
Pt       5.61442762       3.24149123      22.29206790        3      -0.00034280      -0.00098407      -0.05322828
Pt       8.42164156       3.24149116      22.29206805        3      -0.00078668       0.00021810      -0.05283822
Pt       4.21082094       5.67260998      22.29206797        3      -0.00094895      -0.00098826      -0.04918911
Pt       7.01803488       5.67261038      22.29206774        3       0.00132805      -0.00031857      -0.04920558
Pt       9.82524823       5.67261061      22.29206804        3       0.00057674       0.00057426      -0.05280062
Pt      -0.00000056       1.62074572      24.58417389        2       0.01082265      -0.00159437       0.04811989
Pt       2.80721443       1.62074548      24.58417398        2      -0.01103149      -0.00319576       0.04827330
Pt       5.61442779       1.62074532      24.58417370        2      -0.00002769       0.00000941       0.01582980
Pt       1.40360636       4.05186439      24.58417390        2       0.00004866       0.00003098       0.06724861
Pt       4.21082088       4.05186401      24.58417381        2      -0.00406493       0.01019973       0.04825134
Pt       7.01803503       4.05186407      24.58417407        2       0.00271933       0.01119863       0.04836948
Pt       2.80721279       6.48298345      24.58417372        2       0.00831946      -0.00801642       0.04836779
Pt       5.61442797       6.48298324      24.58417392        2      -0.00001081      -0.00005122       0.04544308
Pt       8.42164222       6.48298343      24.58417383        2      -0.00676272      -0.00861296       0.04812735
Pt       0.00006582      -0.00049621      26.91984152        1       0.00309949      -0.00135137      -0.01895682
Pt       2.80678870       0.00016299      26.91982355        1      -0.00280274      -0.00196154      -0.01884386
Pt       5.61375567       0.00092284      26.91331826        1       0.00111653      -0.01727193       0.01200241
Pt       1.40375706       2.43166164      26.92281058        1      -0.00036338      -0.00047225      -0.03112587
Pt       4.21195035       2.43125311      26.91332544        1      -0.01548605       0.00756343       0.01199732
Pt       7.01756262       2.43005078      26.91330873        1       0.01439994       0.00965271       0.01204341
Pt       2.80663644       4.86208689      26.92288213        1       0.00069134      -0.00012590      -0.03129696
Pt       5.61479633       4.86251547      26.91987878        1      -0.00031948       0.00332479      -0.01895249
Pt       8.42206095       4.86180292      26.92283753        1      -0.00032299       0.00059839      -0.03110789
N        5.61442729       1.62074274      31.01022894        0       0.00010644      -0.00000338       0.02791816
H        4.79867481       1.13433687      30.61679150        0      -0.00680889      -0.00420283      -0.01059855
H        5.60106301       2.57041233      30.61679616        0      -0.00023382       0.00794039      -0.01056978
H        6.44354830       1.15748445      30.61679095        0       0.00693391      -0.00373328      -0.01054562
