40
Lattice="8.421641763931781 0.0 0.0 4.2108208819658905 7.293355709136913 0.0 0.0 0.0 46.87624170604845" Properties=species:S:1:pos:R:3:tags:I:1:forces:R:3 charge=0 spin=0 energy=-206.4243457408822 free_energy=-206.4243457408822 stress="0.010479140095412731 -1.6867824470523374e-08 1.3451407987474795e-08 -1.6867824470523374e-08 0.010479148477315903 -1.2644985503129647e-08 1.3451407987474795e-08 -1.2644985503129647e-08 -6.815047527197748e-05" pbc="T T T"
Pt      -0.00000005       0.00000022      19.95723419        4      -0.00017218      -0.00050456       0.01846212
Pt       2.80721406      -0.00000018      19.95723436        4      -0.00016484       0.00020950       0.01792238
Pt       5.61442778      -0.00000006      19.95723442        4      -0.00010027      -0.00024149       0.01791282
Pt       1.40360717       2.43111838      19.95723425        4      -0.00025464       0.00023156       0.01877788
Pt       4.21082080       2.43111835      19.95723435        4       0.00026396       0.00004000       0.01791672
Pt       7.01803478       2.43111843      19.95723423        4       0.00032759       0.00010606       0.01878084
Pt       2.80721408       4.86223724      19.95723395        4       0.00052132       0.00009602       0.01845347
Pt       5.61442803       4.86223730      19.95723413        4      -0.00034641       0.00040064       0.01845701
Pt       8.42164138       4.86223726      19.95723427        4      -0.00007337      -0.00033963       0.01877664
Pt       1.40360728       0.81037260      22.29206790        3       0.00013251       0.00104921      -0.05338994
Pt       4.21082128       0.81037250      22.29206784        3      -0.00000189       0.00000821      -0.04616971
Pt       7.01803477       0.81037260      22.29206779        3       0.00055746       0.00065288      -0.05288531
Pt       2.80721450       3.24149125      22.29206775        3      -0.00084490       0.00015935      -0.05291663
Pt       5.61442762       3.24149123      22.29206790        3       0.00084460      -0.00063666      -0.05340726
Pt       8.42164156       3.24149116      22.29206805        3       0.00000265       0.00000218      -0.04872638
Pt       4.21082094       5.67260998      22.29206797        3      -0.00000133      -0.00000077      -0.05050437
Pt       7.01803488       5.67261038      22.29206774        3       0.00028039      -0.00081426      -0.05288631
Pt       9.82524823       5.67261061      22.29206804        3      -0.00096713      -0.00042186      -0.05340474
Pt      -0.00000056       1.62074572      24.58417389        2       0.00146725       0.00502270       0.03288958
Pt       2.80721443       1.62074548      24.58417398        2       0.00492327      -0.00293046       0.04805760
Pt       5.61442779       1.62074532      24.58417370        2      -0.00498934      -0.00281665       0.04805378
Pt       1.40360636       4.05186439      24.58417390        2      -0.00508533      -0.00123552       0.03286451
Pt       4.21082088       4.05186401      24.58417381        2      -0.00107831      -0.00372458       0.03621968
Pt       7.01803503       4.05186407      24.58417407        2       0.00360989      -0.00378261       0.03284775
Pt       2.80721279       6.48298345      24.58417372        2      -0.00269263       0.00281175       0.03627189
Pt       5.61442797       6.48298324      24.58417392        2       0.00377673       0.00095231       0.03625619
Pt       8.42164222       6.48298343      24.58417383        2       0.00006072       0.00571012       0.04807304
Pt      -0.00030861       0.00283729      26.91427632        1       0.00021226      -0.01690376       0.00761877
Pt       2.80382476      -0.00214426      26.91893157        1       0.02564734       0.01524394      -0.01869041
Pt       5.61797232      -0.00186131      26.91893441        1      -0.02600212       0.01457328      -0.01865781
Pt       1.40498993       2.43013581      26.91806383        1      -0.00204729      -0.00039228      -0.00926895
Pt       4.21065774       2.43512797      26.91890832        1       0.00038720      -0.02984808      -0.01878254
Pt       7.01648995       2.43041940      26.91806469        1       0.00068042       0.00194909      -0.00924347
Pt       2.80491305       4.86054903      26.91426395        1       0.01453156       0.00871101       0.00755456
Pt       5.61703930       4.86109241      26.91426067        1      -0.01480950       0.00824414       0.00755761
Pt       8.42179700       4.86392421      26.91807367        1       0.00140046      -0.00158099      -0.00921724
N        8.42164389       3.24149012      30.85924783        0      -0.00012958       0.00004713      -0.02279824
H        7.59565010       3.70519314      30.45958167        0      -0.03489638       0.01935313       0.01044783
H        9.23621445       3.72496892      30.45958025        0       0.03433922       0.02061343       0.01038280
H        8.43306085       2.29431024      30.45958138        0       0.00069065      -0.04001354       0.01039380
