40
Lattice="8.421641763931781 0.0 0.0 4.2108208819658905 7.293355709136913 0.0 0.0 0.0 46.87624170604845" Properties=species:S:1:pos:R:3:tags:I:1:forces:R:3 charge=0 spin=0 energy=-206.42799449881676 free_energy=-206.42799449881676 stress="0.010533969849348068 -1.1108549635707732e-08 -1.0442976261515469e-08 -1.1108549635707732e-08 0.010534035973250866 1.4581870821928078e-08 -1.0442976261515469e-08 1.4581870821928078e-08 1.7400090655428357e-05" pbc="T T T"
Pt      -0.00000005       0.00000022      19.95723419        4      -0.00005435      -0.00005963       0.01879639
Pt       2.80721406      -0.00000018      19.95723436        4       0.00021621       0.00066274       0.01851840
Pt       5.61442778      -0.00000006      19.95723442        4       0.00007956      -0.00001271       0.01879306
Pt       1.40360717       2.43111838      19.95723425        4       0.00045882      -0.00051740       0.01852188
Pt       4.21082080       2.43111835      19.95723435        4      -0.00067693      -0.00013868       0.01852520
Pt       7.01803478       2.43111843      19.95723423        4      -0.00014978      -0.00012934       0.01793969
Pt       2.80721408       4.86223724      19.95723395        4      -0.00002241       0.00007244       0.01880945
Pt       5.61442803       4.86223730      19.95723413        4      -0.00004235       0.00018930       0.01794391
Pt       8.42164138       4.86223726      19.95723427        4       0.00018895      -0.00006543       0.01794492
Pt       1.40360728       0.81037260      22.29206790        3      -0.00103788      -0.00017459      -0.05072640
Pt       4.21082128       0.81037250      22.29206784        3       0.00066656      -0.00079589      -0.05071382
Pt       7.01803477       0.81037260      22.29206779        3      -0.00041149      -0.00022426      -0.05289267
Pt       2.80721450       3.24149125      22.29206775        3       0.00035255       0.00099008      -0.05069662
Pt       5.61442762       3.24149123      22.29206790        3       0.00012725      -0.00007758      -0.05150038
Pt       8.42164156       3.24149116      22.29206805        3       0.00000489       0.00015250      -0.05150819
Pt       4.21082094       5.67260998      22.29206797        3       0.00000563       0.00047776      -0.05289017
Pt       7.01803488       5.67261038      22.29206774        3      -0.00013284      -0.00006662      -0.05152078
Pt       9.82524823       5.67261061      22.29206804        3       0.00040803      -0.00024281      -0.05288496
Pt      -0.00000056       1.62074572      24.58417389        2       0.00307990      -0.00281252       0.05008997
Pt       2.80721443       1.62074548      24.58417398        2      -0.00000132       0.00002897       0.05527250
Pt       5.61442779       1.62074532      24.58417370        2      -0.00349149      -0.00456008       0.05142246
Pt       1.40360636       4.05186439      24.58417390        2       0.00571060      -0.00074875       0.05139259
Pt       4.21082088       4.05186401      24.58417381        2      -0.00396912      -0.00126485       0.05011145
Pt       7.01803503       4.05186407      24.58417407        2      -0.00000121      -0.00000916       0.03818475
Pt       2.80721279       6.48298345      24.58417372        2       0.00001022      -0.00001831       0.05890212
Pt       5.61442797       6.48298324      24.58417392        2      -0.00220952       0.00531698       0.05139640
Pt       8.42164222       6.48298343      24.58417383        2       0.00088797       0.00408068       0.05006384
Pt       0.00133378       0.00073539      26.92322128        1      -0.00567601      -0.00494759      -0.03110638
Pt       2.80715994       0.00025988      26.92002635        1       0.00061640      -0.00149071      -0.02017248
Pt       5.61312257       0.00079040      26.92322589        1       0.00708166      -0.00251537      -0.03114048
Pt       1.40386291       2.43102914      26.92004592        1      -0.00158473       0.00021789      -0.02001214
Pt       4.21061809       2.43093653      26.92005321        1       0.00097714       0.00127927      -0.02009030
Pt       7.01836762       2.42902199      26.91590206        1       0.00009594       0.00949968      -0.00464975
Pt       2.80718406       4.86071125      26.92323492        1      -0.00140723       0.00738514      -0.03104557
Pt       5.61244849       4.86298618      26.91589000        1       0.00819045      -0.00482431      -0.00470626
Pt       8.42328730       4.86356670      26.91588818        1      -0.00828960      -0.00466074      -0.00466589
N       11.22885659       6.48298344      30.88825311        0      -0.00007037       0.00002242      -0.04649198
H       12.05959406       6.93806754      30.48714420        0       0.02458789       0.01341046       0.01891488
H       11.20760068       5.53600176      30.48714535        0      -0.00067125      -0.02798292       0.01892185
H       10.41937217       6.97488262      30.48714401        0      -0.02384675       0.01455426       0.01894978
