40
Lattice="8.421641763931781 0.0 0.0 4.2108208819658905 7.293355709136913 0.0 0.0 0.0 46.87624170604845" Properties=species:S:1:pos:R:3:tags:I:1:forces:R:3 charge=0 spin=0 energy=-206.42544628104332 free_energy=-206.42544628104332 stress="0.010499799624085426 3.5128350646118633e-06 -1.513860524937627e-06 3.5128350646118633e-06 0.010546774603426456 -1.0730879694165196e-05 -1.513860524937627e-06 -1.0730879694165196e-05 -3.3829794119810686e-05" pbc="T T T"
Pt      -0.00000005       0.00000022      19.95723419        4      -0.00018359       0.00101472       0.01851899
Pt       2.80721406      -0.00000018      19.95723436        4      -0.00007155       0.00142246       0.01756437
Pt       5.61442778      -0.00000006      19.95723442        4      -0.00025543       0.00086584       0.01754164
Pt       1.40360717       2.43111838      19.95723425        4       0.00009027       0.00125845       0.01885686
Pt       4.21082080       2.43111835      19.95723435        4       0.00030640       0.00118663       0.01829361
Pt       7.01803478       2.43111843      19.95723423        4      -0.00019538       0.00111205       0.01884991
Pt       2.80721408       4.86223724      19.95723395        4       0.00014326       0.00051715       0.01874639
Pt       5.61442803       4.86223730      19.95723413        4      -0.00039664       0.00085540       0.01864916
Pt       8.42164138       4.86223726      19.95723427        4      -0.00034989       0.00101708       0.01842743
Pt       1.40360728       0.81037260      22.29206790        3      -0.00033883       0.00502534      -0.05342221
Pt       4.21082128       0.81037250      22.29206784        3       0.00015036       0.00503151      -0.04564059
Pt       7.01803477       0.81037260      22.29206779        3       0.00144016       0.00404022      -0.05310618
Pt       2.80721450       3.24149125      22.29206775        3      -0.00067652       0.00420990      -0.05206436
Pt       5.61442762       3.24149123      22.29206790        3       0.00024229       0.00347641      -0.05211956
Pt       8.42164156       3.24149116      22.29206805        3       0.00003215       0.00346588      -0.05072622
Pt       4.21082094       5.67260998      22.29206797        3       0.00059354       0.00480224      -0.05459274
Pt       7.01803488       5.67261038      22.29206774        3      -0.00070542       0.00281400      -0.05105597
Pt       9.82524823       5.67261061      22.29206804        3       0.00061793       0.00387143      -0.05150465
Pt      -0.00000056       1.62074572      24.58417389        2      -0.00029440      -0.00869587       0.02410086
Pt       2.80721443       1.62074548      24.58417398        2       0.00504884      -0.01258006       0.05287897
Pt       5.61442779       1.62074532      24.58417370        2      -0.00527560      -0.01245445       0.05265026
Pt       1.40360636       4.05186439      24.58417390        2       0.00518961      -0.01121558       0.03584187
Pt       4.21082088       4.05186401      24.58417381        2      -0.00066592      -0.01656861       0.05644912
Pt       7.01803503       4.05186407      24.58417407        2      -0.00721969      -0.01289545       0.03680393
Pt       2.80721279       6.48298345      24.58417372        2      -0.01207385      -0.01550314       0.04230221
Pt       5.61442797       6.48298324      24.58417392        2       0.01435317      -0.01590373       0.04363535
Pt       8.42164222       6.48298343      24.58417383        2      -0.00054473      -0.00023382       0.04196551
Pt      -0.00061424      -0.01831023      26.91062881        1      -0.00079289       0.00686128       0.01838027
Pt       2.80727237      -0.01483794      26.92242838        1       0.00034751      -0.00289302      -0.02724000
Pt       5.61376301      -0.01397143      26.92139805        1      -0.00079530      -0.00412153      -0.02372417
Pt       1.40278045       2.41437702      26.91664523        1       0.01249449       0.00803369      -0.00199211
Pt       4.21028131       2.41501099      26.92319502        1       0.00064640       0.00659398      -0.03027025
Pt       7.01817100       2.41528058      26.91729236        1      -0.01289400       0.00714474      -0.00357737
Pt       2.80648748       4.84438830      26.91923353        1       0.00345469       0.01378818      -0.01560994
Pt       5.61463465       4.84458492      26.91957360        1      -0.00227638       0.01467065      -0.01697709
Pt       8.42165226       4.84846527      26.91235458        1       0.00073806       0.00716224       0.01369818
N        8.42674576       2.41105120      30.82802089        0       0.00098280       0.01145022       0.01543914
H        9.24644776       1.96739706      30.39388131        0      -0.01099157      -0.01050211      -0.00639279
H        7.59714076       1.96609146      30.41447400        0       0.01243784      -0.00658524      -0.00769124
H        8.42248376       3.38832132      30.50917594        0      -0.00231222       0.00846092      -0.00188660
