40
Lattice="8.421641763931781 0.0 0.0 4.2108208819658905 7.293355709136913 0.0 0.0 0.0 46.87624170604845" Properties=species:S:1:pos:R:3:tags:I:1:forces:R:3 charge=0 spin=0 energy=-206.42709423026207 free_energy=-206.42709423026207 stress="0.010525095276534557 -5.719297178075067e-07 -8.921453797938739e-08 -5.719297178075067e-07 0.010525341145694256 7.982101806192077e-07 -8.921453797938739e-08 7.982101806192077e-07 -1.9185707060387358e-05" pbc="T T T"
Pt      -0.00000005       0.00000022      19.95723419        4       0.00029866       0.00044883       0.01848886
Pt       2.80721406      -0.00000018      19.95723436        4      -0.00014148       0.00004783       0.01865033
Pt       5.61442778      -0.00000006      19.95723442        4       0.00010106       0.00010422       0.01863971
Pt       1.40360717       2.43111838      19.95723425        4      -0.00053054       0.00003575       0.01849223
Pt       4.21082080       2.43111835      19.95723435        4      -0.00016982      -0.00017438       0.01809827
Pt       7.01803478       2.43111843      19.95723423        4       0.00023654      -0.00047142       0.01848570
Pt       2.80721408       4.86223724      19.95723395        4      -0.00006976       0.00022330       0.01809461
Pt       5.61442803       4.86223730      19.95723413        4       0.00023259      -0.00005736       0.01809520
Pt       8.42164138       4.86223726      19.95723427        4       0.00003173      -0.00014627       0.01865752
Pt       1.40360728       0.81037260      22.29206790        3       0.00038202      -0.00077559      -0.05227405
Pt       4.21082128       0.81037250      22.29206784        3      -0.00032299      -0.00093839      -0.05366028
Pt       7.01803477       0.81037260      22.29206779        3      -0.00087643       0.00006918      -0.05231456
Pt       2.80721450       3.24149125      22.29206775        3      -0.00070177      -0.00097018      -0.04927844
Pt       5.61442762       3.24149123      22.29206790        3       0.00120227      -0.00008809      -0.04929987
Pt       8.42164156       3.24149116      22.29206805        3       0.00046959       0.00071805      -0.05227889
Pt       4.21082094       5.67260998      22.29206797        3      -0.00053034       0.00109479      -0.04933387
Pt       7.01803488       5.67261038      22.29206774        3       0.00096228       0.00019851      -0.05363549
Pt       9.82524823       5.67261061      22.29206804        3      -0.00063112       0.00074850      -0.05367159
Pt      -0.00000056       1.62074572      24.58417389        2       0.00006626       0.00006378       0.06395140
Pt       2.80721443       1.62074548      24.58417398        2      -0.00457296       0.00861106       0.04730808
Pt       5.61442779       1.62074532      24.58417370        2       0.00296514       0.00906844       0.04684102
Pt       1.40360636       4.05186439      24.58417390        2       0.00622333      -0.00707724       0.04705194
Pt       4.21082088       4.05186401      24.58417381        2       0.00000512      -0.00002163       0.03993823
Pt       7.01803503       4.05186407      24.58417407        2      -0.00502197      -0.00817120       0.04732486
Pt       2.80721279       6.48298345      24.58417372        2       0.00976204      -0.00038964       0.04716874
Pt       5.61442797       6.48298324      24.58417392        2      -0.00929662      -0.00191612       0.04678882
Pt       8.42164222       6.48298343      24.58417383        2      -0.00004282      -0.00011168       0.02097365
Pt       0.00108680       0.00082026      26.92237553        1      -0.00312433      -0.00258305      -0.02863158
Pt       2.80815782       0.00084747      26.91426959        1      -0.01187009       0.00359973       0.00757277
Pt       5.61469481      -0.00125258      26.91424135        1       0.00910557       0.00853318       0.00769092
Pt       1.40234035       2.43165341      26.92243856        1       0.00382847      -0.00131946      -0.02871714
Pt       4.21111576       2.43132042      26.91854552        1       0.00036884       0.00171087      -0.01395484
Pt       7.01823371       2.42977421      26.92239193        1      -0.00072726       0.00408052      -0.02848665
Pt       2.80725564       4.86185463      26.91852200        1       0.00133613      -0.00111332      -0.01399328
Pt       5.61412550       4.86238565      26.91849584        1      -0.00174631      -0.00055471      -0.01385369
Pt       8.42046497       4.86267658      26.91437431        1       0.00276987      -0.01221574       0.00721088
N        8.42159353       6.48563072      30.99993134        0       0.00012984      -0.00098503       0.03350741
H        7.95745678       5.65383175      30.61372195        0      -0.00757492      -0.01567400      -0.01157011
H        7.93638444       7.29824168      30.59898984        0      -0.00889071       0.01283639      -0.01220781
H        9.37107316       6.49399548      30.60633919        0       0.01636497       0.00356152      -0.01186899
