40
Lattice="8.421641763931781 0.0 0.0 4.2108208819658905 7.293355709136913 0.0 0.0 0.0 46.87624170604845" Properties=species:S:1:pos:R:3:tags:I:1:forces:R:3 charge=0 spin=0 energy=-206.9928214641488 free_energy=-206.9928214641488 stress="0.01004142314195633 -6.48948486059453e-08 -5.891664933699303e-11 -6.48948486059453e-08 0.010041496716439724 -2.429575474138801e-08 -5.891664933699303e-11 -2.429575474138801e-08 -0.00017481425311416388" pbc="T T T"
Pt      -0.00000005       0.00000022      19.95723419        4      -0.00140471      -0.00511018       0.02217695
Pt       2.80721406      -0.00000018      19.95723436        4      -0.00000237       0.00000317       0.01857253
Pt       5.61442778      -0.00000006      19.95723442        4       0.00249029      -0.00435654       0.02149038
Pt       1.40360717       2.43111838      19.95723425        4       0.00252647       0.00433658       0.02150851
Pt       4.21082080       2.43111835      19.95723435        4      -0.00371397       0.00377141       0.02212324
Pt       7.01803478       2.43111843      19.95723423        4      -0.00000189       0.00000150       0.02436722
Pt       2.80721408       4.86223724      19.95723395        4       0.00000122      -0.00000367      -0.04318737
Pt       5.61442803       4.86223730      19.95723413        4      -0.00501842       0.00002100       0.02152418
Pt       8.42164138       4.86223726      19.95723427        4       0.00512258       0.00133533       0.02215344
Pt       1.40360728       0.81037260      22.29206790        3       0.00298834       0.00094617      -0.04524924
Pt       4.21082128       0.81037250      22.29206784        3      -0.00073400      -0.00307964      -0.04528724
Pt       7.01803477       0.81037260      22.29206779        3       0.00200162      -0.00068857      -0.07438151
Pt       2.80721450       3.24149125      22.29206775        3      -0.00150283       0.02584451      -0.08389951
Pt       5.61442762       3.24149123      22.29206790        3      -0.00163070      -0.00141195      -0.07428572
Pt       8.42164156       3.24149116      22.29206805        3      -0.00036449       0.00210898      -0.07423413
Pt       4.21082094       5.67260998      22.29206797        3      -0.02166169      -0.01418370      -0.08395206
Pt       7.01803488       5.67261038      22.29206774        3      -0.00226306       0.00213914      -0.04519204
Pt       9.82524823       5.67261061      22.29206804        3       0.02316259      -0.01166495      -0.08393826
Pt      -0.00000056       1.62074572      24.58417389        2      -0.01110333       0.00179502       0.01794113
Pt       2.80721443       1.62074548      24.58417398        2      -0.00463799      -0.15920773       0.24151808
Pt       5.61442779       1.62074532      24.58417370        2       0.00706395       0.00869061       0.01800064
Pt       1.40360636       4.05186439      24.58417390        2       0.03695468       0.02437719      -0.06721664
Pt       4.21082088       4.05186401      24.58417381        2      -0.03956786       0.01976941      -0.06712087
Pt       7.01803503       4.05186407      24.58417407        2       0.00404726      -0.01047230       0.01776502
Pt       2.80721279       6.48298345      24.58417372        2       0.00262321      -0.04415861      -0.06697199
Pt       5.61442797       6.48298324      24.58417392        2       0.14017648       0.07560825       0.24152160
Pt       8.42164222       6.48298343      24.58417383        2      -0.13555218       0.08360302       0.24149656
Pt      -0.01720443      -0.00148365      26.90707760        1      -0.02551774       0.01521079      -0.01263090
Pt       2.80721425      -0.00000136      26.99524137        1       0.00000044       0.00000513       0.03443242
Pt       5.63213548      -0.00203775      26.90784146        1       0.02422730       0.01461983      -0.01244000
Pt       1.39652883       2.44747233      26.90784286        1      -0.02477542       0.01367567      -0.01246180
Pt       4.21814357       2.44675969      26.90707971        1       0.02594229       0.01448425      -0.01257405
Pt       7.01803801       2.43111987      26.92918748        1       0.00000428      -0.00000586      -0.01948186
Pt       2.80721072       4.86223709      26.92455736        1       0.00000523       0.00000217      -0.00622286
Pt       5.60379970       4.84792156      26.90783751        1       0.00054072      -0.02828964      -0.01242343
Pt       8.43152557       4.84807993      26.90707539        1      -0.00042994      -0.02970933      -0.01268286
N        2.80721301       0.00000142      29.15768966        0       0.00006730      -0.00018483      -0.03582146
H        2.80639583      -0.97173430      29.49437684        0       0.00003466       0.04410127       0.00165149
H        1.96607905       0.48657345      29.49437850        0       0.03800583      -0.02198122       0.00171624
H        3.64916828       0.48515650      29.49437804        0      -0.03810416      -0.02194164       0.00169607
