40
Lattice="8.421641763931781 0.0 0.0 4.2108208819658905 7.293355709136913 0.0 0.0 0.0 46.87624170604845" Properties=species:S:1:pos:R:3:tags:I:1:forces:R:3 charge=0 spin=0 energy=-206.9931762309945 free_energy=-206.9931762309945 stress="0.010014046914875507 -7.75048505374798e-08 -1.294693330322616e-08 -7.75048505374798e-08 0.010014046914875507 7.703351734278385e-09 -1.294693330322616e-08 7.703351734278385e-09 -0.00022638283553533256" pbc="T T T"
Pt      -0.00000005       0.00000022      19.95723419        4       0.00537837       0.00123856       0.02211639
Pt       2.80721406      -0.00000018      19.95723436        4      -0.00000198       0.00000254      -0.04331088
Pt       5.61442778      -0.00000006      19.95723442        4      -0.00519107      -0.00006857       0.02147922
Pt       1.40360717       2.43111838      19.95723425        4       0.00266152      -0.00446180       0.02146555
Pt       4.21082080       2.43111835      19.95723435        4      -0.00162022      -0.00527771       0.02214154
Pt       7.01803478       2.43111843      19.95723423        4      -0.00000166       0.00000264       0.01869692
Pt       2.80721408       4.86223724      19.95723395        4       0.00000057      -0.00000387       0.02415683
Pt       5.61442803       4.86223730      19.95723413        4       0.00252757       0.00453181       0.02147081
Pt       8.42164138       4.86223726      19.95723427        4      -0.00375377       0.00403555       0.02208516
Pt       1.40360728       0.81037260      22.29206790        3       0.02342654      -0.01186081      -0.08351608
Pt       4.21082128       0.81037250      22.29206784        3      -0.02197787      -0.01431186      -0.08353297
Pt       7.01803477       0.81037260      22.29206779        3      -0.00224454       0.00242219      -0.04670176
Pt       2.80721450       3.24149125      22.29206775        3       0.00198548      -0.00081713      -0.07383852
Pt       5.61442762       3.24149123      22.29206790        3       0.00322084       0.00079592      -0.04675706
Pt       8.42164156       3.24149116      22.29206805        3      -0.00097160      -0.00320941      -0.04679014
Pt       4.21082094       5.67260998      22.29206797        3      -0.00025796       0.00216681      -0.07368888
Pt       7.01803488       5.67261038      22.29206774        3      -0.00145795       0.02617738      -0.08347103
Pt       9.82524823       5.67261061      22.29206804        3      -0.00173039      -0.00135232      -0.07373829
Pt      -0.00000056       1.62074572      24.58417389        2      -0.13585579       0.08375268       0.24960366
Pt       2.80721443       1.62074548      24.58417398        2       0.00240749      -0.04706128      -0.08164187
Pt       5.61442779       1.62074532      24.58417370        2       0.14046492       0.07582486       0.24965033
Pt       1.40360636       4.05186439      24.58417390        2       0.00525021       0.00764502       0.00975478
Pt       4.21082088       4.05186401      24.58417381        2      -0.00931384       0.00075040       0.00968092
Pt       7.01803503       4.05186407      24.58417407        2      -0.00458578      -0.15955664       0.24964783
Pt       2.80721279       6.48298345      24.58417372        2       0.00405976      -0.00841003       0.00948498
Pt       5.61442797       6.48298324      24.58417392        2       0.03958555       0.02567938      -0.08192610
Pt       8.42164222       6.48298343      24.58417383        2      -0.04200828       0.02138663      -0.08179359
Pt       0.01111259      -0.01931687      26.90611023        1      -0.01346277       0.01087994      -0.00728885
Pt       2.80721331       0.00000328      26.92229973        1      -0.00000197       0.00000942       0.00710738
Pt       5.60254781      -0.01902661      26.90686576        1       0.01362581       0.01092879      -0.00713804
Pt       1.42601017       2.43034537      26.90686933        1      -0.01621426       0.00637370      -0.00717400
Pt       4.18854247       2.43114103      26.90612590        1       0.01609176       0.00624650      -0.00729564
Pt       7.01803510       2.43111946      26.99502561        1       0.00000163      -0.00000159       0.00944686
Pt       2.80721529       4.86223309      26.92861289        1       0.00000889      -0.00001342      -0.00936539
Pt       5.60390679       4.88203830      26.90686228        1       0.00260043      -0.01730237      -0.00714321
Pt       8.43280791       4.88153214      26.90613532        1      -0.00264519      -0.01713960      -0.00725486
N        7.01803442       2.43111760      29.15419472        0      -0.00001551       0.00004200      -0.01994558
H        7.02020598       1.45931816      29.49103033        0      -0.00008629       0.04742577       0.00178608
H        6.17534473       2.91513659      29.49103175        0       0.04115560      -0.02366116       0.00176585
H        7.85855130       2.91889849      29.49103208        0      -0.04105398      -0.02380906       0.00177153
