40
Lattice="8.421641763931781 0.0 0.0 4.2108208819658905 7.293355709136913 0.0 0.0 0.0 46.87624170604845" Properties=species:S:1:pos:R:3:tags:I:1:forces:R:3 charge=0 spin=0 energy=-206.42418170889977 free_energy=-206.42418170889977 stress="0.010422376915812492 4.080449755861082e-08 -2.071472593456747e-08 4.080449755861082e-08 0.01042245700955391 1.0677169370865158e-07 -2.071472593456747e-08 1.0677169370865158e-07 -0.00023650238290429115" pbc="T T T"
Pt      -0.00000005       0.00000022      19.95723419        4       0.00015890      -0.00006737       0.01862310
Pt       2.80721406      -0.00000018      19.95723436        4      -0.00002480       0.00016882       0.01862024
Pt       5.61442778      -0.00000006      19.95723442        4       0.00030528       0.00052958       0.01770063
Pt       1.40360717       2.43111838      19.95723425        4      -0.00013633      -0.00009882       0.01861941
Pt       4.21082080       2.43111835      19.95723435        4       0.00027395       0.00012588       0.01850372
Pt       7.01803478       2.43111843      19.95723423        4      -0.00024545       0.00017862       0.01850924
Pt       2.80721408       4.86223724      19.95723395        4       0.00030264      -0.00053250       0.01770693
Pt       5.61442803       4.86223730      19.95723413        4      -0.00003394      -0.00030330       0.01850743
Pt       8.42164138       4.86223726      19.95723427        4      -0.00061019      -0.00000243       0.01770805
Pt       1.40360728       0.81037260      22.29206790        3      -0.00000679       0.00000641      -0.05359784
Pt       4.21082128       0.81037250      22.29206784        3      -0.00180515       0.00006422      -0.05182418
Pt       7.01803477       0.81037260      22.29206779        3       0.00145178      -0.00062976      -0.05208710
Pt       2.80721450       3.24149125      22.29206775        3      -0.00129603      -0.00093566      -0.05209513
Pt       5.61442762       3.24149123      22.29206790        3      -0.00000279       0.00000624      -0.04988297
Pt       8.42164156       3.24149116      22.29206805        3       0.00085009      -0.00158191      -0.05181022
Pt       4.21082094       5.67260998      22.29206797        3       0.00093669       0.00154277      -0.05180810
Pt       7.01803488       5.67261038      22.29206774        3      -0.00018106       0.00157925      -0.05207778
Pt       9.82524823       5.67261061      22.29206804        3       0.00000102      -0.00000786      -0.04672971
Pt      -0.00000056       1.62074572      24.58417389        2      -0.01355999       0.00515744       0.00175192
Pt       2.80721443       1.62074548      24.58417398        2       0.01125702       0.00919951       0.00176828
Pt       5.61442779       1.62074532      24.58417370        2      -0.00063592       0.00356217       0.03534356
Pt       1.40360636       4.05186439      24.58417390        2       0.00098666       0.00367327       0.01073781
Pt       4.21082088       4.05186401      24.58417381        2       0.00339015      -0.00119550       0.03536536
Pt       7.01803503       4.05186407      24.58417407        2      -0.00272629      -0.00232055       0.03537766
Pt       2.80721279       6.48298345      24.58417372        2      -0.00365470      -0.00100741       0.01070571
Pt       5.61442797       6.48298324      24.58417392        2       0.00234100      -0.01434212       0.00177780
Pt       8.42164222       6.48298343      24.58417383        2       0.00270971      -0.00267876       0.01073995
Pt       0.00206966       0.00094339      26.90729947        1      -0.02785964      -0.01060144       0.03994185
Pt       2.80538110       0.00130910      26.90730155        1       0.02311195      -0.01882167       0.03990354
Pt       5.61325902      -0.00089537      26.91170321        1       0.00482482       0.01335918       0.01378139
Pt       1.40340663       2.42886423      26.90730735        1       0.00473777       0.02939910       0.04001681
Pt       4.21031157       2.42997074      26.91719755        1       0.01525929       0.01270118      -0.00576006
Pt       7.01930219       2.43124162      26.91719622        1      -0.01865775       0.00684341      -0.00577628
Pt       2.80704091       4.86370749      26.91171213        1       0.00915147      -0.01087383       0.01397670
Pt       5.61370679       4.86326097      26.91720382        1       0.00336528      -0.01956697      -0.00569689
Pt       8.42301700       4.86166164      26.91171161        1      -0.01397721      -0.00252705       0.01393955
N        1.40356334       0.81030580      30.80529478        0       0.00000261       0.00001861      -0.01904774
H        0.50818574       1.13232990      30.41326001        0       0.03193630      -0.01287047       0.00951897
H        2.13007584       1.42472000      30.41315983        0      -0.02718156      -0.02126610       0.00953036
H        1.57233974      -0.12607236      30.41311887        0      -0.00475873       0.03411560       0.00951783
