40
Lattice="8.421641763931781 0.0 0.0 4.2108208819658905 7.293355709136913 0.0 0.0 0.0 46.87624170604845" Properties=species:S:1:pos:R:3:tags:I:1:forces:R:3 charge=0 spin=0 energy=-206.42906833609703 free_energy=-206.42906833609703 stress="0.010530579835176468 -4.537042297414473e-09 -8.648320282134137e-09 -4.537042297414473e-09 0.010530535131692886 -3.398017867084491e-08 -8.648320282134137e-09 -3.398017867084491e-08 -4.5735054300166667e-05" pbc="T T T"
Pt      -0.00000005       0.00000022      19.95723419        4      -0.00012442      -0.00009302       0.01871214
Pt       2.80721406      -0.00000018      19.95723436        4       0.00010576      -0.00011924       0.01848404
Pt       5.61442778      -0.00000006      19.95723442        4       0.00005080       0.00015682       0.01848193
Pt       1.40360717       2.43111838      19.95723425        4      -0.00011466      -0.00031870       0.01794844
Pt       4.21082080       2.43111835      19.95723435        4      -0.00015584      -0.00003277       0.01849240
Pt       7.01803478       2.43111843      19.95723423        4      -0.00022128       0.00025755       0.01795088
Pt       2.80721408       4.86223724      19.95723395        4       0.00014281      -0.00006975       0.01871526
Pt       5.61442803       4.86223730      19.95723413        4      -0.00001346       0.00014954       0.01870987
Pt       8.42164138       4.86223726      19.95723427        4       0.00033442       0.00005766       0.01794429
Pt       1.40360728       0.81037260      22.29206790        3      -0.00039587      -0.00027644      -0.05246280
Pt       4.21082128       0.81037250      22.29206784        3      -0.00000590       0.00000135      -0.05500228
Pt       7.01803477       0.81037260      22.29206779        3      -0.00044318      -0.00084072      -0.05223348
Pt       2.80721450       3.24149125      22.29206775        3       0.00093919       0.00002644      -0.05224396
Pt       5.61442762       3.24149123      22.29206790        3      -0.00003714       0.00047171      -0.05243942
Pt       8.42164156       3.24149116      22.29206805        3       0.00000552      -0.00000563      -0.04615689
Pt       4.21082094       5.67260998      22.29206797        3       0.00000091      -0.00000084      -0.05015320
Pt       7.01803488       5.67261038      22.29206774        3      -0.00050093       0.00079779      -0.05225595
Pt       9.82524823       5.67261061      22.29206804        3       0.00044510      -0.00021905      -0.05244028
Pt      -0.00000056       1.62074572      24.58417389        2       0.00001625       0.00897454       0.04872960
Pt       2.80721443       1.62074548      24.58417398        2      -0.00798019       0.00590711       0.04573483
Pt       5.61442779       1.62074532      24.58417370        2       0.00909173       0.00403955       0.04577422
Pt       1.40360636       4.05186439      24.58417390        2      -0.00778676      -0.00438678       0.04875571
Pt       4.21082088       4.05186401      24.58417381        2       0.00053562      -0.00194725       0.02940287
Pt       7.01803503       4.05186407      24.58417407        2       0.00772601      -0.00449606       0.04883360
Pt       2.80721279       6.48298345      24.58417372        2      -0.00199522       0.00053152       0.02929488
Pt       5.61442797       6.48298324      24.58417392        2       0.00145976       0.00140089       0.02933163
Pt       8.42164222       6.48298343      24.58417383        2      -0.00109419      -0.00988996       0.04573263
Pt       0.00051034       0.00031079      26.91509327        1      -0.00016304       0.00644520       0.00519271
Pt       2.80684928      -0.00036513      26.91505605        1       0.00364315       0.00103863       0.00024232
Pt       5.61491604      -0.00009431      26.91506273        1      -0.00266305       0.00259514       0.00023594
Pt       1.40308047       2.43198863      26.92230696        1       0.00140622      -0.00225658      -0.02925227
Pt       4.21067332       2.43164613      26.91508572        1      -0.00094806      -0.00367082       0.00015066
Pt       7.01902537       2.43116667      26.92234703        1      -0.00263005      -0.00009537      -0.02940108
Pt       2.80669582       4.86256749      26.91511444        1      -0.00550310      -0.00343426       0.00512533
Pt       5.61443345       4.86164713      26.91513793        1       0.00564380      -0.00302387       0.00503451
Pt       8.42116784       4.86137710      26.92234368        1       0.00122424       0.00232433      -0.02938970
N        4.21082155       5.67261080      30.99572007        0       0.00002233      -0.00005181      -0.00884921
H        5.02492358       5.18127703      30.60217152        0      -0.02691401       0.01637279       0.00310027
H        3.37826143       5.21324496      30.60217566        0       0.02761269       0.01512750       0.00309408
H        4.22927824       6.62331323      30.60218007        0      -0.00071604      -0.03144711       0.00307546
