40
Lattice="8.421641763931781 0.0 0.0 4.2108208819658905 7.293355709136913 0.0 0.0 0.0 46.87624170604845" Properties=species:S:1:pos:R:3:tags:I:1:forces:R:3 charge=0 spin=0 energy=-206.41990352591637 free_energy=-206.41990352591637 stress="0.010436445474624634 4.502707452047616e-05 9.126634722633753e-06 4.502707452047616e-05 0.010360945016145706 5.459188287204597e-06 9.126634722633753e-06 5.459188287204597e-06 -0.00026035335031338036" pbc="T T T"
Pt      -0.00000005       0.00000022      19.95723419        4      -0.00261353      -0.00165122       0.01827249
Pt       2.80721406      -0.00000018      19.95723436        4      -0.00200301      -0.00141354       0.01731250
Pt       5.61442778      -0.00000006      19.95723442        4      -0.00171386      -0.00214527       0.01850302
Pt       1.40360717       2.43111838      19.95723425        4      -0.00158982      -0.00154566       0.01724393
Pt       4.21082080       2.43111835      19.95723435        4      -0.00152349      -0.00157517       0.01819435
Pt       7.01803478       2.43111843      19.95723423        4      -0.00227721      -0.00129858       0.01867929
Pt       2.80721408       4.86223724      19.95723395        4      -0.00185127      -0.00113837       0.01843521
Pt       5.61442803       4.86223730      19.95723413        4      -0.00188395      -0.00193781       0.01874147
Pt       8.42164138       4.86223726      19.95723427        4      -0.00173273      -0.00159961       0.01860042
Pt       1.40360728       0.81037260      22.29206790        3      -0.01027112      -0.00619045      -0.05010682
Pt       4.21082128       0.81037250      22.29206784        3      -0.00732794      -0.00413415      -0.05111083
Pt       7.01803477       0.81037260      22.29206779        3      -0.00704822      -0.00480457      -0.05411518
Pt       2.80721450       3.24149125      22.29206775        3      -0.00756302      -0.00515791      -0.05168708
Pt       5.61442762       3.24149123      22.29206790        3      -0.00798973      -0.00525831      -0.04907443
Pt       8.42164156       3.24149116      22.29206805        3      -0.00853633      -0.00564760      -0.05138207
Pt       4.21082094       5.67260998      22.29206797        3      -0.00771892      -0.00510286      -0.05386016
Pt       7.01803488       5.67261038      22.29206774        3      -0.00997711      -0.00535840      -0.05149611
Pt       9.82524823       5.67261061      22.29206804        3      -0.00851715      -0.00486324      -0.04931501
Pt      -0.00000056       1.62074572      24.58417389        2       0.02306461       0.02120199       0.00598547
Pt       2.80721443       1.62074548      24.58417398        2       0.02426398       0.01598523       0.01432973
Pt       5.61442779       1.62074532      24.58417370        2       0.02395991       0.01459110       0.01837914
Pt       1.40360636       4.05186439      24.58417390        2       0.02194135       0.02432835       0.01722368
Pt       4.21082088       4.05186401      24.58417381        2       0.02333182       0.01380577       0.01766516
Pt       7.01803503       4.05186407      24.58417407        2       0.02307181       0.01669590       0.00702979
Pt       2.80721279       6.48298345      24.58417372        2       0.01514127       0.01021833       0.02260429
Pt       5.61442797       6.48298324      24.58417392        2       0.02877587       0.01201515       0.00655780
Pt       8.42164222       6.48298343      24.58417383        2       0.02855708       0.01168967       0.01876983
Pt       0.03177469       0.02043625      26.90626018        1      -0.01321978      -0.00947345       0.04138858
Pt       2.84211072       0.01761552      26.91039258        1      -0.02335470       0.01440859       0.02529151
Pt       5.64492807       0.02215287      26.91386391        1      -0.01064613      -0.02633131       0.01096240
Pt       1.43411388       2.45519422      26.90962772        1       0.00300976      -0.02971753       0.02749808
Pt       4.24338834       2.45244347      26.91423126        1      -0.02705509      -0.01668262       0.00729065
Pt       7.05047560       2.45017336      26.91315248        1      -0.01851328      -0.01192278       0.01508543
Pt       2.84046593       4.88114003      26.91364115        1      -0.02822166       0.00255462       0.01218752
Pt       5.64575832       4.88451951      26.91351870        1      -0.01729592      -0.01175924       0.01418919
Pt       8.44987533       4.87985811      26.91566151        1       0.01663851       0.01044978       0.00214580
N        6.41832527       3.70576601      30.73419403        0      -0.00656963      -0.00417884       0.02501507
H        6.48339820       4.69445736      30.46146780        0       0.01016941       0.01520925      -0.00638527
H        7.31015404       3.26838218      30.47055251        0       0.01924431       0.00128543      -0.00661159
H        5.69914549       3.28494816      30.13255605        0      -0.02415519      -0.01355051       0.00156293
