40
Lattice="8.421641763931781 0.0 0.0 4.2108208819658905 7.293355709136913 0.0 0.0 0.0 46.87624170604845" Properties=species:S:1:pos:R:3:tags:I:1:forces:R:3 charge=0 spin=0 energy=-206.99357295951012 free_energy=-206.99357295951012 stress="0.010039512068033218 2.2463812854311982e-07 1.1142611278103232e-08 2.2463812854311982e-07 0.010039507411420345 2.6182559054177545e-07 1.1142611278103232e-08 2.6182559054177545e-07 -0.0001772150571923703" pbc="T T T"
Pt      -0.00000005       0.00000022      19.95723419        4       0.00000291      -0.00000117       0.01846901
Pt       2.80721406      -0.00000018      19.95723436        4       0.00233756      -0.00445166       0.02108190
Pt       5.61442778      -0.00000006      19.95723442        4      -0.00131887      -0.00518167       0.02249303
Pt       1.40360717       2.43111838      19.95723425        4      -0.00382677       0.00373307       0.02245032
Pt       4.21082080       2.43111835      19.95723435        4       0.00000075       0.00000182       0.02428776
Pt       7.01803478       2.43111843      19.95723423        4       0.00268294       0.00425352       0.02109155
Pt       2.80721408       4.86223724      19.95723395        4      -0.00502237       0.00020046       0.02110828
Pt       5.61442803       4.86223730      19.95723413        4       0.00514248       0.00145411       0.02248009
Pt       8.42164138       4.86223726      19.95723427        4       0.00000116      -0.00000303      -0.04322791
Pt       1.40360728       0.81037260      22.29206790        3      -0.00037698      -0.00374766      -0.04462408
Pt       4.21082128       0.81037250      22.29206784        3       0.00083104      -0.00066538      -0.07546034
Pt       7.01803477       0.81037260      22.29206779        3       0.00339044       0.00158910      -0.04459256
Pt       2.80721450       3.24149125      22.29206775        3      -0.00104261      -0.00040895      -0.07535973
Pt       5.61442762       3.24149123      22.29206790        3       0.00020722       0.00109173      -0.07531881
Pt       8.42164156       3.24149116      22.29206805        3      -0.00266323       0.02619947      -0.08330696
Pt       4.21082094       5.67260998      22.29206797        3      -0.00301865       0.00217185      -0.04452982
Pt       7.01803488       5.67261038      22.29206774        3       0.02404069      -0.01081908      -0.08333555
Pt       9.82524823       5.67261061      22.29206804        3      -0.02136922      -0.01538450      -0.08335549
Pt      -0.00000056       1.62074572      24.58417389        2      -0.00369520      -0.15891203       0.24117240
Pt       2.80721443       1.62074548      24.58417398        2       0.00536393       0.01147696       0.01486256
Pt       5.61442779       1.62074532      24.58417370        2      -0.01269171      -0.00108030       0.01479020
Pt       1.40360636       4.05186439      24.58417390        2      -0.04418179       0.01502160      -0.06502320
Pt       4.21082088       4.05186401      24.58417381        2       0.00732091      -0.01040628       0.01464526
Pt       7.01803503       4.05186407      24.58417407        2       0.03516115       0.03074971      -0.06512721
Pt       2.80721279       6.48298345      24.58417372        2       0.13948534       0.07624481       0.24127893
Pt       5.61442797       6.48298324      24.58417392        2      -0.13577467       0.08264884       0.24125029
Pt       8.42164222       6.48298343      24.58417383        2       0.00900417      -0.04580496      -0.06488161
Pt      -0.00000071       0.00002052      26.99498372        1      -0.00000404      -0.00001206       0.03636143
Pt       2.82724881      -0.00176256      26.90590718        1       0.01816947       0.01119063      -0.00255277
Pt       5.59939170      -0.00123595      26.90866562        1      -0.03127531       0.01101894      -0.02090664
Pt       1.41006895       2.44473209      26.90866530        1       0.02524812       0.02164532      -0.02083622
Pt       4.21082455       2.43110860      26.92785441        1      -0.00000510       0.00000987      -0.01782232
Pt       7.00954431       2.44932855      26.90590164        1      -0.01881574       0.01019712      -0.00254797
Pt       2.79566847       4.84574485      26.90590768        1       0.00065668      -0.02126385      -0.00254779
Pt       5.62300136       4.84981142      26.90866439        1       0.00602318      -0.03254468      -0.02097800
Pt       8.42163789       4.86222515      26.92670190        1       0.00000895       0.00001813      -0.00936647
N       -0.00000213       0.00001843      29.15756411        0       0.00019427       0.00078703      -0.03633523
H       -0.48744586       0.84065744      29.49438480        0       0.02145700      -0.03719206       0.00096581
H        0.97178895       0.00194032      29.49423872        0      -0.04331248      -0.00140817       0.00136168
H       -0.48433789      -0.84252913      29.49409201        0       0.02166438       0.03758360       0.00188620
