40
Lattice="8.421641763931781 0.0 0.0 4.2108208819658905 7.293355709136913 0.0 0.0 0.0 46.87624170604845" Properties=species:S:1:pos:R:3:tags:I:1:forces:R:3 charge=0 spin=0 energy=-206.42440105399254 free_energy=-206.42440105399254 stress="0.010450365953147411 -1.017446720652515e-05 5.44683189218631e-06 -1.017446720652515e-05 0.010484146885573864 5.262996864985325e-07 5.44683189218631e-06 5.262996864985325e-07 -0.00012365443399176002" pbc="T T T"
Pt      -0.00000005       0.00000022      19.95723419        4       0.00047797       0.00070680       0.01828176
Pt       2.80721406      -0.00000018      19.95723436        4       0.00025590       0.00024334       0.01891973
Pt       5.61442778      -0.00000006      19.95723442        4       0.00024288       0.00043974       0.01851416
Pt       1.40360717       2.43111838      19.95723425        4       0.00002052       0.00051457       0.01831954
Pt       4.21082080       2.43111835      19.95723435        4       0.00000605      -0.00002467       0.01822599
Pt       7.01803478       2.43111843      19.95723423        4       0.00033511       0.00026865       0.01837654
Pt       2.80721408       4.86223724      19.95723395        4      -0.00004640       0.00046650       0.01775616
Pt       5.61442803       4.86223730      19.95723413        4       0.00051769      -0.00008081       0.01796808
Pt       8.42164138       4.86223726      19.95723427        4       0.00006543       0.00014550       0.01836583
Pt       1.40360728       0.81037260      22.29206790        3       0.00131109       0.00045273      -0.05298395
Pt       4.21082128       0.81037250      22.29206784        3       0.00098161       0.00079290      -0.05243440
Pt       7.01803477       0.81037260      22.29206779        3      -0.00019194       0.00076720      -0.05277938
Pt       2.80721450       3.24149125      22.29206775        3       0.00165381      -0.00064575      -0.05078543
Pt       5.61442762       3.24149123      22.29206790        3      -0.00024351       0.00035050      -0.05130943
Pt       8.42164156       3.24149116      22.29206805        3       0.00154811       0.00144944      -0.05136992
Pt       4.21082094       5.67260998      22.29206797        3       0.00184509       0.00230392      -0.04958801
Pt       7.01803488       5.67261038      22.29206774        3       0.00130695       0.00115610      -0.05094397
Pt       9.82524823       5.67261061      22.29206804        3       0.00050189       0.00284072      -0.05162252
Pt      -0.00000056       1.62074572      24.58417389        2      -0.00396466      -0.00242821       0.03361374
Pt       2.80721443       1.62074548      24.58417398        2      -0.00728436      -0.00470465       0.03763908
Pt       5.61442779       1.62074532      24.58417370        2       0.00138239       0.00291328       0.03308710
Pt       1.40360636       4.05186439      24.58417390        2       0.00169243      -0.00456943       0.03098943
Pt       4.21082088       4.05186401      24.58417381        2      -0.00183565      -0.00047922       0.02452517
Pt       7.01803503       4.05186407      24.58417407        2      -0.00503008      -0.00304110       0.03085635
Pt       2.80721279       6.48298345      24.58417372        2      -0.00021707      -0.00857706       0.02770486
Pt       5.61442797       6.48298324      24.58417392        2       0.00037756      -0.00463927       0.03206662
Pt       8.42164222       6.48298343      24.58417383        2      -0.00479951      -0.00205261       0.02658869
Pt      -0.00261773      -0.00444355      26.91246065        1      -0.00661463       0.00349349       0.00886107
Pt       2.80362107      -0.00435745      26.91709210        1       0.00339131       0.00683710      -0.00023085
Pt       5.61287645      -0.00364174      26.91318798        1       0.00072581       0.00067373       0.00306975
Pt       1.39810794       2.42769746      26.91658211        1       0.01580025      -0.00021179      -0.00249747
Pt       4.20778675       2.42758206      26.91435925        1       0.00408865      -0.00511131       0.00586760
Pt       7.01754952       2.42965829      26.91672935        1      -0.01419196      -0.01044803      -0.00367026
Pt       2.80457711       4.85486699      26.91544855        1      -0.00420338       0.01489513      -0.00018005
Pt       5.61039804       4.85750721      26.91547670        1       0.00601286       0.00247556       0.00086808
Pt       8.41776280       4.85931029      26.91425435        1       0.00397999       0.00243675       0.01053101
N        4.17822390       0.09933405      31.01007181        0       0.00059516       0.00832813       0.00934336
H        3.15085132       0.10552580      31.04912752        0      -0.01425586      -0.01659070       0.00102928
H        4.44465394       0.90765434      30.43303116        0       0.01810542       0.01053657      -0.00871461
H        4.44081837      -0.73543324      30.46974965        0      -0.00434304      -0.00188392      -0.00225879
