40
Lattice="8.421641763931781 0.0 0.0 4.2108208819658905 7.293355709136913 0.0 0.0 0.0 46.87624170604845" Properties=species:S:1:pos:R:3:tags:I:1:forces:R:3 charge=0 spin=0 energy=-206.4246776195443 free_energy=-206.4246776195443 stress="0.010460516437888145 -7.429527926205992e-08 1.3270975429691134e-08 -7.429527926205992e-08 0.0104604447260499 5.501342492664207e-09 1.3270975429691134e-08 5.501342492664207e-09 -0.0001549136795802042" pbc="T T T"
Pt      -0.00000005       0.00000022      19.95723419        4       0.00056052       0.00014200       0.01844889
Pt       2.80721406      -0.00000018      19.95723436        4      -0.00040545       0.00041436       0.01845379
Pt       5.61442778      -0.00000006      19.95723442        4      -0.00010766      -0.00000012       0.01891511
Pt       1.40360717       2.43111838      19.95723425        4      -0.00015483      -0.00055579       0.01845816
Pt       4.21082080       2.43111835      19.95723435        4      -0.00000532       0.00035108       0.01770018
Pt       7.01803478       2.43111843      19.95723423        4      -0.00030246      -0.00017915       0.01769838
Pt       2.80721408       4.86223724      19.95723395        4       0.00005012       0.00008752       0.01892550
Pt       5.61442803       4.86223730      19.95723413        4       0.00030563      -0.00017327       0.01769558
Pt       8.42164138       4.86223726      19.95723427        4       0.00005761      -0.00009441       0.01892800
Pt       1.40360728       0.81037260      22.29206790        3      -0.00000187      -0.00000329      -0.05018447
Pt       4.21082128       0.81037250      22.29206784        3       0.00032817      -0.00100716      -0.05300167
Pt       7.01803477       0.81037260      22.29206779        3      -0.00102648      -0.00067920      -0.05329319
Pt       2.80721450       3.24149125      22.29206775        3      -0.00007846       0.00122409      -0.05328136
Pt       5.61442762       3.24149123      22.29206790        3       0.00000271       0.00000217      -0.04381591
Pt       8.42164156       3.24149116      22.29206805        3       0.00070443       0.00079705      -0.05300936
Pt       4.21082094       5.67260998      22.29206797        3      -0.00103912       0.00021006      -0.05302885
Pt       7.01803488       5.67261038      22.29206774        3       0.00109141      -0.00055477      -0.05328897
Pt       9.82524823       5.67261061      22.29206804        3       0.00000460      -0.00001354      -0.05023564
Pt      -0.00000056       1.62074572      24.58417389        2      -0.00298209       0.00339882       0.02122304
Pt       2.80721443       1.62074548      24.58417398        2       0.00442739       0.00092054       0.02124124
Pt       5.61442779       1.62074532      24.58417370        2      -0.00046681       0.00638845       0.03448091
Pt       1.40360636       4.05186439      24.58417390        2       0.00155714       0.00357461       0.02715275
Pt       4.21082088       4.05186401      24.58417381        2       0.00576217      -0.00276402       0.03450697
Pt       7.01803503       4.05186407      24.58417407        2      -0.00528217      -0.00359159       0.03448693
Pt       2.80721279       6.48298345      24.58417372        2      -0.00383578      -0.00045298       0.02712050
Pt       5.61442797       6.48298324      24.58417392        2      -0.00144007      -0.00426619       0.02120496
Pt       8.42164222       6.48298343      24.58417383        2       0.00229954      -0.00312189       0.02712695
Pt       0.00044280       0.00055219      26.91304114        1      -0.00719302      -0.00726110       0.01611315
Pt       2.80653022       0.00011800      26.91304071        1       0.00987397      -0.00260386       0.01610765
Pt       5.61412832       0.00400743      26.91485029        1       0.00191839      -0.01857856      -0.00127731
Pt       1.40386220       2.43048307      26.91305140        1      -0.00267902       0.00988118       0.01618365
Pt       4.20630221       2.42941319      26.91604246        1       0.03216522       0.01566111      -0.00320067
Pt       7.02179180       2.42807413      26.91604423        1      -0.02966702       0.01999915      -0.00314499
Pt       2.81083073       4.86051794      26.91485541        1      -0.01701446       0.00761190      -0.00138081
Pt       5.61520849       4.86702553      26.91602807        1      -0.00252688      -0.03570433      -0.00330614
Pt       8.41834059       4.85998824      26.91485494        1       0.01510185       0.01094254      -0.00133089
N        9.82519956       5.67270276      30.74534880        0      -0.00005159      -0.00006564      -0.04116142
H        9.23165191       6.41515076      30.35081344        0       0.01493066      -0.01605076       0.01862168
H       10.76519328       5.81513323      30.35126639        0      -0.02120257      -0.00458515       0.01857458
H        9.47882264       4.78707790      30.35181997        0       0.00632176       0.02070020       0.01857306
