40
Lattice="8.421641763931781 0.0 0.0 4.2108208819658905 7.293355709136913 0.0 0.0 0.0 46.87624170604845" Properties=species:S:1:pos:R:3:tags:I:1:forces:R:3 charge=0 spin=0 energy=-206.42470813712242 free_energy=-206.42470813712242 stress="0.010460681281983852 1.4476004395191922e-08 1.0288320417828345e-08 1.4476004395191922e-08 0.01046066079288721 -6.589459200512238e-09 1.0288320417828345e-08 -6.589459200512238e-09 -0.00015598925529047847" pbc="T T T"
Pt      -0.00000005       0.00000022      19.95723419        4       0.00011397      -0.00009597       0.01889149
Pt       2.80721406      -0.00000018      19.95723436        4       0.00002431       0.00014326       0.01888731
Pt       5.61442778      -0.00000006      19.95723442        4       0.00021979      -0.00015713       0.01770956
Pt       1.40360717       2.43111838      19.95723425        4      -0.00013667      -0.00004691       0.01888860
Pt       4.21082080       2.43111835      19.95723435        4       0.00058116       0.00020560       0.01846579
Pt       7.01803478       2.43111843      19.95723423        4      -0.00046742       0.00040242       0.01847162
Pt       2.80721408       4.86223724      19.95723395        4      -0.00024836      -0.00011327       0.01772203
Pt       5.61442803       4.86223730      19.95723413        4      -0.00011503      -0.00060848       0.01847397
Pt       8.42164138       4.86223726      19.95723427        4       0.00003040       0.00026665       0.01772220
Pt       1.40360728       0.81037260      22.29206790        3      -0.00000193       0.00000013      -0.05007897
Pt       4.21082128       0.81037250      22.29206784        3      -0.00128777       0.00026468      -0.05259255
Pt       7.01803477       0.81037260      22.29206779        3       0.00097504      -0.00067093      -0.05381142
Pt       2.80721450       3.24149125      22.29206775        3      -0.00107770      -0.00050958      -0.05381605
Pt       5.61442762       3.24149123      22.29206790        3       0.00000473      -0.00000187      -0.05001959
Pt       8.42164156       3.24149116      22.29206805        3       0.00041826      -0.00124901      -0.05256963
Pt       4.21082094       5.67260998      22.29206797        3       0.00086911       0.00099107      -0.05256873
Pt       7.01803488       5.67261038      22.29206774        3       0.00009608       0.00117475      -0.05380179
Pt       9.82524823       5.67261061      22.29206804        3       0.00000739      -0.00000864      -0.04390963
Pt      -0.00000056       1.62074572      24.58417389        2       0.00194885      -0.00277266       0.02684530
Pt       2.80721443       1.62074548      24.58417398        2      -0.00338248      -0.00029804       0.02685133
Pt       5.61442779       1.62074532      24.58417370        2      -0.00076715      -0.00426153       0.02102852
Pt       1.40360636       4.05186439      24.58417390        2       0.00043817       0.00622293       0.03444049
Pt       4.21082088       4.05186401      24.58417381        2      -0.00333012       0.00281629       0.02105419
Pt       7.01803503       4.05186407      24.58417407        2       0.00408835       0.00149317       0.02105407
Pt       2.80721279       6.48298345      24.58417372        2      -0.00560454      -0.00275471       0.03444139
Pt       5.61442797       6.48298324      24.58417392        2       0.00141608       0.00308195       0.02687187
Pt       8.42164222       6.48298343      24.58417383        2       0.00517887      -0.00349107       0.03445124
Pt      -0.00365529      -0.00134780      26.91476436        1       0.01472787       0.00891672      -0.00090937
Pt       2.81021279      -0.00248009      26.91476285        1      -0.01507383       0.00830281      -0.00092370
Pt       5.61365123       0.00484595      26.91599766        1       0.00178600      -0.03537862      -0.00309711
Pt       1.40425707       2.43496522      26.91476635        1       0.00035235      -0.01723345      -0.00086312
Pt       4.21177073       2.43083794      26.91306962        1      -0.00910592      -0.00317420       0.01603641
Pt       7.01780236       2.43208809      26.91306624        1       0.00730040      -0.00630374       0.01600428
Pt       2.81179194       4.86049444      26.91601425        1      -0.03151004       0.01614685      -0.00294003
Pt       5.61370418       4.86156314      26.91307687        1       0.00179200       0.00950493       0.01610235
Pt       8.41783278       4.85915139      26.91601074        1       0.02974624       0.01919894      -0.00298464
N        1.40363209       0.81041419      30.74650530        0      -0.00003734       0.00002156      -0.04123491
H        1.99079693       1.55795168      30.35204251        0      -0.01456228      -0.01605806       0.01858483
H        1.75750385      -0.07200679      30.35245046        0      -0.00661069       0.02058353       0.01854225
H        0.46256213       0.94500688      30.35223610        0       0.02120401      -0.00455026       0.01858021
