40
Lattice="8.421641763931781 0.0 0.0 4.2108208819658905 7.293355709136913 0.0 0.0 0.0 46.87624170604845" Properties=species:S:1:pos:R:3:tags:I:1:forces:R:3 charge=0 spin=0 energy=-206.42404628714684 free_energy=-206.42404628714684 stress="0.010470204055309296 8.235673476519878e-09 -5.818019399583818e-10 8.235673476519878e-09 0.010470212437212467 1.506056945821399e-09 -5.818019399583818e-10 1.506056945821399e-09 -0.00011069735774071887" pbc="T T T"
Pt      -0.00000005       0.00000022      19.95723419        4      -0.00025148       0.00028395       0.01775697
Pt       2.80721406      -0.00000018      19.95723436        4       0.00043448      -0.00056156       0.01859020
Pt       5.61442778      -0.00000006      19.95723442        4      -0.00070785      -0.00009372       0.01858676
Pt       1.40360717       2.43111838      19.95723425        4      -0.00012019      -0.00036155       0.01776102
Pt       4.21082080       2.43111835      19.95723435        4      -0.00000602       0.00011908       0.01876445
Pt       7.01803478       2.43111843      19.95723423        4       0.00037368       0.00007757       0.01775884
Pt       2.80721408       4.86223724      19.95723395        4       0.00010825      -0.00005528       0.01876507
Pt       5.61442803       4.86223730      19.95723413        4      -0.00010112      -0.00006868       0.01875748
Pt       8.42164138       4.86223726      19.95723427        4       0.00027088       0.00065874       0.01859185
Pt       1.40360728       0.81037260      22.29206790        3       0.00113454      -0.00036166      -0.04933237
Pt       4.21082128       0.81037250      22.29206784        3       0.00059605       0.00060307      -0.05261089
Pt       7.01803477       0.81037260      22.29206779        3      -0.00088133      -0.00080911      -0.04932139
Pt       2.80721450       3.24149125      22.29206775        3       0.00094085       0.00009791      -0.05254056
Pt       5.61442762       3.24149123      22.29206790        3      -0.00054892       0.00077307      -0.05254595
Pt       8.42164156       3.24149116      22.29206805        3      -0.00025157       0.00117329      -0.04934369
Pt       4.21082094       5.67260998      22.29206797        3      -0.00039779      -0.00086663      -0.05254139
Pt       7.01803488       5.67261038      22.29206774        3      -0.00082160       0.00021614      -0.05263098
Pt       9.82524823       5.67261061      22.29206804        3       0.00022623      -0.00082624      -0.05262021
Pt      -0.00000056       1.62074572      24.58417389        2       0.00000029      -0.00000890       0.02814506
Pt       2.80721443       1.62074548      24.58417398        2      -0.00086483      -0.00400845       0.03241057
Pt       5.61442779       1.62074532      24.58417370        2       0.00274605      -0.00367906       0.03164153
Pt       1.40360636       4.05186439      24.58417390        2      -0.00455415      -0.00053333       0.03158275
Pt       4.21082088       4.05186401      24.58417381        2       0.00000579      -0.00000140       0.02676788
Pt       7.01803503       4.05186407      24.58417407        2       0.00389160       0.00126729       0.03239867
Pt       2.80721279       6.48298345      24.58417372        2      -0.00302287       0.00274101       0.03243323
Pt       5.61442797       6.48298324      24.58417392        2       0.00181612       0.00421565       0.03163822
Pt       8.42164222       6.48298343      24.58417383        2      -0.00001191       0.00001123       0.05512514
Pt       0.00049834      -0.00145831      26.91487199        1      -0.00095259       0.01002725       0.00458616
Pt       2.80521415       0.00108002      26.91857669        1       0.01375586      -0.00779781      -0.01191909
Pt       5.61636138       0.00119668      26.91857415        1      -0.01363685      -0.00801760      -0.01195474
Pt       1.40462196       2.43228014      26.91486232        1      -0.00823126      -0.00584333       0.00451371
Pt       4.21054962       2.42784828      26.91440601        1      -0.00060745       0.01024023       0.00215602
Pt       7.01652153       2.43141700      26.91486092        1       0.00919951      -0.00420340       0.00446950
Pt       2.80451459       4.86410942      26.91439801        1       0.00913373      -0.00458592       0.00212067
Pt       5.61739947       4.86363785      26.91440034        1      -0.00853245      -0.00563646       0.00212582
Pt       8.42170973       4.85996458      26.91855562        1      -0.00013587       0.01581061      -0.01205302
N        4.21081955       4.05186082      30.77664379        0      -0.00001796      -0.00001583      -0.02699221
H        3.39284306       3.57054853      30.38033641        0      -0.01055926      -0.00635535       0.01299537
H        4.20297750       5.00090856      30.38034701        0      -0.00022316       0.01235629       0.01297993
H        5.03663876       3.58413192      30.38033944        0       0.01080434      -0.00598109       0.01298381
