40
Lattice="8.421641763931781 0.0 0.0 4.2108208819658905 7.293355709136913 0.0 0.0 0.0 46.87624170604845" Properties=species:S:1:pos:R:3:tags:I:1:forces:R:3 charge=0 spin=0 energy=-206.99316860159996 free_energy=-206.99316860159996 stress="0.009991060942411423 -7.486649167276482e-08 4.1204830658614355e-09 -7.486649167276482e-08 0.009991079568862915 -7.218394415531293e-08 4.1204830658614355e-09 -7.218394415531293e-08 -0.0002684257342480123" pbc="T T T"
Pt      -0.00000005       0.00000022      19.95723419        4       0.00538328       0.00172832       0.02207309
Pt       2.80721406      -0.00000018      19.95723436        4      -0.00000160       0.00000348      -0.04364539
Pt       5.61442778      -0.00000006      19.95723442        4      -0.00519695       0.00036368       0.02143461
Pt       1.40360717       2.43111838      19.95723425        4       0.00229159      -0.00467955       0.02141455
Pt       4.21082080       2.43111835      19.95723435        4      -0.00119784      -0.00552370       0.02209657
Pt       7.01803478       2.43111843      19.95723423        4      -0.00000149       0.00000126       0.01868137
Pt       2.80721408       4.86223724      19.95723395        4       0.00000137      -0.00000398       0.02407703
Pt       5.61442803       4.86223730      19.95723413        4       0.00290299       0.00431798       0.02142615
Pt       8.42164138       4.86223726      19.95723427        4      -0.00418022       0.00379221       0.02204303
Pt       1.40360728       0.81037260      22.29206790        3       0.02484324      -0.01226735      -0.08342191
Pt       4.21082128       0.81037250      22.29206784        3      -0.02303734      -0.01533892      -0.08343451
Pt       7.01803477       0.81037260      22.29206779        3      -0.00222675       0.00139428      -0.04416654
Pt       2.80721450       3.24149125      22.29206775        3       0.00208862      -0.00088452      -0.07722413
Pt       5.61442762       3.24149123      22.29206790        3       0.00233266       0.00128936      -0.04422113
Pt       8.42164156       3.24149116      22.29206805        3      -0.00009847      -0.00268647      -0.04425804
Pt       4.21082094       5.67260998      22.29206797        3      -0.00024787       0.00228967      -0.07707509
Pt       7.01803488       5.67261038      22.29206774        3      -0.00181165       0.02760904      -0.08337313
Pt       9.82524823       5.67261061      22.29206804        3      -0.00184101      -0.00140930      -0.07712694
Pt      -0.00000056       1.62074572      24.58417389        2      -0.13679434       0.08390848       0.24664667
Pt       2.80721443       1.62074548      24.58417398        2       0.00168206      -0.04921089      -0.07091204
Pt       5.61442779       1.62074532      24.58417370        2       0.14104383       0.07659551       0.24668422
Pt       1.40360636       4.05186439      24.58417390        2       0.00150028       0.00547183       0.00148475
Pt       4.21082088       4.05186401      24.58417381        2      -0.00557033      -0.00144473       0.00141850
Pt       7.01803503       4.05186407      24.58417407        2      -0.00424438      -0.16046050       0.24666783
Pt       2.80721279       6.48298345      24.58417372        2       0.00408290      -0.00407798       0.00123760
Pt       5.61442797       6.48298324      24.58417392        2       0.04179862       0.02611623      -0.07119595
Pt       8.42164222       6.48298343      24.58417383        2      -0.04350222       0.02307714      -0.07107631
Pt       0.01051209      -0.01778948      26.90627844        1      -0.00163535      -0.00318272      -0.00813995
Pt       2.80721222      -0.00000509      26.92739910        1       0.00000145       0.00001226      -0.00605567
Pt       5.60370030      -0.01724433      26.90691312        1       0.00108575      -0.00254557      -0.00895219
Pt       1.42391245       2.43045370      26.90693648        1       0.00163978       0.00222497      -0.00905039
Pt       4.19014909       2.43090581      26.90630095        1      -0.00192511       0.00298969      -0.00816309
Pt       7.01803668       2.43112300      26.99559092        1      -0.00000556      -0.00000303      -0.02638907
Pt       2.80721456       4.86223758      26.92158851        1       0.00000659      -0.00000432       0.00524965
Pt       5.60485004       4.88014554      26.90691947        1      -0.00271291       0.00033483      -0.00901161
Pt       8.43180721       4.88023882      26.90629350        1       0.00354608       0.00019995      -0.00808260
N        7.01803477       2.43111755      29.14730237        0       0.00002189       0.00000993       0.02694073
H        6.17771640       1.94666343      29.48723148        0       0.00631160       0.00362568       0.00180095
H        7.01864491       3.40108236      29.48723147        0      -0.00001663      -0.00729483       0.00180262
H        7.85774455       1.94560758      29.48723187        0      -0.00631646       0.00366268       0.00179557
