40
Lattice="8.421641763931781 0.0 0.0 4.2108208819658905 7.293355709136913 0.0 0.0 0.0 46.87624170604845" Properties=species:S:1:pos:R:3:tags:I:1:forces:R:3 charge=0 spin=0 energy=-206.42115856131676 free_energy=-206.42115856131676 stress="0.010508610866963863 6.348494935082272e-05 1.3271103853185195e-05 6.348494935082272e-05 0.01040952280163765 6.574362032552017e-06 1.3271103853185195e-05 6.574362032552017e-06 -0.00017749467224348336" pbc="T T T"
Pt      -0.00000005       0.00000022      19.95723419        4      -0.00236704      -0.00163755       0.01840438
Pt       2.80721406      -0.00000018      19.95723436        4      -0.00240730      -0.00197882       0.01881695
Pt       5.61442778      -0.00000006      19.95723442        4      -0.00223679      -0.00191538       0.01860695
Pt       1.40360717       2.43111838      19.95723425        4      -0.00292716      -0.00178069       0.01846467
Pt       4.21082080       2.43111835      19.95723435        4      -0.00248446      -0.00185787       0.01730568
Pt       7.01803478       2.43111843      19.95723423        4      -0.00234509      -0.00232195       0.01842974
Pt       2.80721408       4.86223724      19.95723395        4      -0.00209552      -0.00178715       0.01725559
Pt       5.61442803       4.86223730      19.95723413        4      -0.00223631      -0.00204118       0.01839359
Pt       8.42164138       4.86223726      19.95723427        4      -0.00249215      -0.00173480       0.01876799
Pt       1.40360728       0.81037260      22.29206790        3      -0.00992902      -0.00621210      -0.05403708
Pt       4.21082128       0.81037250      22.29206784        3      -0.01190576      -0.00653798      -0.05139465
Pt       7.01803477       0.81037260      22.29206779        3      -0.01054933      -0.00573273      -0.05110653
Pt       2.80721450       3.24149125      22.29206775        3      -0.01224732      -0.00710930      -0.04806568
Pt       5.61442762       3.24149123      22.29206790        3      -0.00901037      -0.00520795      -0.05100253
Pt       8.42164156       3.24149116      22.29206805        3      -0.00931040      -0.00589323      -0.05427470
Pt       4.21082094       5.67260998      22.29206797        3      -0.00955787      -0.00594845      -0.05146858
Pt       7.01803488       5.67261038      22.29206774        3      -0.01001699      -0.00618962      -0.05050213
Pt       9.82524823       5.67261061      22.29206804        3      -0.01092047      -0.00620709      -0.05107695
Pt      -0.00000056       1.62074572      24.58417389        2       0.02875790       0.01716372       0.03396387
Pt       2.80721443       1.62074548      24.58417398        2       0.03072261       0.01804403       0.02633331
Pt       5.61442779       1.62074532      24.58417370        2       0.02896772       0.01746550       0.02237868
Pt       1.40360636       4.05186439      24.58417390        2       0.02965046       0.01974349       0.02645885
Pt       4.21082088       4.05186401      24.58417381        2       0.02841109       0.01813350       0.02135441
Pt       7.01803503       4.05186407      24.58417407        2       0.02864020       0.01695120       0.02863927
Pt       2.80721279       6.48298345      24.58417372        2       0.02744748       0.02042455       0.02146495
Pt       5.61442797       6.48298324      24.58417392        2       0.02760183       0.01594093       0.02815489
Pt       8.42164222       6.48298343      24.58417383        2       0.03153690       0.02013539       0.01382151
Pt       0.03877098       0.02344426      26.91497790        1      -0.00612590       0.00055486       0.00762943
Pt       2.84765561       0.02445829      26.91389692        1      -0.02564562      -0.00111761       0.01237168
Pt       5.65429574       0.02359820      26.91647414        1      -0.01085405      -0.00593499       0.00146478
Pt       1.44428734       2.45592650      26.91352084        1      -0.01910730      -0.01259292       0.00687657
Pt       4.25414102       2.45498060      26.91394534        1      -0.03388856      -0.00311664       0.01306472
Pt       7.05581889       2.45496296      26.91508721        1      -0.00166272      -0.00689821       0.00730325
Pt       2.84791127       4.88934361      26.91344741        1      -0.01752971      -0.02869319       0.01409617
Pt       5.65313050       4.88643453      26.91719138        1      -0.01587143      -0.00965598      -0.00435221
Pt       8.46130505       4.88657630      26.91412039        1      -0.01355767      -0.02270858       0.01172446
N        7.71612362       6.07542754      30.76951692        0       0.00120716       0.00110032       0.03978161
H        7.75511415       7.04674861      30.43596889        0      -0.01234402       0.00177111      -0.01447348
H        8.58017362       5.62006193      30.44964914        0      -0.00454197      -0.01199713      -0.01509750
H        6.93915012       5.62145586      30.27244860        0       0.01322494       0.00738096      -0.00447607
