40
Lattice="8.421641763931781 0.0 0.0 4.2108208819658905 7.293355709136913 0.0 0.0 0.0 46.87624170604845" Properties=species:S:1:pos:R:3:tags:I:1:forces:R:3 charge=0 spin=0 energy=-206.4241836162484 free_energy=-206.4241836162484 stress="0.010427366942167282 -7.055453465909522e-08 2.7248951539604604e-08 -7.055453465909522e-08 0.010427683591842651 3.0839186759834547e-09 2.7248951539604604e-08 3.0839186759834547e-09 -0.00018109235679730773" pbc="T T T"
Pt      -0.00000005       0.00000022      19.95723419        4      -0.00037073       0.00024273       0.01847433
Pt       2.80721406      -0.00000018      19.95723436        4      -0.00002694      -0.00045557       0.01782612
Pt       5.61442778      -0.00000006      19.95723442        4      -0.00002732      -0.00044454       0.01846191
Pt       1.40360717       2.43111838      19.95723425        4      -0.00038216       0.00025113       0.01782614
Pt       4.21082080       2.43111835      19.95723435        4       0.00041023       0.00020993       0.01782824
Pt       7.01803478       2.43111843      19.95723423        4      -0.00014095      -0.00006833       0.01858218
Pt       2.80721408       4.86223724      19.95723395        4       0.00040245       0.00020351       0.01846390
Pt       5.61442803       4.86223730      19.95723413        4       0.00001101       0.00015552       0.01857539
Pt       8.42164138       4.86223726      19.95723427        4       0.00012884      -0.00008966       0.01856801
Pt       1.40360728       0.81037260      22.29206790        3      -0.00049637      -0.00053632      -0.05201552
Pt       4.21082128       0.81037250      22.29206784        3       0.00071186      -0.00015574      -0.05201805
Pt       7.01803477       0.81037260      22.29206779        3       0.00038439      -0.00009087      -0.05302303
Pt       2.80721450       3.24149125      22.29206775        3      -0.00022184       0.00071186      -0.05204632
Pt       5.61442762       3.24149123      22.29206790        3      -0.00040770      -0.00081865      -0.04916108
Pt       8.42164156       3.24149116      22.29206805        3       0.00092899       0.00006064      -0.04916658
Pt       4.21082094       5.67260998      22.29206797        3      -0.00026819      -0.00027562      -0.05305250
Pt       7.01803488       5.67261038      22.29206774        3      -0.00051104       0.00076844      -0.04916017
Pt       9.82524823       5.67261061      22.29206804        3      -0.00010357       0.00036543      -0.05306311
Pt      -0.00000056       1.62074572      24.58417389        2       0.00250584       0.01034431       0.03223671
Pt       2.80721443       1.62074548      24.58417398        2      -0.00000128      -0.00003960       0.03944569
Pt       5.61442779       1.62074532      24.58417370        2      -0.00080331       0.00786445       0.02634128
Pt       1.40360636       4.05186439      24.58417390        2      -0.00643607      -0.00462775       0.02630690
Pt       4.21082088       4.05186401      24.58417381        2       0.00771103      -0.00736273       0.03220276
Pt       7.01803503       4.05186407      24.58417407        2      -0.00001150      -0.00000872       0.00449674
Pt       2.80721279       6.48298345      24.58417372        2      -0.00000314       0.00002366      -0.00338239
Pt       5.61442797       6.48298324      24.58417392        2       0.00722152      -0.00325804       0.02635260
Pt       8.42164222       6.48298343      24.58417383        2      -0.01023829      -0.00300321       0.03227106
Pt      -0.00241553      -0.00094414      26.90693990        1       0.02264624       0.01414663       0.03501454
Pt       2.80533260      -0.00111064      26.91771345        1       0.01117634       0.01801665      -0.01122353
Pt       5.61643426      -0.00162391      26.90694872        1      -0.02358948       0.01254303       0.03496506
Pt       1.40358178       2.43326858      26.91767740        1       0.01005823      -0.01863392      -0.01110179
Pt       4.21269806       2.43003897      26.91768423        1      -0.02118660       0.00063527      -0.01111445
Pt       7.01584858       2.43656891      26.91684658        1       0.01009926      -0.04354336       0.00001302
Pt       2.80760049       4.86478404      26.90691256        1       0.00089792      -0.02669829       0.03513661
Pt       5.62023590       4.86138474      26.91684403        1      -0.04274862       0.01303881       0.00005967
Pt       8.41799246       4.85761088      26.91684379        1       0.03267497       0.03052832       0.00003098
N        7.01808827       4.05190500      30.82377939        0      -0.00029458       0.00009151      -0.00667157
H        7.21318593       4.98085701      30.42841516        0       0.00496456       0.01478893       0.00558120
H        7.72494505       3.41844988      30.42830026        0       0.01093055      -0.01134361       0.00549521
H        6.11605402       3.75647558      30.42834345        0      -0.01559483      -0.00353610       0.00564388
