40
Lattice="8.421641763931781 0.0 0.0 4.2108208819658905 7.293355709136913 0.0 0.0 0.0 46.87624170604845" Properties=species:S:1:pos:R:3:tags:I:1:forces:R:3 charge=0 spin=0 energy=-206.42439723929527 free_energy=-206.42439723929527 stress="0.010466867126524448 1.9500188500387594e-05 -3.4286194932064973e-06 1.9500188500387594e-05 0.010467995889484882 4.718692252936307e-06 -3.4286194932064973e-06 4.718692252936307e-06 -0.000123342833830975" pbc="T T T"
Pt      -0.00000005       0.00000022      19.95723419        4      -0.00018898       0.00048801       0.01796893
Pt       2.80721406      -0.00000018      19.95723436        4       0.00001842       0.00001995       0.01822601
Pt       5.61442778      -0.00000006      19.95723442        4      -0.00033766       0.00010152       0.01891032
Pt       1.40360717       2.43111838      19.95723425        4      -0.00040079       0.00016449       0.01837798
Pt       4.21082080       2.43111835      19.95723435        4      -0.00049964      -0.00000570       0.01852531
Pt       7.01803478       2.43111843      19.95723423        4      -0.00016412      -0.00001612       0.01835811
Pt       2.80721408       4.86223724      19.95723395        4      -0.00084830       0.00005035       0.01828894
Pt       5.61442803       4.86223730      19.95723413        4      -0.00038545      -0.00028144       0.01775629
Pt       8.42164138       4.86223726      19.95723427        4      -0.00045309      -0.00024680       0.01831770
Pt       1.40360728       0.81037260      22.29206790        3      -0.00018421      -0.00038455      -0.05132109
Pt       4.21082128       0.81037250      22.29206784        3      -0.00118192       0.00046672      -0.05246041
Pt       7.01803477       0.81037260      22.29206779        3      -0.00166113       0.00055149      -0.05097674
Pt       2.80721450       3.24149125      22.29206775        3      -0.00056264      -0.00056058      -0.05275814
Pt       5.61442762       3.24149123      22.29206790        3      -0.00271570      -0.00101221      -0.05165232
Pt       8.42164156       3.24149116      22.29206805        3      -0.00202896       0.00060789      -0.05135603
Pt       4.21082094       5.67260998      22.29206797        3      -0.00291012       0.00045222      -0.04957387
Pt       7.01803488       5.67261038      22.29206774        3      -0.00028276       0.00176288      -0.05077934
Pt       9.82524823       5.67261061      22.29206804        3      -0.00103797       0.00090359      -0.05294477
Pt      -0.00000056       1.62074572      24.58417389        2       0.00520619      -0.00274346       0.03084763
Pt       2.80721443       1.62074548      24.58417398        2      -0.00324632      -0.00017520       0.03312477
Pt       5.61442779       1.62074532      24.58417370        2       0.00417656      -0.00311066       0.02667327
Pt       1.40360636       4.05186439      24.58417390        2       0.00405143      -0.00216588       0.03376922
Pt       4.21082088       4.05186401      24.58417381        2       0.00747935       0.00410685       0.02776937
Pt       7.01803503       4.05186407      24.58417407        2       0.00321194       0.00379377       0.03105829
Pt       2.80721279       6.48298345      24.58417372        2       0.00380318       0.00257561       0.03209749
Pt       5.61442797       6.48298324      24.58417392        2       0.00131836      -0.00140546       0.02442965
Pt       8.42164222       6.48298343      24.58417383        2       0.00774288      -0.00404229       0.03772075
Pt       0.00610482      -0.00111753      26.91542050        1      -0.00509056       0.00395601       0.00087587
Pt       2.81177686      -0.00085152      26.91431091        1       0.00240968       0.00615249       0.00588506
Pt       5.62000910      -0.00092259      26.91710081        1      -0.00768923      -0.00040238      -0.00026940
Pt       1.40511331       2.43147639      26.91676631        1       0.01618223      -0.00723727      -0.00389602
Pt       4.21475943       2.43160758      26.91320214        1      -0.00097518       0.00019956       0.00308947
Pt       7.02255132       2.42924967      26.91424903        1      -0.00421311       0.00216432       0.01051348
Pt       2.81234403       4.86219325      26.91251335        1       0.00042414      -0.00744220       0.00887994
Pt       5.62213879       4.86361365      26.91543984        1      -0.01083282      -0.01095624      -0.00008929
Pt       8.42736128       4.85922074      26.91667863        1      -0.00774300       0.01378031      -0.00277646
N        4.84285803       1.13781815      31.01042057        0      -0.00740310      -0.00358644       0.00950239
H        5.35109484       0.24496703      31.04998826        0       0.02152471      -0.00415304       0.00104935
H        4.00966687       0.96417184      30.43337992        0      -0.01827819       0.01041138      -0.00885169
H        5.43461687       1.78227605      30.46983163        0       0.00376572      -0.00278137      -0.00231015
