40
Lattice="8.421641763931781 0.0 0.0 4.2108208819658905 7.293355709136913 0.0 0.0 0.0 46.87624170604845" Properties=species:S:1:pos:R:3:tags:I:1:forces:R:3 charge=0 spin=0 energy=-206.42696071585777 free_energy=-206.42696071585777 stress="0.010526470839977264 -7.243875757012574e-07 5.563941130048988e-08 -7.243875757012574e-07 0.010525775142014027 1.0920753084064927e-06 5.563941130048988e-08 1.0920753084064927e-06 -2.2513451767736115e-05" pbc="T T T"
Pt      -0.00000005       0.00000022      19.95723419        4      -0.00034407       0.00018186       0.01802113
Pt       2.80721406      -0.00000018      19.95723436        4       0.00000246      -0.00039765       0.01800973
Pt       5.61442778      -0.00000006      19.95723442        4      -0.00015555      -0.00008128       0.01847166
Pt       1.40360717       2.43111838      19.95723425        4       0.00034171       0.00021061       0.01800339
Pt       4.21082080       2.43111835      19.95723435        4       0.00006726      -0.00006336       0.01873199
Pt       7.01803478       2.43111843      19.95723423        4       0.00002566       0.00009421       0.01873019
Pt       2.80721408       4.86223724      19.95723395        4       0.00001235       0.00018290       0.01847720
Pt       5.61442803       4.86223730      19.95723413        4      -0.00009510      -0.00002283       0.01871193
Pt       8.42164138       4.86223726      19.95723427        4       0.00015730      -0.00010235       0.01847132
Pt       1.40360728       0.81037260      22.29206790        3       0.00002887       0.00003319      -0.04621338
Pt       4.21082128       0.81037250      22.29206784        3       0.00097633       0.00028775      -0.05237908
Pt       7.01803477       0.81037260      22.29206779        3      -0.00025259       0.00060510      -0.05213073
Pt       2.80721450       3.24149125      22.29206775        3       0.00062850      -0.00011599      -0.05213663
Pt       5.61442762       3.24149123      22.29206790        3       0.00001893       0.00002021      -0.05151266
Pt       8.42164156       3.24149116      22.29206805        3      -0.00072478       0.00069228      -0.05237664
Pt       4.21082094       5.67260998      22.29206797        3      -0.00021752      -0.00104800      -0.05233176
Pt       7.01803488       5.67261038      22.29206774        3      -0.00041579      -0.00052068      -0.05217516
Pt       9.82524823       5.67261061      22.29206804        3      -0.00000194      -0.00001890      -0.05452613
Pt      -0.00000056       1.62074572      24.58417389        2       0.00884556      -0.00436358       0.05321493
Pt       2.80721443       1.62074548      24.58417398        2      -0.00830585      -0.00543483       0.05307753
Pt       5.61442779       1.62074532      24.58417370        2       0.00092535      -0.00390386       0.02997561
Pt       1.40360636       4.05186439      24.58417390        2      -0.00104803      -0.00976572       0.05034224
Pt       4.21082088       4.05186401      24.58417381        2      -0.00406511       0.00113294       0.02957209
Pt       7.01803503       4.05186407      24.58417407        2       0.00317244       0.00247676       0.02964621
Pt       2.80721279       6.48298345      24.58417372        2       0.00895206       0.00408249       0.05043650
Pt       5.61442797       6.48298324      24.58417392        2      -0.00072625       0.01023594       0.05265851
Pt       8.42164222       6.48298343      24.58417383        2      -0.00785328       0.00581876       0.05035716
Pt       0.00041643       0.00087170      26.92338456        1      -0.00033159      -0.00148696      -0.03343135
Pt       2.80628080       0.00003691      26.92332587        1       0.00169448       0.00082601      -0.03323399
Pt       5.61404472       0.00045528      26.91623565        1       0.00030557      -0.00471735      -0.00416038
Pt       1.40405624       2.43035293      26.92336972        1      -0.00130266       0.00106553      -0.03322667
Pt       4.21132143       2.43166759      26.91503033        1      -0.01288832      -0.00688611       0.00557556
Pt       7.01733365       2.43130978      26.91512419        1       0.01240525      -0.00760784       0.00532918
Pt       2.80769620       4.86239222      26.91618546        1      -0.00415305       0.00202358      -0.00396723
Pt       5.61460999       4.86163016      26.91479682        1       0.00047180       0.01446494       0.00640015
Pt       8.42146337       4.86173051      26.91619071        1       0.00388923       0.00264925      -0.00398197
N        5.61445807       3.24678324      31.01035007        0       0.00021557      -0.00156067       0.03014529
H        6.56428238       3.23505824      30.61733092        0       0.00904217       0.00024784      -0.01149437
H        5.13579038       2.41937308      30.63218729        0      -0.00727517      -0.00755049      -0.01114690
H        5.14322857       4.06430091      30.60243069        0      -0.00202188       0.00831673      -0.01193468
