40
Lattice="8.421641763931781 0.0 0.0 4.2108208819658905 7.293355709136913 0.0 0.0 0.0 46.87624170604845" Properties=species:S:1:pos:R:3:tags:I:1:forces:R:3 charge=0 spin=0 energy=-206.99357105216149 free_energy=-206.99357105216149 stress="0.01003948599100113 -3.129367200926936e-07 1.6474569264346428e-08 -3.129367200926936e-07 0.010039602406322956 -5.349926368580782e-07 1.6474569264346428e-08 -5.349926368580782e-07 -0.0001778335135895759" pbc="T T T"
Pt      -0.00000005       0.00000022      19.95723419        4       0.00000412      -0.00000125      -0.04318065
Pt       2.80721406      -0.00000018      19.95723436        4      -0.00505233       0.00015762       0.02178565
Pt       5.61442778      -0.00000006      19.95723442        4       0.00520571       0.00162108       0.02170560
Pt       1.40360717       2.43111838      19.95723425        4      -0.00120733      -0.00532013       0.02173925
Pt       4.21082080       2.43111835      19.95723435        4       0.00000105       0.00000249       0.01864844
Pt       7.01803478       2.43111843      19.95723423        4       0.00239204      -0.00445175       0.02175802
Pt       2.80721408       4.86223724      19.95723395        4       0.00265732       0.00429490       0.02176968
Pt       5.61442803       4.86223730      19.95723413        4      -0.00400270       0.00370008       0.02168493
Pt       8.42164138       4.86223726      19.95723427        4       0.00000125      -0.00000379       0.02433407
Pt       1.40360728       0.81037260      22.29206790        3      -0.02235153      -0.01353005      -0.08325507
Pt       4.21082128       0.81037250      22.29206784        3      -0.00146907       0.00156454      -0.04442334
Pt       7.01803477       0.81037260      22.29206779        3       0.02293717      -0.01257380      -0.08324353
Pt       2.80721450       3.24149125      22.29206775        3       0.00208426       0.00055284      -0.04447709
Pt       5.61442762       3.24149123      22.29206790        3      -0.00062016      -0.00210834      -0.04451986
Pt       8.42164156       3.24149116      22.29206805        3       0.00309355      -0.00081310      -0.07580134
Pt       4.21082094       5.67260998      22.29206797        3      -0.00058980       0.02610857      -0.08317410
Pt       7.01803488       5.67261038      22.29206774        3      -0.00228515      -0.00230179      -0.07569291
Pt       9.82524823       5.67261061      22.29206804        3      -0.00080085       0.00309578      -0.07563742
Pt      -0.00000056       1.62074572      24.58417389        2      -0.00433108      -0.04537197      -0.06467470
Pt       2.80721443       1.62074548      24.58417398        2       0.13988811       0.07519414       0.24116053
Pt       5.61442779       1.62074532      24.58417370        2      -0.13500614       0.08362544       0.24113411
Pt       1.40360636       4.05186439      24.58417390        2      -0.00912009       0.00441980       0.01487545
Pt       4.21082088       4.05186401      24.58417381        2      -0.00488750      -0.15885210       0.24140483
Pt       7.01803503       4.05186407      24.58417407        2       0.00832757       0.00568525       0.01492941
Pt       2.80721279       6.48298345      24.58417372        2       0.04149878       0.01895826      -0.06491910
Pt       5.61442797       6.48298324      24.58417392        2      -0.03716031       0.02639285      -0.06483847
Pt       8.42164222       6.48298343      24.58417383        2       0.00079012      -0.01008745       0.01466944
Pt      -0.00000322       0.00000819      26.92607292        1       0.00000687      -0.00003362      -0.00819184
Pt       2.79804328      -0.01211150      26.90923689        1      -0.00452993      -0.03265708      -0.02099861
Pt       5.62537383      -0.01683690      26.90527821        1      -0.00235997      -0.02317875      -0.00282203
Pt       1.38353726       2.43006896      26.90528904        1      -0.01877181       0.01363960      -0.00277706
Pt       4.21082214       2.43107263      26.99498163        1       0.00000258      -0.00017949       0.03574164
Pt       7.03312015       2.42925280      26.90924966        1       0.03041144       0.01243638      -0.02104569
Pt       2.80129966       4.87625331      26.90926377        1      -0.02589756       0.02002052      -0.02109681
Pt       5.62355455       4.88016194      26.90529906        1       0.02114044       0.00933148      -0.00273408
Pt       8.42164461       4.86224620      26.92862032        1       0.00000324      -0.00003361      -0.01859274
N        4.21081903       2.43097063      29.15745658        0       0.00015996       0.00139060      -0.03602284
H        4.69792059       1.59017430      29.49440152        0      -0.02280716       0.03755932       0.00104122
H        3.23900461       2.42987034      29.49405739        0       0.04358763      -0.00007577       0.00163149
H        4.69553613       3.27341000      29.49371686        0      -0.02094284      -0.03817767       0.00210554
