40
Lattice="8.421641763931781 0.0 0.0 4.2108208819658905 7.293355709136913 0.0 0.0 0.0 46.87624170604845" Properties=species:S:1:pos:R:3:tags:I:1:forces:R:3 charge=0 spin=0 energy=-206.42854000052574 free_energy=-206.42854000052574 stress="0.01026369072496891 -1.7902088700338936e-08 -1.1675737709992973e-08 -1.7902088700338936e-08 0.010263769887387753 6.27535996500228e-08 -1.1675737709992973e-08 6.27535996500228e-08 -0.00025902639026753604" pbc="T T T"
Pt      -0.00000005       0.00000022      19.95723419        4      -0.00143642      -0.00153740       0.01991744
Pt       2.80721406      -0.00000018      19.95723436        4       0.00110933      -0.00016060       0.02007654
Pt       5.61442778      -0.00000006      19.95723442        4      -0.00000036       0.00000311      -0.00002332
Pt       1.40360717       2.43111838      19.95723425        4      -0.00000016       0.00000154       0.02031366
Pt       4.21082080       2.43111835      19.95723435        4       0.00204861      -0.00047995       0.01990629
Pt       7.01803478       2.43111843      19.95723423        4      -0.00070002      -0.00087846       0.02007963
Pt       2.80721408       4.86223724      19.95723395        4      -0.00041191       0.00103932       0.02005754
Pt       5.61442803       4.86223730      19.95723413        4      -0.00000234      -0.00000251       0.02011277
Pt       8.42164138       4.86223726      19.95723427        4      -0.00060716       0.00201382       0.01991538
Pt       1.40360728       0.81037260      22.29206790        3      -0.00072957       0.00158298      -0.05645990
Pt       4.21082128       0.81037250      22.29206784        3      -0.00365320       0.00336026      -0.04544377
Pt       7.01803477       0.81037260      22.29206779        3       0.00473592       0.00151969      -0.04543554
Pt       2.80721450       3.24149125      22.29206775        3      -0.00101141      -0.00145008      -0.05649510
Pt       5.61442762       3.24149123      22.29206790        3      -0.00126050       0.00065713      -0.05891247
Pt       8.42164156       3.24149116      22.29206805        3       0.00173284      -0.00012354      -0.05646158
Pt       4.21082094       5.67260998      22.29206797        3       0.00117587       0.00075666      -0.05889048
Pt       7.01803488       5.67261038      22.29206774        3       0.00008648      -0.00141435      -0.05886293
Pt       9.82524823       5.67261061      22.29206804        3      -0.00107919      -0.00488085      -0.04542452
Pt      -0.00000056       1.62074572      24.58417389        2       0.03675798       0.01810136       0.07004295
Pt       2.80721443       1.62074548      24.58417398        2      -0.03408918       0.02276981       0.07000296
Pt       5.61442779       1.62074532      24.58417370        2       0.00049417      -0.02648601      -0.01430649
Pt       1.40360636       4.05186439      24.58417390        2      -0.00263172      -0.04088282       0.07004993
Pt       4.21082088       4.05186401      24.58417381        2       0.00600834       0.00747150       0.01476753
Pt       7.01803503       4.05186407      24.58417407        2      -0.00947102       0.00151426       0.01470632
Pt       2.80721279       6.48298345      24.58417372        2      -0.02316343       0.01278220      -0.01426365
Pt       5.61442797       6.48298324      24.58417392        2       0.00340467      -0.00894695       0.01469430
Pt       8.42164222       6.48298343      24.58417383        2       0.02269395       0.01368132      -0.01436514
Pt      -0.00364782      -0.00883041      26.91015638        1       0.00168959       0.00527233       0.00501964
Pt       2.81048821      -0.00833832      26.91006635        1      -0.00161176       0.00546018       0.00491449
Pt       5.61442819       0.00000032      26.91819651        1       0.00000079      -0.00000113       0.00044552
Pt       1.40360590       2.43111806      26.93297983        1       0.00000302      -0.00000227       0.03796883
Pt       4.22028394       2.43237965      26.91013158        1      -0.00539439      -0.00117026       0.00508943
Pt       7.00917827       2.43244421      26.91006946        1       0.00551799      -0.00131607       0.00495938
Pt       2.81279505       4.86925020      26.91009823        1      -0.00390296      -0.00414849       0.00488576
Pt       5.61442859       4.86223613      26.92175489        1      -0.00000143      -0.00000041       0.00088532
Pt       8.41582749       4.86980711      26.91013487        1       0.00369823      -0.00410435       0.00504314
N        1.40360596       2.43112047      29.84016503        0       0.00010493      -0.00021021       0.04926630
H        0.55148879       2.92300282      29.56516871        0      -0.02029600       0.01150533      -0.00262728
H        2.25565202       2.92313354      29.56516816        0       0.02000190       0.01177590      -0.00259466
H        1.40368202       1.44721724      29.56516784        0       0.00018934      -0.02307207      -0.00255417
