40
Lattice="8.421641763931781 0.0 0.0 4.2108208819658905 7.293355709136913 0.0 0.0 0.0 46.87624170604845" Properties=species:S:1:pos:R:3:tags:I:1:forces:R:3 charge=0 spin=0 energy=-206.42591358145836 free_energy=-206.42591358145836 stress="0.010472322814166546 -6.427081444826399e-08 -9.729531846858208e-09 -6.427081444826399e-08 0.010472419671714306 -2.1685009343741513e-08 -9.729531846858208e-09 -2.1685009343741513e-08 -0.00011254966375418007" pbc="T T T"
Pt      -0.00000005       0.00000022      19.95723419        4       0.00033804       0.00063509       0.01853118
Pt       2.80721406      -0.00000018      19.95723436        4       0.00014667      -0.00010827       0.01872953
Pt       5.61442778      -0.00000006      19.95723442        4      -0.00017517      -0.00006591       0.01871522
Pt       1.40360717       2.43111838      19.95723425        4      -0.00071495      -0.00002538       0.01853795
Pt       4.21082080       2.43111835      19.95723435        4      -0.00023330       0.00014199       0.01782686
Pt       7.01803478       2.43111843      19.95723423        4       0.00037886      -0.00060378       0.01853328
Pt       2.80721408       4.86223724      19.95723395        4       0.00023881       0.00013032       0.01782981
Pt       5.61442803       4.86223730      19.95723413        4      -0.00000546      -0.00027180       0.01783093
Pt       8.42164138       4.86223726      19.95723427        4       0.00002594       0.00018222       0.01873296
Pt       1.40360728       0.81037260      22.29206790        3       0.00026520      -0.00077590      -0.05213566
Pt       4.21082128       0.81037250      22.29206784        3      -0.00039146      -0.00051066      -0.05214818
Pt       7.01803477       0.81037260      22.29206779        3      -0.00081295       0.00016991      -0.05214765
Pt       2.80721450       3.24149125      22.29206775        3      -0.00068745      -0.00033745      -0.05024396
Pt       5.61442762       3.24149123      22.29206790        3       0.00063755      -0.00041669      -0.05025302
Pt       8.42164156       3.24149116      22.29206805        3       0.00055230       0.00063337      -0.05212841
Pt       4.21082094       5.67260998      22.29206797        3       0.00004354       0.00077678      -0.05025578
Pt       7.01803488       5.67261038      22.29206774        3       0.00064606      -0.00006732      -0.05214516
Pt       9.82524823       5.67261061      22.29206804        3      -0.00024828       0.00059276      -0.05215124
Pt      -0.00000056       1.62074572      24.58417389        2       0.00000045      -0.00001023       0.04671422
Pt       2.80721443       1.62074548      24.58417398        2      -0.00178602      -0.00117244       0.02929011
Pt       5.61442779       1.62074532      24.58417370        2       0.00072523       0.00157778       0.03291317
Pt       1.40360636       4.05186439      24.58417390        2       0.00104002      -0.00146683       0.03289403
Pt       4.21082088       4.05186401      24.58417381        2       0.00000122      -0.00003012       0.02686021
Pt       7.01803503       4.05186407      24.58417407        2       0.00186071      -0.00100362       0.02923585
Pt       2.80721279       6.48298345      24.58417372        2      -0.00008561       0.00210393       0.02926108
Pt       5.61442797       6.48298324      24.58417392        2      -0.00175123      -0.00017952       0.03287685
Pt       8.42164222       6.48298343      24.58417383        2      -0.00001257      -0.00001959       0.03404165
Pt      -0.00162177      -0.00204336      26.91640821        1       0.00696072       0.01374237      -0.00423152
Pt       2.80473848       0.00133511      26.91630898        1       0.01011869      -0.00691532      -0.00375618
Pt       5.61684397       0.00143333      26.91630606        1      -0.01104544      -0.00532097      -0.00372499
Pt       1.40616080       2.43069427      26.91642145        1      -0.01538083      -0.00083142      -0.00411381
Pt       4.20983530       2.42940776      26.91423073        1       0.00692213       0.00912017       0.00654941
Pt       7.01709783       2.43349993      26.91642150        1       0.00842371      -0.01284938      -0.00405474
Pt       2.80624681       4.86390127      26.91421694        1       0.00446620      -0.01055887       0.00645783
Pt       5.61637431       4.86219819      26.91421948        1      -0.01138034       0.00145968       0.00647888
Pt       8.42169635       4.85938067      26.91629773        1       0.00091606       0.01228242      -0.00365947
N        8.42170533       6.48279455      30.84167468        0       0.00004847       0.00008366      -0.03299499
H        9.02099589       5.74719574      30.44395370        0      -0.00053450      -0.00195623       0.01378885
H        7.48461010       6.33215902      30.44469975        0      -0.00157425       0.00114284       0.01375272
H        8.75936905       7.37020818      30.44555955        0       0.00206293       0.00072239       0.01376221
