40
Lattice="8.421641763931781 0.0 0.0 4.2108208819658905 7.293355709136913 0.0 0.0 0.0 46.87624170604845" Properties=species:S:1:pos:R:3:tags:I:1:forces:R:3 charge=0 spin=0 energy=-206.42585636099938 free_energy=-206.42585636099938 stress="0.010472842492163181 1.92749496363831e-08 9.075005635850175e-09 1.92749496363831e-08 0.010472862981259823 -7.184149275474283e-09 9.075005635850175e-09 -7.184149275474283e-09 -0.00011297634046059102" pbc="T T T"
Pt      -0.00000005       0.00000022      19.95723419        4       0.00045898      -0.00048822       0.01850489
Pt       2.80721406      -0.00000018      19.95723436        4      -0.00065144      -0.00015070       0.01850947
Pt       5.61442778      -0.00000006      19.95723442        4      -0.00018778       0.00015495       0.01784022
Pt       1.40360717       2.43111838      19.95723425        4      -0.00005707       0.00018493       0.01875845
Pt       4.21082080       2.43111835      19.95723435        4       0.00022612       0.00008733       0.01785186
Pt       7.01803478       2.43111843      19.95723423        4      -0.00003872      -0.00023474       0.01785284
Pt       2.80721408       4.86223724      19.95723395        4      -0.00013115      -0.00014466       0.01874982
Pt       5.61442803       4.86223730      19.95723413        4       0.00019109       0.00063832       0.01850455
Pt       8.42164138       4.86223726      19.95723427        4       0.00019026      -0.00004463       0.01875457
Pt       1.40360728       0.81037260      22.29206790        3       0.00052439       0.00055085      -0.05213502
Pt       4.21082128       0.81037250      22.29206784        3      -0.00045694      -0.00073244      -0.05008356
Pt       7.01803477       0.81037260      22.29206779        3       0.00086168      -0.00002228      -0.05008853
Pt       2.80721450       3.24149125      22.29206775        3      -0.00028012       0.00062721      -0.05231743
Pt       5.61442762       3.24149123      22.29206790        3      -0.00040445       0.00076651      -0.05010294
Pt       8.42164156       3.24149116      22.29206805        3       0.00068146      -0.00006443      -0.05231348
Pt       4.21082094       5.67260998      22.29206797        3      -0.00073969       0.00018651      -0.05215498
Pt       7.01803488       5.67261038      22.29206774        3       0.00020861      -0.00072998      -0.05214401
Pt       9.82524823       5.67261061      22.29206804        3      -0.00039785      -0.00055994      -0.05231155
Pt      -0.00000056       1.62074572      24.58417389        2       0.00041464      -0.00187523       0.03338646
Pt       2.80721443       1.62074548      24.58417398        2       0.00017826      -0.00127800       0.02882689
Pt       5.61442779       1.62074532      24.58417370        2       0.00000621      -0.00001207       0.02591349
Pt       1.40360636       4.05186439      24.58417390        2       0.00000798      -0.00000620       0.03368903
Pt       4.21082088       4.05186401      24.58417381        2       0.00139935       0.00130795       0.03339338
Pt       7.01803503       4.05186407      24.58417407        2      -0.00118896       0.00048549       0.02880378
Pt       2.80721279       6.48298345      24.58417372        2       0.00101812       0.00076729       0.02884443
Pt       5.61442797       6.48298324      24.58417392        2      -0.00000767       0.00000496       0.04721853
Pt       8.42164222       6.48298343      24.58417383        2      -0.00182507       0.00054485       0.03341899
Pt      -0.00256038      -0.00028563      26.91667950        1       0.01480778      -0.00110362      -0.00463561
Pt       2.80825461       0.00234671      26.91667666        1      -0.00836424      -0.01225999      -0.00468559
Pt       5.61621251      -0.00166631      26.91419903        1      -0.00750911       0.00922317       0.00665460
Pt       1.40297133       2.42826790      26.91611713        1      -0.00154875       0.01188064      -0.00297412
Pt       4.20849387       2.43039361      26.91418708        1       0.01177716       0.00188830       0.00654784
Pt       7.01857775       2.43348525      26.91418972        1      -0.00426201      -0.01111558       0.00658910
Pt       2.80999260       4.86309886      26.91612077        1      -0.00947167      -0.00727962      -0.00303967
Pt       5.61594789       4.86015078      26.91666533        1      -0.00644206       0.01337763      -0.00479543
Pt       8.41949741       4.86420086      26.91612014        1       0.01101655      -0.00458328      -0.00303945
N        9.82522205       4.05179028      30.83775375        0      -0.00004552      -0.00004401      -0.03184063
H       10.76355124       3.90934656      30.44074940        0       0.00242171       0.00109077       0.01334099
H        9.23260207       3.31061728      30.44047272        0      -0.00020543      -0.00260148       0.01338084
H        9.47956255       4.93582042      30.44105380        0      -0.00217457       0.00156357       0.01332687
