40
Lattice="8.421641763931781 0.0 0.0 4.2108208819658905 7.293355709136913 0.0 0.0 0.0 46.87624170604845" Properties=species:S:1:pos:R:3:tags:I:1:forces:R:3 charge=0 spin=0 energy=-206.4181907268441 free_energy=-206.4181907268441 stress="0.010531935840845108 7.623273268109187e-05 1.08455351437442e-05 7.623273268109187e-05 0.010424073785543442 3.1405153322339174e-07 1.08455351437442e-05 3.1405153322339174e-07 -0.00018370717589277774" pbc="T T T"
Pt      -0.00000005       0.00000022      19.95723419        4      -0.00288461      -0.00280492       0.01839210
Pt       2.80721406      -0.00000018      19.95723436        4      -0.00341149      -0.00196155       0.01851717
Pt       5.61442778      -0.00000006      19.95723442        4      -0.00297411      -0.00217254       0.01714537
Pt       1.40360717       2.43111838      19.95723425        4      -0.00290597      -0.00195011       0.01881723
Pt       4.21082080       2.43111835      19.95723435        4      -0.00266288      -0.00196960       0.01720364
Pt       7.01803478       2.43111843      19.95723423        4      -0.00286822      -0.00230709       0.01851566
Pt       2.80721408       4.86223724      19.95723395        4      -0.00256294      -0.00203385       0.01848311
Pt       5.61442803       4.86223730      19.95723413        4      -0.00315729      -0.00177026       0.01840699
Pt       8.42164138       4.86223726      19.95723427        4      -0.00289598      -0.00202247       0.01878521
Pt       1.40360728       0.81037260      22.29206790        3      -0.01262103      -0.00586973      -0.05403152
Pt       4.21082128       0.81037250      22.29206784        3      -0.01398174      -0.00735376      -0.04489160
Pt       7.01803477       0.81037260      22.29206779        3      -0.01167925      -0.00519974      -0.05177492
Pt       2.80721450       3.24149125      22.29206775        3      -0.01418557      -0.00641971      -0.05132034
Pt       5.61442762       3.24149123      22.29206790        3      -0.01128420      -0.00692264      -0.05248214
Pt       8.42164156       3.24149116      22.29206805        3      -0.01236239      -0.00665236      -0.05254171
Pt       4.21082094       5.67260998      22.29206797        3      -0.01347801      -0.00669926      -0.04999974
Pt       7.01803488       5.67261038      22.29206774        3      -0.01206787      -0.00783052      -0.05364279
Pt       9.82524823       5.67261061      22.29206804        3      -0.01430681      -0.00758740      -0.05211397
Pt      -0.00000056       1.62074572      24.58417389        2       0.03565846       0.01770407       0.02312803
Pt       2.80721443       1.62074548      24.58417398        2       0.03990041       0.01909775       0.02766515
Pt       5.61442779       1.62074532      24.58417370        2       0.03312293       0.01828133       0.01974408
Pt       1.40360636       4.05186439      24.58417390        2       0.04009027       0.02358496       0.01533626
Pt       4.21082088       4.05186401      24.58417381        2       0.03366918       0.01966092       0.02069312
Pt       7.01803503       4.05186407      24.58417407        2       0.03350947       0.01740526       0.02259933
Pt       2.80721279       6.48298345      24.58417372        2       0.03535001       0.02026061       0.02079551
Pt       5.61442797       6.48298324      24.58417392        2       0.03766317       0.01983285       0.03322288
Pt       8.42164222       6.48298343      24.58417383        2       0.03725337       0.02263756       0.02876952
Pt       0.04753522       0.02652171      26.91571960        1      -0.00530142      -0.00991595       0.00941094
Pt       2.85684351       0.02702558      26.91579789        1      -0.01697263      -0.00843453      -0.00159957
Pt       5.66804763       0.02683191      26.91459956        1      -0.04424929      -0.00946750       0.01235595
Pt       1.45297797       2.45687131      26.91282264        1      -0.01466996      -0.01574559       0.01567614
Pt       4.26203315       2.46126673      26.91433823        1      -0.03116456      -0.03241468       0.01279763
Pt       7.06574592       2.45755129      26.91592789        1      -0.01504454      -0.00802594       0.00177463
Pt       2.85840049       4.88968963      26.91661570        1      -0.02471349      -0.01300281       0.00182510
Pt       5.66296733       4.88839272      26.91529912        1      -0.01295501       0.00119199       0.01035188
Pt       8.47054491       4.88978452      26.91281753        1      -0.02006544      -0.00409138       0.01530089
N        9.06352987       3.61224028      30.72433555        0      -0.00702274      -0.00389041      -0.00232162
H        8.19612388       4.06788582      30.41071646        0       0.03712818      -0.00794317      -0.00313024
H        9.83621296       4.06071901      30.21372184        0      -0.04029637      -0.02288603       0.01620172
H        9.01844132       2.63752300      30.39841574        0       0.01140069       0.03568811      -0.00206485
