40
Lattice="8.421641763931781 0.0 0.0 4.2108208819658905 7.293355709136913 0.0 0.0 0.0 46.87624170604845" Properties=species:S:1:pos:R:3:tags:I:1:forces:R:3 charge=0 spin=0 energy=-206.4240443797982 free_energy=-206.4240443797982 stress="0.010470189154148102 -5.845060879750008e-09 -1.0789110937992064e-08 -5.845060879750008e-09 0.010470226407051086 1.380858982713562e-09 -1.0789110937992064e-08 1.380858982713562e-09 -0.00011068481398979202" pbc="T T T"
Pt      -0.00000005       0.00000022      19.95723419        4      -0.00009636      -0.00006719       0.01875707
Pt       2.80721406      -0.00000018      19.95723436        4       0.00026803       0.00066520       0.01859162
Pt       5.61442778      -0.00000006      19.95723442        4       0.00010596      -0.00004773       0.01875491
Pt       1.40360717       2.43111838      19.95723425        4       0.00043693      -0.00056337       0.01859198
Pt       4.21082080       2.43111835      19.95723435        4      -0.00070570      -0.00009592       0.01859617
Pt       7.01803478       2.43111843      19.95723423        4      -0.00025599       0.00028705       0.01775771
Pt       2.80721408       4.86223724      19.95723395        4      -0.00000611       0.00011369       0.01876534
Pt       5.61442803       4.86223730      19.95723413        4       0.00037351       0.00007314       0.01775848
Pt       8.42164138       4.86223726      19.95723427        4      -0.00011950      -0.00036641       0.01775996
Pt       1.40360728       0.81037260      22.29206790        3      -0.00082032       0.00022229      -0.05263275
Pt       4.21082128       0.81037250      22.29206784        3       0.00021594      -0.00081082      -0.05262063
Pt       7.01803477       0.81037260      22.29206779        3      -0.00039420      -0.00086840      -0.05254179
Pt       2.80721450       3.24149125      22.29206775        3       0.00059274       0.00059955      -0.05261204
Pt       5.61442762       3.24149123      22.29206790        3      -0.00088015      -0.00081041      -0.04932481
Pt       8.42164156       3.24149116      22.29206805        3       0.00113897      -0.00036071      -0.04933297
Pt       4.21082094       5.67260998      22.29206797        3      -0.00055422       0.00077580      -0.05254444
Pt       7.01803488       5.67261038      22.29206774        3      -0.00025765       0.00116652      -0.04934082
Pt       9.82524823       5.67261061      22.29206804        3       0.00095482       0.00008596      -0.05253966
Pt      -0.00000056       1.62074572      24.58417389        2       0.00182156       0.00421903       0.03164363
Pt       2.80721443       1.62074548      24.58417398        2      -0.00000684       0.00001859       0.05512633
Pt       5.61442779       1.62074532      24.58417370        2      -0.00303233       0.00275504       0.03244204
Pt       1.40360636       4.05186439      24.58417390        2      -0.00085605      -0.00401399       0.03241160
Pt       4.21082088       4.05186401      24.58417381        2       0.00274423      -0.00368410       0.03164623
Pt       7.01803503       4.05186407      24.58417407        2      -0.00000459      -0.00000670       0.02814965
Pt       2.80721279       6.48298345      24.58417372        2       0.00001518      -0.00001166       0.02676845
Pt       5.61442797       6.48298324      24.58417392        2       0.00389295       0.00126344       0.03240104
Pt       8.42164222       6.48298343      24.58417383        2      -0.00456845      -0.00053561       0.03159525
Pt       0.00297157       0.00140045      26.91439980        1      -0.00853272      -0.00563473       0.00212376
Pt       2.80728188      -0.00227235      26.91855738        1      -0.00012552       0.01580970      -0.01206313
Pt       5.61172883       0.00187223      26.91439924        1       0.00913245      -0.00458456       0.00211666
Pt       1.40160787       2.43219851      26.91857778        1       0.01375064      -0.00779068      -0.01191962
Pt       4.21275415       2.43231490      26.91857502        1      -0.01363612      -0.00801252      -0.01196873
Pt       7.01853296       2.42966090      26.91487311        1      -0.00095040       0.01002433       0.00457764
Pt       2.80694237       4.85896697      26.91440511        1      -0.00060523       0.01023995       0.00215400
Pt       5.61291498       4.86253578      26.91486077        1       0.00919650      -0.00420630       0.00446803
Pt       8.42265616       4.86339891      26.91486366        1      -0.00823086      -0.00584450       0.00450739
N       11.22885344       6.48297890      30.77663216        0       0.00008213       0.00004486      -0.02692821
H       10.41087802       6.00166757      30.38032857        0      -0.01064331      -0.00640191       0.01294175
H       11.22101308       7.43202786      30.38033780        0      -0.00023030       0.01233321       0.01298076
H       12.05467451       6.01525028      30.38033114        0       0.01079056      -0.00597916       0.01298208
