40
Lattice="8.421641763931781 0.0 0.0 4.2108208819658905 7.293355709136913 0.0 0.0 0.0 46.87624170604845" Properties=species:S:1:pos:R:3:tags:I:1:forces:R:3 charge=0 spin=0 energy=-206.42905689200524 free_energy=-206.42905689200524 stress="0.010530817322432995 -6.357474990892342e-09 3.903227963064637e-09 -6.357474990892342e-09 0.010530747473239899 -3.648045421300594e-08 3.903227963064637e-09 -3.648045421300594e-08 -4.577530489768833e-05" pbc="T T T"
Pt      -0.00000005       0.00000022      19.95723419        4       0.00014428      -0.00006758       0.01871416
Pt       2.80721406      -0.00000018      19.95723436        4      -0.00001351       0.00015460       0.01870953
Pt       5.61442778      -0.00000006      19.95723442        4       0.00033258       0.00006410       0.01793462
Pt       1.40360717       2.43111838      19.95723425        4      -0.00012751      -0.00009017       0.01871409
Pt       4.21082080       2.43111835      19.95723435        4       0.00010949      -0.00012036       0.01848551
Pt       7.01803478       2.43111843      19.95723423        4       0.00005009       0.00015448       0.01849166
Pt       2.80721408       4.86223724      19.95723395        4      -0.00011478      -0.00032286       0.01794811
Pt       5.61442803       4.86223730      19.95723413        4      -0.00015876      -0.00003714       0.01849251
Pt       8.42164138       4.86223726      19.95723427        4      -0.00021797       0.00025262       0.01794917
Pt       1.40360728       0.81037260      22.29206790        3       0.00000198      -0.00000208      -0.05015443
Pt       4.21082128       0.81037250      22.29206784        3      -0.00050283       0.00080672      -0.05225754
Pt       7.01803477       0.81037260      22.29206779        3       0.00043962      -0.00020696      -0.05244068
Pt       2.80721450       3.24149125      22.29206775        3      -0.00040244      -0.00027655      -0.05246284
Pt       5.61442762       3.24149123      22.29206790        3       0.00000041      -0.00000286      -0.05499953
Pt       8.42164156       3.24149116      22.29206805        3      -0.00044087      -0.00083965      -0.05223768
Pt       4.21082094       5.67260998      22.29206797        3       0.00094300       0.00002861      -0.05224343
Pt       7.01803488       5.67261038      22.29206774        3      -0.00004223       0.00046750      -0.05243728
Pt       9.82524823       5.67261061      22.29206804        3       0.00000893      -0.00001859      -0.04614917
Pt      -0.00000056       1.62074572      24.58417389        2      -0.00199187       0.00053077       0.02933565
Pt       2.80721443       1.62074548      24.58417398        2       0.00144424       0.00139959       0.02937012
Pt       5.61442779       1.62074532      24.58417370        2      -0.00108101      -0.00986698       0.04570654
Pt       1.40360636       4.05186439      24.58417390        2       0.00001956       0.00895589       0.04868656
Pt       4.21082088       4.05186401      24.58417381        2      -0.00796452       0.00590295       0.04570804
Pt       7.01803503       4.05186407      24.58417407        2       0.00907708       0.00402897       0.04574874
Pt       2.80721279       6.48298345      24.58417372        2      -0.00776593      -0.00438245       0.04871527
Pt       5.61442797       6.48298324      24.58417392        2       0.00053298      -0.00193850       0.02943884
Pt       8.42164222       6.48298343      24.58417383        2       0.00770666      -0.00449594       0.04879448
Pt      -0.00053162       0.00032265      26.91511939        1      -0.00539017      -0.00336716       0.00509174
Pt       2.80723252      -0.00059703      26.91514244        1       0.00553290      -0.00295730       0.00499960
Pt       5.61395382      -0.00086163      26.92233253        1       0.00122880       0.00235344      -0.02933633
Pt       1.40411736       2.43144517      26.91509705        1      -0.00016529       0.00631486       0.00515363
Pt       4.21046188       2.43075677      26.91505677        1       0.00359299       0.00100650       0.00024497
Pt       7.01851806       2.43102786      26.91506388        1      -0.00261106       0.00256505       0.00022943
Pt       2.80668659       4.86310857      26.92229526        1       0.00142810      -0.00226366      -0.02921162
Pt       5.61428055       4.86275893      26.91508519        1      -0.00095022      -0.00361381       0.00015371
Pt       8.42263450       4.86228659      26.92233479        1      -0.00264903      -0.00011747      -0.02935518
N        1.40360795       0.81037307      30.99526087        0       0.00001729      -0.00003464      -0.00944158
H        0.57103782       0.35099292      30.60171037        0       0.02812732       0.01540816       0.00330230
H        1.42205552       1.76109119      30.60171436        0      -0.00072477      -0.03204762       0.00329367
H        2.21772735       0.31903862      30.60170536        0      -0.02742380       0.01667548       0.00331447
