40
Lattice="8.421641763931781 0.0 0.0 4.2108208819658905 7.293355709136913 0.0 0.0 0.0 46.87624170604845" Properties=species:S:1:pos:R:3:tags:I:1:forces:R:3 charge=0 spin=0 energy=-206.41953159293297 free_energy=-206.41953159293297 stress="0.010374161414802074 2.5399831429240294e-05 1.4926449694030453e-05 2.5399831429240294e-05 0.010559101589024067 -1.5360126781160943e-05 1.4926449694030453e-05 -1.5360126781160943e-05 -0.0001752498938003555" pbc="T T T"
Pt      -0.00000005       0.00000022      19.95723419        4      -0.00132122       0.00317755       0.01744444
Pt       2.80721406      -0.00000018      19.95723436        4      -0.00067866       0.00283301       0.01748727
Pt       5.61442778      -0.00000006      19.95723442        4      -0.00106576       0.00292052       0.01842374
Pt       1.40360717       2.43111838      19.95723425        4      -0.00083377       0.00363328       0.01835731
Pt       4.21082080       2.43111835      19.95723435        4      -0.00075789       0.00320461       0.01887779
Pt       7.01803478       2.43111843      19.95723423        4      -0.00102763       0.00323207       0.01854393
Pt       2.80721408       4.86223724      19.95723395        4      -0.00137568       0.00341541       0.01841252
Pt       5.61442803       4.86223730      19.95723413        4      -0.00124504       0.00283615       0.01822788
Pt       8.42164138       4.86223726      19.95723427        4      -0.00079569       0.00294658       0.01848197
Pt       1.40360728       0.81037260      22.29206790        3      -0.00161509       0.01450401      -0.04878527
Pt       4.21082128       0.81037250      22.29206784        3      -0.00243677       0.01337652      -0.05097796
Pt       7.01803477       0.81037260      22.29206779        3      -0.00277301       0.01478184      -0.05093460
Pt       2.80721450       3.24149125      22.29206775        3      -0.00273830       0.01211921      -0.05419989
Pt       5.61442762       3.24149123      22.29206790        3      -0.00282175       0.01293340      -0.05127057
Pt       8.42164156       3.24149116      22.29206805        3      -0.00372916       0.01275337      -0.05269780
Pt       4.21082094       5.67260998      22.29206797        3      -0.00207857       0.01120747      -0.05068353
Pt       7.01803488       5.67261038      22.29206774        3      -0.00360316       0.01243406      -0.05264018
Pt       9.82524823       5.67261061      22.29206804        3      -0.00237091       0.01319379      -0.05064721
Pt      -0.00000056       1.62074572      24.58417389        2       0.00904245      -0.04053205       0.02466957
Pt       2.80721443       1.62074548      24.58417398        2       0.01256672      -0.03874813       0.03007803
Pt       5.61442779       1.62074532      24.58417370        2       0.00745026      -0.04060014       0.00772395
Pt       1.40360636       4.05186439      24.58417390        2       0.00769966      -0.03393833       0.03407926
Pt       4.21082088       4.05186401      24.58417381        2       0.00454909      -0.03651406       0.02410770
Pt       7.01803503       4.05186407      24.58417407        2       0.01419555      -0.03259988       0.02259808
Pt       2.80721279       6.48298345      24.58417372        2       0.01180991      -0.03767837       0.02859914
Pt       5.61442797       6.48298324      24.58417392        2       0.00893089      -0.03463046       0.02413404
Pt       8.42164222       6.48298343      24.58417383        2       0.01027476      -0.03791409       0.02885008
Pt       0.00987196      -0.05181255      26.91572872        1       0.00152003       0.02390475       0.00250731
Pt       2.81867892      -0.05216793      26.91472394        1      -0.01079338       0.02935430       0.00648009
Pt       5.62488331      -0.04812069      26.91541278        1      -0.00834154      -0.00248023       0.00751592
Pt       1.41358377       2.38094466      26.91242369        1      -0.00566921       0.01924651       0.01143218
Pt       4.22349554       2.38173424      26.91508283        1      -0.03366901       0.01545430       0.01533047
Pt       7.02612619       2.38060390      26.91337989        1       0.02543879       0.01971002       0.01121305
Pt       2.81883102       4.81239084      26.91589674        1      -0.01399697       0.02190307       0.00348036
Pt       5.62596671       4.81064039      26.91459735        1      -0.00717878       0.04015936       0.01023733
Pt       8.43256009       4.81209284      26.91704085        1       0.00072033       0.02031414      -0.00210638
N        5.69002219       2.47002404      30.81364585        0      -0.01449551       0.00317197       0.01132295
H        4.66992509       2.47267217      30.68652426        0      -0.01276714      -0.00696258       0.00065024
H        6.04413325       3.30105050      30.32173480        0       0.01704359      -0.02945094      -0.00319723
H        6.04400227       1.65032405      30.30280888        0       0.00893742       0.03332790      -0.00112585
