40
Lattice="8.421641763931781 0.0 0.0 4.2108208819658905 7.293355709136913 0.0 0.0 0.0 46.87624170604845" Properties=species:S:1:pos:R:3:tags:I:1:forces:R:3 charge=0 spin=0 energy=-206.42601085623863 free_energy=-206.42601085623863 stress="0.010491305030882359 -6.286597908911062e-07 8.579736920921732e-09 -6.286597908911062e-07 0.01049100887030363 5.458222744891827e-07 8.579736920921732e-09 5.458222744891827e-07 -4.3511681724339724e-05" pbc="T T T"
Pt      -0.00000005       0.00000022      19.95723419        4      -0.00018764      -0.00026376       0.01783498
Pt       2.80721406      -0.00000018      19.95723436        4      -0.00017937      -0.00025956       0.01853256
Pt       5.61442778      -0.00000006      19.95723442        4      -0.00012767       0.00028643       0.01783426
Pt       1.40360717       2.43111838      19.95723425        4       0.00029982       0.00015405       0.01881916
Pt       4.21082080       2.43111835      19.95723435        4      -0.00028003       0.00018414       0.01881485
Pt       7.01803478       2.43111843      19.95723423        4       0.00031646      -0.00003024       0.01782771
Pt       2.80721408       4.86223724      19.95723395        4      -0.00001963      -0.00033693       0.01880287
Pt       5.61442803       4.86223730      19.95723413        4       0.00031287      -0.00003264       0.01852111
Pt       8.42164138       4.86223726      19.95723427        4      -0.00013045       0.00028473       0.01852266
Pt       1.40360728       0.81037260      22.29206790        3       0.00022009       0.00018692      -0.05316642
Pt       4.21082128       0.81037250      22.29206784        3       0.00039257       0.00071006      -0.05298974
Pt       7.01803477       0.81037260      22.29206779        3       0.00002685       0.00003566      -0.04714456
Pt       2.80721450       3.24149125      22.29206775        3      -0.00000216       0.00000527      -0.04732382
Pt       5.61442762       3.24149123      22.29206790        3      -0.00025382       0.00007218      -0.05319532
Pt       8.42164156       3.24149116      22.29206805        3       0.00039826      -0.00072372      -0.05301715
Pt       4.21082094       5.67260998      22.29206797        3      -0.00082517      -0.00000823      -0.05301509
Pt       7.01803488       5.67261038      22.29206774        3      -0.00000261      -0.00002300      -0.05176570
Pt       9.82524823       5.67261061      22.29206804        3       0.00007491      -0.00034889      -0.05312641
Pt      -0.00000056       1.62074572      24.58417389        2      -0.00234094      -0.00150711       0.05182448
Pt       2.80721443       1.62074548      24.58417398        2       0.00131166       0.00723298       0.03815893
Pt       5.61442779       1.62074532      24.58417370        2       0.00248954      -0.00115620       0.05187403
Pt       1.40360636       4.05186439      24.58417390        2       0.00543994      -0.00475970       0.03784190
Pt       4.21082088       4.05186401      24.58417381        2      -0.00674715      -0.00259364       0.03790982
Pt       7.01803503       4.05186407      24.58417407        2      -0.00084686      -0.00474643       0.03808153
Pt       2.80721279       6.48298345      24.58417372        2      -0.00020869       0.00303896       0.05156593
Pt       5.61442797       6.48298324      24.58417392        2      -0.00369282       0.00316051       0.03809594
Pt       8.42164222       6.48298343      24.58417383        2       0.00452940       0.00174203       0.03813159
Pt       0.00235309      -0.00183355      26.91941645        1      -0.02062600       0.01220816      -0.01994176
Pt       2.80696383       0.00301249      26.91407999        1      -0.00015398      -0.01619834       0.00672761
Pt       5.61157796      -0.00099676      26.91942578        1       0.02114742       0.01133673      -0.01997719
Pt       1.40267681       2.43035242      26.92032095        1      -0.00168851       0.00190740      -0.01808977
Pt       4.21197558       2.43076242      26.92037247        1      -0.00075982      -0.00239198      -0.01821212
Pt       7.01849600       2.43414599      26.91941939        1      -0.00051903      -0.02400431      -0.02014878
Pt       2.80697536       4.86353254      26.92017306        1       0.00248387       0.00044534      -0.01763727
Pt       5.61197426       4.86057329      26.91404968        1       0.01413905       0.00805473       0.00673730
Pt       8.42431535       4.86100741      26.91404545        1      -0.01399906       0.00826026       0.00673703
N        2.80720052       3.24507677      30.84424508        0      -0.00000387      -0.00143270      -0.02732762
H        3.75421485       3.24371973      30.44409227        0       0.04642722       0.00053432       0.01227707
H        2.33708707       2.41808390      30.45436440        0      -0.02534018      -0.03981104       0.01268945
H        2.33032714       4.05820377      30.43386497        0      -0.02107435       0.04078755       0.01191570
