40
Lattice="8.421641763931781 0.0 0.0 4.2108208819658905 7.293355709136913 0.0 0.0 0.0 46.87624170604845" Properties=species:S:1:pos:R:3:tags:I:1:forces:R:3 charge=0 spin=0 energy=-206.9940421672738 free_energy=-206.9940421672738 stress="0.009985316544771194 -5.0160164022372555e-08 -2.629155559930041e-09 -5.0160164022372555e-08 0.009985395707190037 -9.159442129202944e-07 -2.629155559930041e-09 -9.159442129202944e-07 -0.00026316160801798105" pbc="T T T"
Pt      -0.00000005       0.00000022      19.95723419        4      -0.00136945      -0.00554794       0.02173533
Pt       2.80721406      -0.00000018      19.95723436        4      -0.00000243       0.00000473       0.01867563
Pt       5.61442778      -0.00000006      19.95723442        4       0.00251937      -0.00463793       0.02175624
Pt       1.40360717       2.43111838      19.95723425        4       0.00275630       0.00450514       0.02177840
Pt       4.21082080       2.43111835      19.95723435        4      -0.00411308       0.00395996       0.02168327
Pt       7.01803478       2.43111843      19.95723423        4      -0.00000077       0.00000082       0.02402644
Pt       2.80721408       4.86223724      19.95723395        4       0.00000337      -0.00000481      -0.04366786
Pt       5.61442803       4.86223730      19.95723413        4      -0.00527942       0.00013517       0.02179665
Pt       8.42164138       4.86223726      19.95723427        4       0.00548590       0.00158285       0.02171211
Pt       1.40360728       0.81037260      22.29206790        3       0.00198540       0.00053966      -0.04515488
Pt       4.21082128       0.81037250      22.29206784        3      -0.00058689      -0.00201136      -0.04519259
Pt       7.01803477       0.81037260      22.29206779        3       0.00316948      -0.00081766      -0.07609724
Pt       2.80721450       3.24149125      22.29206775        3      -0.00065071       0.02704344      -0.08349153
Pt       5.61442762       3.24149123      22.29206790        3      -0.00231132      -0.00236072      -0.07599311
Pt       8.42164156       3.24149116      22.29206805        3      -0.00084351       0.00317189      -0.07594117
Pt       4.21082094       5.67260998      22.29206797        3      -0.02313797      -0.01403938      -0.08359182
Pt       7.01803488       5.67261038      22.29206774        3      -0.00140348       0.00147073      -0.04510929
Pt       9.82524823       5.67261061      22.29206804        3       0.02378287      -0.01300985      -0.08358084
Pt      -0.00000056       1.62074572      24.58417389        2      -0.00217960       0.00056249       0.00164178
Pt       2.80721443       1.62074548      24.58417398        2      -0.00454520      -0.15934356       0.25001681
Pt       5.61442779       1.62074532      24.58417370        2       0.00150475       0.00161271       0.00170908
Pt       1.40360636       4.05186439      24.58417390        2       0.04474002       0.02025091      -0.07609499
Pt       4.21082088       4.05186401      24.58417381        2      -0.03990321       0.02852428      -0.07599142
Pt       7.01803503       4.05186407      24.58417407        2       0.00066138      -0.00215371       0.00140729
Pt       2.80721279       6.48298345      24.58417372        2      -0.00480981      -0.04881465      -0.07578564
Pt       5.61442797       6.48298324      24.58417392        2       0.14008823       0.07573843       0.24970011
Pt       8.42164222       6.48298343      24.58417383        2      -0.13556318       0.08357044       0.24965876
Pt      -0.02495952       0.00033032      26.90507491        1       0.01908733       0.00296509      -0.00066648
Pt       2.80721813      -0.00012378      26.99511753        1      -0.00000675      -0.00010972      -0.01728886
Pt       5.63338854      -0.00075768      26.90896805        1      -0.00403187       0.00264642      -0.01916377
Pt       1.39481530       2.44793761      26.90896790        1      -0.00019923      -0.00498064      -0.01918761
Pt       4.22356576       2.45259062      26.90508226        1      -0.00700960      -0.01818174      -0.00061950
Pt       7.01803485       2.43113603      26.92117252        1       0.00000756      -0.00006206       0.01360866
Pt       2.80721386       4.86225126      26.92487606        1      -0.00000260      -0.00005976       0.00098183
Pt       5.60425548       4.84623229      26.90893259        1       0.00422869       0.00196174      -0.01903075
Pt       8.43386577       4.84049310      26.90503415        1      -0.01206782       0.01483632      -0.00061958
N        2.80721464      -0.00018431      29.14836738        0      -0.00004191       0.00097140       0.01580752
H        3.29096748       0.84070241      29.48777435        0      -0.00143231      -0.00347123       0.00260605
H        3.29336505      -0.83922727      29.48893180        0      -0.00225780       0.00294488       0.00045320
H        1.83730551      -0.00134764      29.48835257        0       0.00372940       0.00060730       0.00151390
