40
Lattice="8.421641763931781 0.0 0.0 4.2108208819658905 7.293355709136913 0.0 0.0 0.0 46.87624170604845" Properties=species:S:1:pos:R:3:tags:I:1:forces:R:3 charge=0 spin=0 energy=-206.99357105216149 free_energy=-206.99357105216149 stress="0.010039515793323517 2.1395628380105336e-07 7.721763672918769e-09 2.1395628380105336e-07 0.010039512068033218 2.7213599196329596e-07 7.721763672918769e-09 2.7213599196329596e-07 -0.0001772069081198424" pbc="T T T"
Pt      -0.00000005       0.00000022      19.95723419        4      -0.00502055       0.00020226       0.02110707
Pt       2.80721406      -0.00000018      19.95723436        4       0.00514227       0.00145950       0.02247931
Pt       5.61442778      -0.00000006      19.95723442        4      -0.00000095       0.00000427      -0.04323661
Pt       1.40360717       2.43111838      19.95723425        4      -0.00000003       0.00000128       0.01847016
Pt       4.21082080       2.43111835      19.95723435        4       0.00234104      -0.00445268       0.02108281
Pt       7.01803478       2.43111843      19.95723423        4      -0.00131929      -0.00518332       0.02250261
Pt       2.80721408       4.86223724      19.95723395        4      -0.00382559       0.00372835       0.02245051
Pt       5.61442803       4.86223730      19.95723413        4      -0.00000230      -0.00000265       0.02428736
Pt       8.42164138       4.86223726      19.95723427        4       0.00268523       0.00424804       0.02109084
Pt       1.40360728       0.81037260      22.29206790        3      -0.00301777       0.00217012      -0.04453141
Pt       4.21082128       0.81037250      22.29206784        3       0.02403925      -0.01080977      -0.08333714
Pt       7.01803477       0.81037260      22.29206779        3      -0.02137495      -0.01537191      -0.08335464
Pt       2.80721450       3.24149125      22.29206775        3      -0.00038275      -0.00374770      -0.04462391
Pt       5.61442762       3.24149123      22.29206790        3       0.00083735      -0.00066971      -0.07546209
Pt       8.42164156       3.24149116      22.29206805        3       0.00339204       0.00158959      -0.04459544
Pt       4.21082094       5.67260998      22.29206797        3      -0.00103820      -0.00040691      -0.07535789
Pt       7.01803488       5.67261038      22.29206774        3       0.00020149       0.00108687      -0.07531661
Pt       9.82524823       5.67261061      22.29206804        3      -0.00266014       0.02618655      -0.08330514
Pt      -0.00000056       1.62074572      24.58417389        2       0.13947415       0.07625083       0.24127625
Pt       2.80721443       1.62074548      24.58417398        2      -0.13577479       0.08265422       0.24124710
Pt       5.61442779       1.62074532      24.58417370        2       0.00901710      -0.04579058      -0.06487919
Pt       1.40360636       4.05186439      24.58417390        2      -0.00369113      -0.15891162       0.24116799
Pt       4.21082088       4.05186401      24.58417381        2       0.00536885       0.01147853       0.01486669
Pt       7.01803503       4.05186407      24.58417407        2      -0.01269795      -0.00108645       0.01479213
Pt       2.80721279       6.48298345      24.58417372        2      -0.04417478       0.01501551      -0.06501753
Pt       5.61442797       6.48298324      24.58417392        2       0.00731724      -0.01041314       0.01464471
Pt       8.42164222       6.48298343      24.58417383        2       0.03515640       0.03074110      -0.06512339
Pt      -0.01154546      -0.01649226      26.90590808        1       0.00065373      -0.02126783      -0.00254746
Pt       2.81578760      -0.01242523      26.90866436        1       0.00602503      -0.03254835      -0.02097721
Pt       5.61442407      -0.00001189      26.92670212        1       0.00000835       0.00001830      -0.00936452
Pt       1.40360638       2.43113912      26.99498253        1      -0.00000053      -0.00000966       0.03638090
Pt       4.23085553       2.42935581      26.90590752        1       0.01817643       0.01119196      -0.00255318
Pt       7.00299911       2.42988234      26.90866589        1      -0.03128351       0.01102188      -0.02091640
Pt       2.81367571       4.87585071      26.90866569        1       0.02525169       0.02164828      -0.02084326
Pt       5.61443140       4.86222745      26.92785403        1      -0.00000464       0.00000672      -0.01782425
Pt       8.41315133       4.88044722      26.90590176        1      -0.01882015       0.01019998      -0.00254804
N        1.40360487       2.43113644      29.15756421        0       0.00016438       0.00085716      -0.03635086
H        2.37539601       2.43305581      29.49423779        0      -0.04329752      -0.00142794       0.00136921
H        0.91926489       1.58859105      29.49408963        0       0.02163622       0.03755774       0.00190009
H        0.91616526       3.27177765      29.49438742        0       0.02149906      -0.03721896       0.00095069
