40
Lattice="8.421641763931781 0.0 0.0 4.2108208819658905 7.293355709136913 0.0 0.0 0.0 46.87624170604845" Properties=species:S:1:pos:R:3:tags:I:1:forces:R:3 charge=0 spin=0 energy=-206.41996837576988 free_energy=-206.41996837576988 stress="0.01037277840077877 -9.428365956409834e-06 -2.194350781792309e-05 -9.428365956409834e-06 0.01055864617228508 -1.300016538152704e-05 -2.194350781792309e-05 -1.300016538152704e-05 -0.00017303052300121635" pbc="T T T"
Pt      -0.00000005       0.00000022      19.95723419        4       0.00072257       0.00375610       0.01822516
Pt       2.80721406      -0.00000018      19.95723436        4       0.00037252       0.00319434       0.01855574
Pt       5.61442778      -0.00000006      19.95723442        4       0.00011740       0.00324636       0.01880328
Pt       1.40360717       2.43111838      19.95723425        4      -0.00007571       0.00330724       0.01855729
Pt       4.21082080       2.43111835      19.95723435        4       0.00015114       0.00287355       0.01829651
Pt       7.01803478       2.43111843      19.95723423        4       0.00034143       0.00308839       0.01840421
Pt       2.80721408       4.86223724      19.95723395        4      -0.00006877       0.00318848       0.01754262
Pt       5.61442803       4.86223730      19.95723413        4       0.00053795       0.00284793       0.01739904
Pt       8.42164138       4.86223726      19.95723427        4       0.00008152       0.00293916       0.01842211
Pt       1.40360728       0.81037260      22.29206790        3       0.00343502       0.01128706      -0.05281687
Pt       4.21082128       0.81037250      22.29206784        3       0.00285198       0.01218024      -0.05131095
Pt       7.01803477       0.81037260      22.29206779        3       0.00287156       0.01182174      -0.05386434
Pt       2.80721450       3.24149125      22.29206775        3       0.00378535       0.01116288      -0.05198528
Pt       5.61442762       3.24149123      22.29206790        3       0.00254006       0.01123801      -0.05094711
Pt       8.42164156       3.24149116      22.29206805        3       0.00358530       0.01272319      -0.05071390
Pt       4.21082094       5.67260998      22.29206797        3       0.00227549       0.01408517      -0.04915143
Pt       7.01803488       5.67261038      22.29206774        3       0.00387389       0.01327387      -0.05068763
Pt       9.82524823       5.67261061      22.29206804        3       0.00369990       0.01383460      -0.05148456
Pt      -0.00000056       1.62074572      24.58417389        2      -0.00903942      -0.03173076       0.03410614
Pt       2.80721443       1.62074548      24.58417398        2      -0.01496292      -0.03238353       0.02289487
Pt       5.61442779       1.62074532      24.58417370        2      -0.00697540      -0.03355759       0.02385638
Pt       1.40360636       4.05186439      24.58417390        2      -0.00781052      -0.03772571       0.02995897
Pt       4.21082088       4.05186401      24.58417381        2      -0.00818738      -0.03339418       0.02411664
Pt       7.01803503       4.05186407      24.58417407        2      -0.00981990      -0.03582131       0.02874254
Pt       2.80721279       6.48298345      24.58417372        2      -0.01272284      -0.03718875       0.03094560
Pt       5.61442797       6.48298324      24.58417392        2      -0.00873500      -0.03889131       0.02503131
Pt       8.42164222       6.48298343      24.58417383        2      -0.00582117      -0.03892207       0.00832429
Pt      -0.01046114      -0.04795980      26.91242164        1       0.00627836       0.01825896       0.01089842
Pt       2.79873052      -0.04687759      26.91362292        1      -0.02626148       0.01704853       0.01029999
Pt       5.60113064      -0.04773772      26.91510472        1       0.03421900       0.01526163       0.01489803
Pt       1.39295839       2.38373087      26.91720632        1      -0.00156721       0.01959748      -0.00242043
Pt       4.20005202       2.38171337      26.91515386        1       0.00724317       0.04001047       0.00889832
Pt       7.00650552       2.38271420      26.91574773        1       0.01312390       0.02171359       0.00387970
Pt       2.79529092       4.81186010      26.91482965        1       0.01130729       0.02840429       0.00592358
Pt       5.60406807       4.81324819      26.91507517        1      -0.00218801       0.02247841       0.00369289
Pt       8.40968702       4.81641941      26.91506378        1       0.00967837      -0.00329589       0.00718217
N        4.13476513       0.03688632      30.81715613        0       0.01378574       0.00330113       0.01182308
H        5.15475839       0.03293772      30.68941497        0       0.01388508      -0.00651762       0.00092102
H        3.77732545      -0.79190344      30.32374255        0      -0.00898997       0.03063210      -0.00246276
H        3.78360536       0.85859650      30.30790600        0      -0.01753867      -0.02732622      -0.00275440
