40
Lattice="8.421641763931781 0.0 0.0 4.2108208819658905 7.293355709136913 0.0 0.0 0.0 46.87624170604845" Properties=species:S:1:pos:R:3:tags:I:1:forces:R:3 charge=0 spin=0 energy=-206.4284732433236 free_energy=-206.4284732433236 stress="0.010261421091854572 -4.6898205141587823e-07 4.930587049756241e-09 -4.6898205141587823e-07 0.01026141457259655 1.9328342659719056e-07 4.930587049756241e-09 1.9328342659719056e-07 -0.0002623141626827419" pbc="T T T"
Pt      -0.00000005       0.00000022      19.95723419        4       0.00000302      -0.00000093       0.02024893
Pt       2.80721406      -0.00000018      19.95723436        4       0.00189753      -0.00070808       0.02007070
Pt       5.61442778      -0.00000006      19.95723442        4      -0.00045062      -0.00095986       0.01983506
Pt       1.40360717       2.43111838      19.95723425        4      -0.00060977       0.00086908       0.01982193
Pt       4.21082080       2.43111835      19.95723435        4       0.00000066       0.00000152       0.02018788
Pt       7.01803478       2.43111843      19.95723423        4      -0.00033710       0.00200468       0.02008148
Pt       2.80721408       4.86223724      19.95723395        4      -0.00156285      -0.00129571       0.02008483
Pt       5.61442803       4.86223730      19.95723413        4       0.00105885       0.00009181       0.01984265
Pt       8.42164138       4.86223726      19.95723427        4       0.00000117      -0.00000429      -0.00010212
Pt       1.40360728       0.81037260      22.29206790        3      -0.00099294      -0.00051975      -0.05586914
Pt       4.21082128       0.81037250      22.29206784        3      -0.00000631       0.00060345      -0.06012685
Pt       7.01803477       0.81037260      22.29206779        3       0.00091771      -0.00057830      -0.05582631
Pt       2.80721450       3.24149125      22.29206775        3       0.00048474      -0.00030979      -0.06010988
Pt       5.61442762       3.24149123      22.29206790        3      -0.00048604      -0.00028674      -0.06007848
Pt       8.42164156       3.24149116      22.29206805        3       0.00026179      -0.00453069      -0.04495457
Pt       4.21082094       5.67260998      22.29206797        3       0.00006974       0.00110477      -0.05582778
Pt       7.01803488       5.67261038      22.29206774        3      -0.00403130       0.00201649      -0.04496657
Pt       9.82524823       5.67261061      22.29206804        3       0.00377735       0.00250028      -0.04495384
Pt      -0.00000056       1.62074572      24.58417389        2      -0.00138883      -0.04159580       0.07025027
Pt       2.80721443       1.62074548      24.58417398        2       0.00519991       0.00764681       0.01388760
Pt       5.61442779       1.62074532      24.58417370        2      -0.00921877       0.00073681       0.01384372
Pt       1.40360636       4.05186439      24.58417390        2      -0.02324965       0.01302538      -0.01422688
Pt       4.21082088       4.05186401      24.58417381        2       0.00396514      -0.00833447       0.01383290
Pt       7.01803503       4.05186407      24.58417407        2       0.02294930       0.01363690      -0.01432701
Pt       2.80721279       6.48298345      24.58417372        2       0.03677508       0.01954184       0.07028536
Pt       5.61442797       6.48298324      24.58417392        2      -0.03534527       0.02204512       0.07023894
Pt       8.42164222       6.48298343      24.58417383        2       0.00031642      -0.02668582      -0.01426514
Pt      -0.00000143       0.00001073      26.93304228        1       0.00000392       0.00000708       0.03855922
Pt       2.81712393       0.00121453      26.90942834        1      -0.00589141      -0.00115387       0.00557187
Pt       5.60582363       0.00121793      26.91052211        1       0.00524649      -0.00125679       0.00490026
Pt       1.40896869       2.43796642      26.91054837        1      -0.00371254      -0.00393067       0.00483463
Pt       4.21082184       2.43111830      26.92142355        1      -0.00000038       0.00000210       0.00081448
Pt       7.01203813       2.43909859      26.90943132        1       0.00392988      -0.00453719       0.00553007
Pt       2.80330233       4.85304283      26.90945488        1       0.00195747       0.00570486       0.00548773
Pt       5.61766895       4.85417102      26.91052005        1      -0.00153177       0.00520281       0.00485546
Pt       8.42164183       4.86223864      26.91858285        1      -0.00000109       0.00000148       0.00041876
N        0.00000135      -0.00010753      29.83986821        0      -0.00008711      -0.00158939       0.04936418
H       -0.98407697       0.00017661      29.56565530        0      -0.02313492      -0.00044819      -0.00238791
H        0.49205543       0.85219352      29.56602782        0       0.01224814       0.02109061      -0.00269660
H        0.49202193      -0.85227629      29.56528075        0       0.01097421      -0.01910728      -0.00212987
