40
Lattice="8.421641763931781 0.0 0.0 4.2108208819658905 7.293355709136913 0.0 0.0 0.0 46.87624170604845" Properties=species:S:1:pos:R:3:tags:I:1:forces:R:3 charge=0 spin=0 energy=-206.99282337149742 free_energy=-206.99282337149742 stress="0.010041488334536552 -9.2895334091736e-08 -1.9725728606090343e-08 -9.2895334091736e-08 0.01004148367792368 5.7664673036583736e-09 -1.9725728606090343e-08 5.7664673036583736e-09 -0.0001748078066157177" pbc="T T T"
Pt      -0.00000005       0.00000022      19.95723419        4       0.00249415      -0.00436152       0.02149920
Pt       2.80721406      -0.00000018      19.95723436        4      -0.00140970      -0.00510614       0.02217638
Pt       5.61442778      -0.00000006      19.95723442        4      -0.00000102       0.00000419       0.01856428
Pt       1.40360717       2.43111838      19.95723425        4      -0.00000006       0.00000095       0.02436789
Pt       4.21082080       2.43111835      19.95723435        4       0.00252754       0.00433716       0.02150764
Pt       7.01803478       2.43111843      19.95723423        4      -0.00371690       0.00377155       0.02212331
Pt       2.80721408       4.86223724      19.95723395        4       0.00512294       0.00133545       0.02215518
Pt       5.61442803       4.86223730      19.95723413        4      -0.00000166      -0.00000273      -0.04318843
Pt       8.42164138       4.86223726      19.95723427        4      -0.00501605       0.00002019       0.02152380
Pt       1.40360728       0.81037260      22.29206790        3       0.00199840      -0.00068885      -0.07438367
Pt       4.21082128       0.81037250      22.29206784        3       0.00298605       0.00094933      -0.04524994
Pt       7.01803477       0.81037260      22.29206779        3      -0.00072906      -0.00308299      -0.04528520
Pt       2.80721450       3.24149125      22.29206775        3      -0.00037466       0.00210820      -0.07423266
Pt       5.61442762       3.24149123      22.29206790        3      -0.00149273       0.02584329      -0.08390070
Pt       8.42164156       3.24149116      22.29206805        3      -0.00163035      -0.00141060      -0.07428604
Pt       4.21082094       5.67260998      22.29206797        3       0.02315272      -0.01165092      -0.08393716
Pt       7.01803488       5.67261038      22.29206774        3      -0.02166198      -0.01419137      -0.08395272
Pt       9.82524823       5.67261061      22.29206804        3      -0.00225373       0.00213231      -0.04519166
Pt      -0.00000056       1.62074572      24.58417389        2       0.00706509       0.00868290       0.01799941
Pt       2.80721443       1.62074548      24.58417398        2      -0.01111251       0.00179864       0.01794062
Pt       5.61442779       1.62074532      24.58417370        2      -0.00462987      -0.15920272       0.24152133
Pt       1.40360636       4.05186439      24.58417390        2       0.00405623      -0.01047728       0.01776326
Pt       4.21082088       4.05186401      24.58417381        2       0.03695084       0.02438526      -0.06721119
Pt       7.01803503       4.05186407      24.58417407        2      -0.03957371       0.01976827      -0.06712186
Pt       2.80721279       6.48298345      24.58417372        2      -0.13552794       0.08360006       0.24149303
Pt       5.61442797       6.48298324      24.58417392        2       0.00260697      -0.04415549      -0.06697078
Pt       8.42164222       6.48298343      24.58417383        2       0.14016956       0.07560474       0.24152489
Pt       0.01770790      -0.00203767      26.90784014        1       0.02422700       0.01461896      -0.01244427
Pt       2.79000907      -0.00148364      26.90707827        1      -0.02551457       0.01521135      -0.01262939
Pt       5.61442795      -0.00000157      26.99524044        1       0.00000294       0.00000431       0.03442983
Pt       1.40361058       2.43111981      26.92918786        1       0.00000252      -0.00000605      -0.01948309
Pt       4.20374241       2.44747264      26.90784306        1      -0.02477074       0.01367364      -0.01246009
Pt       7.02535762       2.44675999      26.90707994        1       0.02593925       0.01448155      -0.01257362
Pt       2.81709811       4.84807978      26.90707514        1      -0.00043088      -0.02970694      -0.01268478
Pt       5.61442514       4.86223716      26.92455796        1       0.00000142       0.00000091      -0.00622804
Pt       8.41101250       4.84792155      26.90783750        1       0.00054500      -0.02828933      -0.01242236
N        5.61442879      -0.00000153      29.15768872        0      -0.00012044       0.00013835      -0.03573070
H        4.77329103       0.48657549      29.49438071        0       0.03821080      -0.02211354       0.00161884
H        6.45638213       0.48515701      29.49437925        0      -0.03813420      -0.02198277       0.00166744
H        5.61360985      -0.97173232      29.49437824        0       0.00004322       0.04395766       0.00169239
