40
Lattice="8.421641763931781 0.0 0.0 4.2108208819658905 7.293355709136913 0.0 0.0 0.0 46.87624170604845" Properties=species:S:1:pos:R:3:tags:I:1:forces:R:3 charge=0 spin=0 energy=-206.42418170889977 free_energy=-206.42418170889977 stress="0.01042239461094141 4.6895813454739255e-08 -3.231394174463276e-08 4.6895813454739255e-08 0.010422492399811745 9.671904166452805e-08 -3.231394174463276e-08 9.671904166452805e-08 -0.00023647915804758668" pbc="T T T"
Pt      -0.00000005       0.00000022      19.95723419        4      -0.00002914      -0.00030197       0.01850726
Pt       2.80721406      -0.00000018      19.95723436        4      -0.00061345       0.00000397       0.01770752
Pt       5.61442778      -0.00000006      19.95723442        4       0.00030073      -0.00052505       0.01769692
Pt       1.40360717       2.43111838      19.95723425        4      -0.00002244       0.00016716       0.01862179
Pt       4.21082080       2.43111835      19.95723435        4       0.00030753       0.00052757       0.01771009
Pt       7.01803478       2.43111843      19.95723423        4       0.00015438      -0.00006427       0.01862366
Pt       2.80721408       4.86223724      19.95723395        4       0.00027375       0.00012054       0.01850472
Pt       5.61442803       4.86223730      19.95723413        4      -0.00024559       0.00017403       0.01850877
Pt       8.42164138       4.86223726      19.95723427        4      -0.00013560      -0.00010365       0.01861806
Pt       1.40360728       0.81037260      22.29206790        3      -0.00017997       0.00158552      -0.05207899
Pt       4.21082128       0.81037250      22.29206784        3      -0.00000912       0.00000801      -0.04673197
Pt       7.01803477       0.81037260      22.29206779        3       0.00094061       0.00154072      -0.05180730
Pt       2.80721450       3.24149125      22.29206775        3      -0.00180869       0.00006059      -0.05182415
Pt       5.61442762       3.24149123      22.29206790        3       0.00145339      -0.00063134      -0.05208993
Pt       8.42164156       3.24149116      22.29206805        3      -0.00000196       0.00000681      -0.05359844
Pt       4.21082094       5.67260998      22.29206797        3      -0.00000827       0.00000907      -0.04988051
Pt       7.01803488       5.67261038      22.29206774        3       0.00084435      -0.00158871      -0.05180759
Pt       9.82524823       5.67261061      22.29206804        3      -0.00128177      -0.00094789      -0.05209365
Pt      -0.00000056       1.62074572      24.58417389        2       0.00234725      -0.01434109       0.00177875
Pt       2.80721443       1.62074548      24.58417398        2       0.00271299      -0.00266952       0.01073660
Pt       5.61442779       1.62074532      24.58417370        2      -0.00366438      -0.00099100       0.01070724
Pt       1.40360636       4.05186439      24.58417390        2       0.01126597       0.00919413       0.00176589
Pt       4.21082088       4.05186401      24.58417381        2      -0.00063628       0.00355787       0.03534297
Pt       7.01803503       4.05186407      24.58417407        2      -0.01356625       0.00516229       0.00175453
Pt       2.80721279       6.48298345      24.58417372        2       0.00340159      -0.00120491       0.03536329
Pt       5.61442797       6.48298324      24.58417392        2      -0.00272625      -0.00232559       0.03537816
Pt       8.42164222       6.48298343      24.58417383        2       0.00097183       0.00366811       0.01074391
Pt      -0.00072094       0.00102410      26.91720353        1       0.00336420      -0.01956891      -0.00569897
Pt       2.80858947      -0.00057550      26.91171152        1      -0.01398276      -0.00252901       0.01394725
Pt       5.61425391       0.00147101      26.91171241        1       0.00915663      -0.01088139       0.01398743
Pt       1.40177340       2.43242778      26.90730094        1       0.02311330      -0.01882196       0.03990472
Pt       4.20965148       2.43022313      26.91170272        1       0.00482775       0.01336081       0.01377221
Pt       7.02010435       2.43206259      26.90729957        1      -0.02786371      -0.01060271       0.03994310
Pt       2.80670461       4.86108916      26.91719707        1       0.01525845       0.01270430      -0.00575399
Pt       5.61569544       4.86236035      26.91719574        1      -0.01865735       0.00684320      -0.00577793
Pt       8.42144128       4.85998291      26.90730787        1       0.00473635       0.02940142       0.04001257
N        8.42159787       3.24142505      30.80532732        0       0.00005738       0.00004767      -0.01907102
H        7.52621752       3.56344054      30.41329183        0       0.03193566      -0.01287060       0.00951169
H        9.14810528       3.85584549      30.41319014        0      -0.02722355      -0.02129284       0.00954794
H        8.59038307       2.30504764      30.41315188        0      -0.00476738       0.03411831       0.00951726
