40
Lattice="8.421641763931781 0.0 0.0 4.2108208819658905 7.293355709136913 0.0 0.0 0.0 46.87624170604845" Properties=species:S:1:pos:R:3:tags:I:1:forces:R:3 charge=0 spin=0 energy=-206.41819454154137 free_energy=-206.41819454154137 stress="0.010382723063230515 7.291693691513501e-06 -6.1027376432321034e-06 7.291693691513501e-06 0.010573122650384903 -1.1921149962290656e-05 -6.1027376432321034e-06 -1.1921149962290656e-05 -0.00018374038336332887" pbc="T T T"
Pt      -0.00000005       0.00000022      19.95723419        4      -0.00047275       0.00323189       0.01848988
Pt       2.80721406      -0.00000018      19.95723436        4      -0.00040036       0.00366413       0.01715453
Pt       5.61442778      -0.00000006      19.95723442        4      -0.00037203       0.00329644       0.01719395
Pt       1.40360717       2.43111838      19.95723425        4      -0.00030299       0.00351988       0.01878381
Pt       4.21082080       2.43111835      19.95723435        4       0.00000614       0.00393688       0.01851265
Pt       7.01803478       2.43111843      19.95723423        4      -0.00023445       0.00349298       0.01881687
Pt       2.80721408       4.86223724      19.95723395        4       0.00004593       0.00361417       0.01840639
Pt       5.61442803       4.86223730      19.95723413        4      -0.00098555       0.00389790       0.01839514
Pt       8.42164138       4.86223726      19.95723427        4      -0.00056605       0.00363300       0.01851227
Pt       1.40360728       0.81037260      22.29206790        3       0.00060287       0.01618725      -0.05210218
Pt       4.21082128       0.81037250      22.29206784        3       0.00062030       0.01579401      -0.04491382
Pt       7.01803477       0.81037260      22.29206779        3       0.00153180       0.01550064      -0.05130702
Pt       2.80721450       3.24149125      22.29206775        3      -0.00075097       0.01435602      -0.05366605
Pt       5.61442762       3.24149123      22.29206790        3       0.00123036       0.01386308      -0.05405392
Pt       8.42164156       3.24149116      22.29206805        3       0.00041714       0.01403399      -0.05255225
Pt       4.21082094       5.67260998      22.29206797        3       0.00092980       0.01502239      -0.04996540
Pt       7.01803488       5.67261038      22.29206774        3       0.00133215       0.01270542      -0.05176398
Pt       9.82524823       5.67261061      22.29206804        3      -0.00035484       0.01322277      -0.05247261
Pt      -0.00000056       1.62074572      24.58417389        2       0.00039598      -0.04652788       0.01534917
Pt       2.80721443       1.62074548      24.58417398        2       0.00094293      -0.04356853       0.02865188
Pt       5.61442779       1.62074532      24.58417370        2      -0.00338742      -0.04409202       0.02752567
Pt       1.40360636       4.05186439      24.58417390        2      -0.00163816      -0.03767529       0.02272822
Pt       4.21082088       4.05186401      24.58417381        2      -0.00168951      -0.04242166       0.03330584
Pt       7.01803503       4.05186407      24.58417407        2      -0.00251312      -0.03969561       0.02316361
Pt       2.80721279       6.48298345      24.58417372        2       0.00024188      -0.03903151       0.02077772
Pt       5.61442797       6.48298324      24.58417392        2      -0.00019704      -0.04078895       0.02080506
Pt       8.42164222       6.48298343      24.58417383        2      -0.00072319      -0.03790399       0.01964947
Pt      -0.00181468      -0.05803226      26.91664731        1       0.00105497       0.02783667       0.00182128
Pt       2.80363410      -0.05985375      26.91455485        1       0.01394226       0.04305588       0.01249377
Pt       5.61492212      -0.05942373      26.91431878        1      -0.01239970       0.04318531       0.01308805
Pt       1.40300985       2.37500435      26.91281242        1       0.00649305       0.01944228       0.01523397
Pt       4.20940251       2.37462489      26.91574572        1       0.00120872       0.01902067      -0.00158500
Pt       7.01564549       2.37549563      26.91280800        1      -0.00629423       0.02058274       0.01569360
Pt       2.80560016       4.80713591      26.91535875        1       0.00749743       0.01061774       0.01019401
Pt       5.61363196       4.80781806      26.91574523        1      -0.00602731       0.00954579       0.00918611
Pt       8.42067487       4.80770433      26.91595073        1       0.00058159       0.01697792       0.00175990
N        8.42177890       2.50022033      30.72428033        0       0.00004939       0.00793512      -0.00208320
H        9.25008202       3.02358723      30.41067279        0      -0.02528937      -0.02805166      -0.00322263
H        8.42382754       1.60681564      30.21368045        0       0.00033856       0.04621064       0.01611908
H        7.60018933       3.02662236      30.39837708        0       0.02513577      -0.02762658      -0.00212380
