40
Lattice="8.421641763931781 0.0 0.0 4.2108208819658905 7.293355709136913 0.0 0.0 0.0 46.87624170604845" Properties=species:S:1:pos:R:3:tags:I:1:forces:R:3 charge=0 spin=0 energy=-206.42436672171715 free_energy=-206.42436672171715 stress="0.010506085120141506 1.9243474525865167e-05 8.157106094586197e-06 1.9243474525865167e-05 0.01046579796820879 2.318606675544288e-06 8.157106094586197e-06 2.318606675544288e-06 -9.861895523499697e-05" pbc="T T T"
Pt      -0.00000005       0.00000022      19.95723419        4      -0.00125603      -0.00113889       0.01883334
Pt       2.80721406      -0.00000018      19.95723436        4      -0.00109199      -0.00108383       0.01870056
Pt       5.61442778      -0.00000006      19.95723442        4      -0.00124122      -0.00037802       0.01855830
Pt       1.40360717       2.43111838      19.95723425        4      -0.00159572      -0.00087301       0.01719929
Pt       4.21082080       2.43111835      19.95723435        4      -0.00094609      -0.00152442       0.01850869
Pt       7.01803478       2.43111843      19.95723423        4      -0.00161010      -0.00088508       0.01852467
Pt       2.80721408       4.86223724      19.95723395        4      -0.00110606      -0.00123914       0.01858089
Pt       5.61442803       4.86223730      19.95723413        4      -0.00142314      -0.00081440       0.01887359
Pt       8.42164138       4.86223726      19.95723427        4      -0.00092043      -0.00121644       0.01729622
Pt       1.40360728       0.81037260      22.29206790        3      -0.00646310      -0.00398919      -0.05366217
Pt       4.21082128       0.81037250      22.29206784        3      -0.00629126      -0.00330199      -0.05168947
Pt       7.01803477       0.81037260      22.29206779        3      -0.00507651      -0.00421867      -0.05280524
Pt       2.80721450       3.24149125      22.29206775        3      -0.00452478      -0.00284995      -0.05184230
Pt       5.61442762       3.24149123      22.29206790        3      -0.00489832      -0.00296474      -0.05332894
Pt       8.42164156       3.24149116      22.29206805        3      -0.00656853      -0.00387901      -0.04567658
Pt       4.21082094       5.67260998      22.29206797        3      -0.00517016      -0.00331698      -0.04981463
Pt       7.01803488       5.67261038      22.29206774        3      -0.00624081      -0.00280015      -0.05213002
Pt       9.82524823       5.67261061      22.29206804        3      -0.00467676      -0.00337460      -0.05282471
Pt      -0.00000056       1.62074572      24.58417389        2       0.01303329       0.01219463       0.03692936
Pt       2.80721443       1.62074548      24.58417398        2       0.01564331       0.01204697       0.03004324
Pt       5.61442779       1.62074532      24.58417370        2       0.01905332       0.01183148       0.04281617
Pt       1.40360636       4.05186439      24.58417390        2       0.01186199       0.00899855       0.03205866
Pt       4.21082088       4.05186401      24.58417381        2       0.01869040       0.01322202       0.03560689
Pt       7.01803503       4.05186407      24.58417407        2       0.01486765       0.00800099       0.03820030
Pt       2.80721279       6.48298345      24.58417372        2       0.01823481       0.00719240       0.03141153
Pt       5.61442797       6.48298324      24.58417392        2       0.01476947       0.00878427       0.03380486
Pt       8.42164222       6.48298343      24.58417383        2       0.01492754       0.00930398       0.02946779
Pt       0.02033772       0.01645064      26.91621617        1      -0.00425235      -0.01910971      -0.00363623
Pt       2.83010326       0.01397067      26.91630721        1      -0.01065159      -0.00777622      -0.00437393
Pt       5.63702128       0.01199933      26.91438209        1      -0.01525081       0.00635843       0.00662466
Pt       1.42677022       2.44226300      26.91531628        1      -0.01768023       0.01043504       0.00360724
Pt       4.23118245       2.44666636      26.91553545        1      -0.00319939      -0.01656120       0.00361619
Pt       7.03964599       2.44471645      26.91939776        1      -0.00850659      -0.00752388      -0.01543808
Pt       2.82636930       4.87488415      26.91643431        1      -0.00230064      -0.00208582      -0.00685217
Pt       5.63772737       4.87313731      26.91788070        1      -0.02096948       0.00378471      -0.00573487
Pt       8.44094417       4.87772504      26.91545827        1       0.00292736      -0.01892808       0.00275856
N        4.89522212       6.08384537      30.74298585        0      -0.00322681       0.00656543      -0.03655151
H        5.37818082       5.24308657      30.39830576        0      -0.01392812       0.02037513       0.00917698
H        3.95071355       6.06439825      30.33645004        0      -0.01111074      -0.02730617       0.01724198
H        5.37110315       6.88852014      30.31431245        0       0.02816873       0.00004559       0.01792086
