40
Lattice="8.421641763931781 0.0 0.0 4.2108208819658905 7.293355709136913 0.0 0.0 0.0 46.87624170604845" Properties=species:S:1:pos:R:3:tags:I:1:forces:R:3 charge=0 spin=0 energy=-206.42601276358727 free_energy=-206.42601276358727 stress="0.01049132738262415 -6.417275244530174e-07 2.702801316090131e-09 -6.417275244530174e-07 0.01049103308469057 5.399858196142304e-07 2.702801316090131e-09 5.399858196142304e-07 -4.3490090320119634e-05" pbc="T T T"
Pt      -0.00000005       0.00000022      19.95723419        4       0.00030270       0.00015149       0.01881801
Pt       2.80721406      -0.00000018      19.95723436        4      -0.00028365       0.00018542       0.01881358
Pt       5.61442778      -0.00000006      19.95723442        4       0.00031713      -0.00002835       0.01781795
Pt       1.40360717       2.43111838      19.95723425        4      -0.00002060      -0.00033225       0.01880283
Pt       4.21082080       2.43111835      19.95723435        4       0.00031580      -0.00002814       0.01852117
Pt       7.01803478       2.43111843      19.95723423        4      -0.00013278       0.00029010       0.01852349
Pt       2.80721408       4.86223724      19.95723395        4      -0.00018952      -0.00026622       0.01783608
Pt       5.61442803       4.86223730      19.95723413        4      -0.00017900      -0.00026511       0.01853345
Pt       8.42164138       4.86223726      19.95723427        4      -0.00012562       0.00027917       0.01784304
Pt       1.40360728       0.81037260      22.29206790        3       0.00000318       0.00000527      -0.04732389
Pt       4.21082128       0.81037250      22.29206784        3      -0.00026022       0.00007733      -0.05319371
Pt       7.01803477       0.81037260      22.29206779        3       0.00039689      -0.00072429      -0.05301382
Pt       2.80721450       3.24149125      22.29206775        3      -0.00082937      -0.00000969      -0.05301690
Pt       5.61442762       3.24149123      22.29206790        3       0.00000304      -0.00001855      -0.05176985
Pt       8.42164156       3.24149116      22.29206805        3       0.00007106      -0.00033589      -0.05312886
Pt       4.21082094       5.67260998      22.29206797        3       0.00021913       0.00018901      -0.05316457
Pt       7.01803488       5.67261038      22.29206774        3       0.00039331       0.00070029      -0.05298921
Pt       9.82524823       5.67261061      22.29206804        3       0.00003183       0.00002329      -0.04714356
Pt      -0.00000056       1.62074572      24.58417389        2       0.00543624      -0.00475795       0.03784424
Pt       2.80721443       1.62074548      24.58417398        2      -0.00674995      -0.00259419       0.03790999
Pt       5.61442779       1.62074532      24.58417370        2      -0.00084268      -0.00474389       0.03808647
Pt       1.40360636       4.05186439      24.58417390        2      -0.00021444       0.00304451       0.05156358
Pt       4.21082088       4.05186401      24.58417381        2      -0.00369209       0.00316660       0.03810341
Pt       7.01803503       4.05186407      24.58417407        2       0.00453677       0.00175149       0.03813123
Pt       2.80721279       6.48298345      24.58417372        2      -0.00233280      -0.00151397       0.05182684
Pt       5.61442797       6.48298324      24.58417392        2       0.00131481       0.00722662       0.03816039
Pt       8.42164222       6.48298343      24.58417383        2       0.00247864      -0.00116806       0.05187725
Pt      -0.00093059      -0.00076664      26.92032086        1      -0.00168304       0.00190829      -0.01809187
Pt       2.80836891      -0.00035617      26.92037225        1      -0.00076086      -0.00239156      -0.01821305
Pt       5.61488917       0.00302580      26.91942222        1      -0.00053069      -0.02399154      -0.02014623
Pt       1.40336841       2.43241436      26.92017255        1       0.00248132       0.00044551      -0.01763119
Pt       4.20836823       2.42945501      26.91405053        1       0.01413393       0.00805268       0.00673045
Pt       7.02070758       2.42988861      26.91404583        1      -0.01399241       0.00825979       0.00673690
Pt       2.80956576       4.86040449      26.91941891        1      -0.02061877       0.01219819      -0.01995179
Pt       5.61417766       4.86524886      26.91407987        1      -0.00015476      -0.01619197       0.00672517
Pt       8.41879327       4.86124125      26.91942692        1       0.02113955       0.01132100      -0.01997533
N        1.40359394       0.81396637      30.84417738        0      -0.00003527      -0.00141066      -0.02733644
H        2.35060940       0.81259460      30.44402715        0       0.04643053       0.00052628       0.01226547
H        0.93347470      -0.01303595      30.45432294        0      -0.02532344      -0.03979502       0.01271082
H        0.92672409       1.62708534      30.43377569        0      -0.02105389       0.04076486       0.01190836
