40
Lattice="8.421641763931781 0.0 0.0 4.2108208819658905 7.293355709136913 0.0 0.0 0.0 46.87624170604845" Properties=species:S:1:pos:R:3:tags:I:1:forces:R:3 charge=0 spin=0 energy=-206.4211547466195 free_energy=-206.4211547466195 stress="0.010377521626651287 9.941886673914269e-06 -1.7515241097498802e-06 9.941886673914269e-06 0.01054065115749836 -1.6504740415257402e-05 -1.7515241097498802e-06 -1.6504740415257402e-05 -0.00017746954108588398" pbc="T T T"
Pt      -0.00000005       0.00000022      19.95723419        4      -0.00024595       0.00302253       0.01876685
Pt       2.80721406      -0.00000018      19.95723436        4      -0.00051852       0.00307647       0.01881632
Pt       5.61442778      -0.00000006      19.95723442        4      -0.00007720       0.00343172       0.01844861
Pt       1.40360717       2.43111838      19.95723425        4      -0.00064925       0.00295551       0.01839172
Pt       4.21082080       2.43111835      19.95723435        4      -0.00023355       0.00287316       0.01840565
Pt       7.01803478       2.43111843      19.95723423        4      -0.00084032       0.00319049       0.01843201
Pt       2.80721408       4.86223724      19.95723395        4      -0.00049266       0.00270478       0.01725383
Pt       5.61442803       4.86223730      19.95723413        4      -0.00054649       0.00288944       0.01862542
Pt       8.42164138       4.86223726      19.95723427        4      -0.00036606       0.00307690       0.01730510
Pt       1.40360728       0.81037260      22.29206790        3      -0.00035614       0.01176298      -0.05051018
Pt       4.21082128       0.81037250      22.29206784        3      -0.00042088       0.01170539      -0.05405819
Pt       7.01803477       0.81037260      22.29206779        3      -0.00044187       0.01101363      -0.05429105
Pt       2.80721450       3.24149125      22.29206775        3      -0.00039382       0.01125022      -0.05145841
Pt       5.61442762       3.24149123      22.29206790        3       0.00031219       0.01199786      -0.05108278
Pt       8.42164156       3.24149116      22.29206805        3      -0.00000185       0.01040525      -0.05099816
Pt       4.21082094       5.67260998      22.29206797        3       0.00009768       0.01257046      -0.05105895
Pt       7.01803488       5.67261038      22.29206774        3       0.00028878       0.01357245      -0.05138832
Pt       9.82524823       5.67261061      22.29206804        3      -0.00002406       0.01415018      -0.04808238
Pt      -0.00000056       1.62074572      24.58417389        2       0.00035106      -0.03325520       0.02866152
Pt       2.80721443       1.62074548      24.58417398        2       0.00001906      -0.03181736       0.02825336
Pt       5.61442779       1.62074532      24.58417370        2       0.00045740      -0.03339801       0.03399167
Pt       1.40360636       4.05186439      24.58417390        2       0.00154133      -0.03372532       0.02135038
Pt       4.21082088       4.05186401      24.58417381        2       0.00398073      -0.03397710       0.02156227
Pt       7.01803503       4.05186407      24.58417407        2       0.00057708      -0.03382437       0.02238101
Pt       2.80721279       6.48298345      24.58417372        2       0.00230601      -0.03557262       0.02637035
Pt       5.61442797       6.48298324      24.58417392        2       0.00165077      -0.03741591       0.01380617
Pt       8.42164222       6.48298343      24.58417383        2       0.00026213      -0.03563478       0.02623667
Pt       0.00123739      -0.04650912      26.91411009        1      -0.01287346       0.02309935       0.01172187
Pt       2.80817380      -0.04724059      26.91387362        1       0.01185587       0.02279090       0.01236791
Pt       5.61557259      -0.04762514      26.91348149        1      -0.00136188       0.02285868       0.00683153
Pt       1.40520029       2.38549906      26.91721745        1      -0.00038516       0.01858172      -0.00432692
Pt       4.21174423       2.38583221      26.91501879        1       0.00351660       0.00503074       0.00760358
Pt       7.01978655       2.38648633      26.91509594        1      -0.00519811       0.00488954       0.00720113
Pt       2.81033784       4.81344272      26.91345806        1      -0.01602385       0.02948327       0.01421385
Pt       5.61493404       4.81593007      26.91650150        1       0.00024497       0.01234858       0.00140894
Pt       8.42064016       4.81279385      26.91391281        1       0.01427293       0.03089140       0.01310136
N        1.40341962       0.00438953      30.76940450        0       0.00033113      -0.00158332       0.03976168
H        2.22511187      -0.51503071      30.43584533        0       0.00769209       0.00979800      -0.01446987
H        0.57703210      -0.51621238      30.44954174        0      -0.00808611       0.00993767      -0.01508645
H        1.39874915       0.90426180      30.27235220        0      -0.00022023      -0.01515534      -0.00445919
