40
Lattice="8.421641763931781 0.0 0.0 4.2108208819658905 7.293355709136913 0.0 0.0 0.0 46.87624170604845" Properties=species:S:1:pos:R:3:tags:I:1:forces:R:3 charge=0 spin=0 energy=-206.42906452139977 free_energy=-206.42906452139977 stress="0.010530627332627773 -1.487369249986159e-08 -3.4171658835902008e-09 -1.487369249986159e-08 0.010530591942369938 -3.204697662795297e-08 -3.4171658835902008e-09 -3.204697662795297e-08 -4.5794386096531525e-05" pbc="T T T"
Pt      -0.00000005       0.00000022      19.95723419        4      -0.00000868       0.00015061       0.01870955
Pt       2.80721406      -0.00000018      19.95723436        4       0.00033131       0.00006377       0.01794344
Pt       5.61442778      -0.00000006      19.95723442        4       0.00014065      -0.00006227       0.01870485
Pt       1.40360717       2.43111838      19.95723425        4       0.00010818      -0.00012090       0.01848553
Pt       4.21082080       2.43111835      19.95723435        4       0.00005308       0.00015474       0.01849119
Pt       7.01803478       2.43111843      19.95723423        4      -0.00012913      -0.00008968       0.01871301
Pt       2.80721408       4.86223724      19.95723395        4      -0.00015613      -0.00003806       0.01849325
Pt       5.61442803       4.86223730      19.95723413        4      -0.00022113       0.00025311       0.01795001
Pt       8.42164138       4.86223726      19.95723427        4      -0.00011437      -0.00032321       0.01794700
Pt       1.40360728       0.81037260      22.29206790        3      -0.00050022       0.00080394      -0.05225741
Pt       4.21082128       0.81037250      22.29206784        3       0.00043463      -0.00020292      -0.05244365
Pt       7.01803477       0.81037260      22.29206779        3       0.00000474      -0.00000232      -0.05015341
Pt       2.80721450       3.24149125      22.29206775        3      -0.00000937      -0.00000158      -0.05500272
Pt       5.61442762       3.24149123      22.29206790        3      -0.00044185      -0.00084140      -0.05223703
Pt       8.42164156       3.24149116      22.29206805        3      -0.00039157      -0.00027580      -0.05246388
Pt       4.21082094       5.67260998      22.29206797        3      -0.00004290       0.00047515      -0.05243605
Pt       7.01803488       5.67261038      22.29206774        3      -0.00000069      -0.00001216      -0.04615232
Pt       9.82524823       5.67261061      22.29206804        3       0.00095314       0.00001370      -0.05224203
Pt      -0.00000056       1.62074572      24.58417389        2       0.00146175       0.00140116       0.02932963
Pt       2.80721443       1.62074548      24.58417398        2      -0.00108905      -0.00988079       0.04571757
Pt       5.61442779       1.62074532      24.58417370        2      -0.00200147       0.00054846       0.02929665
Pt       1.40360636       4.05186439      24.58417390        2      -0.00796940       0.00590327       0.04572006
Pt       4.21082088       4.05186401      24.58417381        2       0.00909049       0.00403507       0.04576674
Pt       7.01803503       4.05186407      24.58417407        2       0.00001125       0.00897658       0.04872031
Pt       2.80721279       6.48298345      24.58417372        2       0.00054938      -0.00195662       0.02939637
Pt       5.61442797       6.48298324      24.58417392        2       0.00772625      -0.00450218       0.04882027
Pt       8.42164222       6.48298343      24.58417383        2      -0.00780091      -0.00439297       0.04874614
Pt       0.00000868      -0.00059190      26.91513558        1       0.00562193      -0.00300967       0.00503699
Pt       2.80674039      -0.00086011      26.92234091        1       0.00123062       0.00232461      -0.02937916
Pt       5.61390718       0.00032889      26.91511236        1      -0.00548132      -0.00342202       0.00514449
Pt       1.40324321       2.43075429      26.91505319        1       0.00363581       0.00103229       0.00025821
Pt       4.21130904       2.43102471      26.91506149        1      -0.00265099       0.00259157       0.00023480
Pt       7.01854576       2.43143363      26.91509167        1      -0.00016863       0.00641553       0.00519074
Pt       2.80706660       4.86276400      26.91508349        1      -0.00094685      -0.00366141       0.00015901
Pt       5.61541966       4.86228501      26.92234410        1      -0.00263747      -0.00009621      -0.02939017
Pt       8.42111613       4.86310739      26.92230609        1       0.00141120      -0.00224765      -0.02925365
N        7.01803651       0.81037263      30.99560558        0       0.00004280      -0.00000512      -0.00904031
H        6.18547135       0.35100356      30.60206257        0       0.02775862       0.01520696       0.00314696
H        7.03648932       1.76108131      30.60206456        0      -0.00072158      -0.03167544       0.00315941
H        7.83214222       0.31903834      30.60205081        0      -0.02708190       0.01647004       0.00316967
