40
Lattice="8.421641763931781 0.0 0.0 4.2108208819658905 7.293355709136913 0.0 0.0 0.0 46.87624170604845" Properties=species:S:1:pos:R:3:tags:I:1:forces:R:3 charge=0 spin=0 energy=-206.99357677420738 free_energy=-206.99357677420738 stress="0.010039492510259151 3.753450883436926e-08 -5.046579154566189e-09 3.753450883436926e-08 0.01003954280167818 1.3502223339401098e-07 -5.046579154566189e-09 1.3502223339401098e-07 -0.00017720903269946575" pbc="T T T"
Pt      -0.00000005       0.00000022      19.95723419        4      -0.00502049       0.00020234       0.02110711
Pt       2.80721406      -0.00000018      19.95723436        4       0.00514210       0.00145936       0.02247909
Pt       5.61442778      -0.00000006      19.95723442        4      -0.00000079       0.00000432      -0.04323665
Pt       1.40360717       2.43111838      19.95723425        4      -0.00000009       0.00000134       0.01847024
Pt       4.21082080       2.43111835      19.95723435        4       0.00234098      -0.00445263       0.02108272
Pt       7.01803478       2.43111843      19.95723423        4      -0.00131921      -0.00518344       0.02250246
Pt       2.80721408       4.86223724      19.95723395        4      -0.00382578       0.00372833       0.02245055
Pt       5.61442803       4.86223730      19.95723413        4      -0.00000216      -0.00000245       0.02428740
Pt       8.42164138       4.86223726      19.95723427        4       0.00268518       0.00424813       0.02109101
Pt       1.40360728       0.81037260      22.29206790        3      -0.00301758       0.00217039      -0.04453126
Pt       4.21082128       0.81037250      22.29206784        3       0.02403952      -0.01080929      -0.08333822
Pt       7.01803477       0.81037260      22.29206779        3      -0.02137512      -0.01537198      -0.08335499
Pt       2.80721450       3.24149125      22.29206775        3      -0.00038252      -0.00374762      -0.04462492
Pt       5.61442762       3.24149123      22.29206790        3       0.00083749      -0.00066988      -0.07546227
Pt       8.42164156       3.24149116      22.29206805        3       0.00339223       0.00158974      -0.04459549
Pt       4.21082094       5.67260998      22.29206797        3      -0.00103823      -0.00040693      -0.07535800
Pt       7.01803488       5.67261038      22.29206774        3       0.00020166       0.00108677      -0.07531592
Pt       9.82524823       5.67261061      22.29206804        3      -0.00265968       0.02618590      -0.08330345
Pt      -0.00000056       1.62074572      24.58417389        2       0.13947481       0.07625047       0.24127391
Pt       2.80721443       1.62074548      24.58417398        2      -0.13577393       0.08265292       0.24124607
Pt       5.61442779       1.62074532      24.58417370        2       0.00901559      -0.04579179      -0.06488148
Pt       1.40360636       4.05186439      24.58417390        2      -0.00369280      -0.15891290       0.24117324
Pt       4.21082088       4.05186401      24.58417381        2       0.00536906       0.01147910       0.01486555
Pt       7.01803503       4.05186407      24.58417407        2      -0.01269620      -0.00108392       0.01479264
Pt       2.80721279       6.48298345      24.58417372        2      -0.04417459       0.01501554      -0.06501705
Pt       5.61442797       6.48298324      24.58417392        2       0.00731731      -0.01041309       0.01464390
Pt       8.42164222       6.48298343      24.58417383        2       0.03515590       0.03073990      -0.06512120
Pt      -0.01154551      -0.01649223      26.90590803        1       0.00065321      -0.02126960      -0.00254861
Pt       2.81578751      -0.01242551      26.90866517        1       0.00602736      -0.03254838      -0.02097660
Pt       5.61442404      -0.00001174      26.92670234        1       0.00000679       0.00001505      -0.00936471
Pt       1.40360613       2.43113791      26.99498228        1      -0.00000042      -0.00002307       0.03637167
Pt       4.23085569       2.42935599      26.90590692        1       0.01817342       0.01119006      -0.00255378
Pt       7.00299896       2.42988240      26.90866497        1      -0.03128060       0.01102144      -0.02090965
Pt       2.81367571       4.87585070      26.90866578        1       0.02524952       0.02164660      -0.02084458
Pt       5.61443122       4.86222734      26.92785471        1      -0.00000477       0.00000700      -0.01782370
Pt       8.41315138       4.88044703      26.90590208        1      -0.01881884       0.01020109      -0.00255371
N        1.40360634       2.43113878      29.15756295        0       0.00004321       0.00059150      -0.03632054
H        0.91613613       3.27176947      29.49436493        0       0.02208603      -0.03719196       0.00130693
H        2.37539487       2.43307238      29.49423684        0      -0.04322840      -0.00129133       0.00139132
H        0.91929347       1.58858204      29.49411105        0       0.02110091       0.03768294       0.00150095
