40
Lattice="8.421641763931781 0.0 0.0 4.2108208819658905 7.293355709136913 0.0 0.0 0.0 46.87624170604845" Properties=species:S:1:pos:R:3:tags:I:1:forces:R:3 charge=0 spin=0 energy=-206.42841220816734 free_energy=-206.42841220816734 stress="0.010261643677949905 -4.3344959976820974e-07 1.0413518047869275e-08 -4.3344959976820974e-07 0.010261712595820427 -1.5281092657914996e-07 1.0413518047869275e-08 -1.5281092657914996e-07 -0.0002623173641040921" pbc="T T T"
Pt      -0.00000005       0.00000022      19.95723419        4       0.00000347      -0.00000188      -0.00016896
Pt       2.80721406      -0.00000018      19.95723436        4      -0.00133751      -0.00144046       0.01974040
Pt       5.61442778      -0.00000006      19.95723442        4       0.00122586      -0.00001145       0.02019418
Pt       1.40360717       2.43111838      19.95723425        4      -0.00062764      -0.00105292       0.02020690
Pt       4.21082080       2.43111835      19.95723435        4       0.00000103       0.00000216       0.02024687
Pt       7.01803478       2.43111843      19.95723423        4       0.00191320      -0.00043572       0.01972789
Pt       2.80721408       4.86223724      19.95723395        4      -0.00057893       0.00187762       0.01973820
Pt       5.61442803       4.86223730      19.95723413        4      -0.00060095       0.00106548       0.02018184
Pt       8.42164138       4.86223726      19.95723427        4       0.00000031      -0.00000314       0.02019360
Pt       1.40360728       0.81037260      22.29206790        3       0.00523070      -0.00008257      -0.04504595
Pt       4.21082128       0.81037250      22.29206784        3      -0.00149871       0.00160226      -0.05604511
Pt       7.01803477       0.81037260      22.29206779        3      -0.00251046       0.00459354      -0.04505325
Pt       2.80721450       3.24149125      22.29206775        3       0.00212021       0.00053303      -0.05605012
Pt       5.61442762       3.24149123      22.29206790        3      -0.00063122      -0.00212028      -0.05608608
Pt       8.42164156       3.24149116      22.29206805        3      -0.00255683       0.00038996      -0.05981837
Pt       4.21082094       5.67260998      22.29206797        3      -0.00272392      -0.00449734      -0.04502892
Pt       7.01803488       5.67261038      22.29206774        3       0.00159147       0.00200511      -0.05979451
Pt       9.82524823       5.67261061      22.29206804        3       0.00097553      -0.00240929      -0.05976534
Pt      -0.00000056       1.62074572      24.58417389        2      -0.00008639      -0.02642038      -0.01499395
Pt       2.80721443       1.62074548      24.58417398        2       0.03739918       0.01759970       0.07025462
Pt       5.61442779       1.62074532      24.58417370        2      -0.03397253       0.02359517       0.07021478
Pt       1.40360636       4.05186439      24.58417390        2      -0.00936454       0.00221174       0.01460405
Pt       4.21082088       4.05186401      24.58417381        2      -0.00340054      -0.04120840       0.07028805
Pt       7.01803503       4.05186407      24.58417407        2       0.00656687       0.00703753       0.01467553
Pt       2.80721279       6.48298345      24.58417372        2       0.02294386       0.01313734      -0.01506566
Pt       5.61442797       6.48298324      24.58417392        2      -0.02281857       0.01325589      -0.01494924
Pt       8.42164222       6.48298343      24.58417383        2       0.00273804      -0.00922038       0.01460654
Pt       0.00000098      -0.00000024      26.91840494        1       0.00000117      -0.00000478       0.00045740
Pt       2.80373604      -0.00835366      26.91071272        1       0.00157452       0.00497128       0.00489437
Pt       5.61811965      -0.00883110      26.90929619        1      -0.00189138       0.00582516       0.00544093
Pt       1.39411529       2.43232998      26.90929947        1       0.00598254      -0.00125883       0.00546510
Pt       4.21082105       2.43110629      26.93299572        1       0.00000012      -0.00001072       0.03849273
Pt       7.02699984       2.43228907      26.91068676        1      -0.00508560      -0.00111956       0.00497276
Pt       2.80172590       4.86942153      26.91069288        1       0.00350728      -0.00387261       0.00492058
Pt       5.62022679       4.86985790      26.90933008        1      -0.00408317      -0.00458363       0.00538936
Pt       8.42164203       4.86223564      26.92159426        1      -0.00000660      -0.00000187       0.00069370
N        4.21082254       2.43122940      29.83991972        0      -0.00015779       0.00138527       0.04942438
H        3.71870591       1.57897174      29.56601763        0      -0.01224842      -0.02084506      -0.00262207
H        3.71887073       3.28342062      29.56526077        0      -0.01084350       0.01918345      -0.00212302
H        5.19488434       2.43086573      29.56564028        0       0.02324998       0.00032955      -0.00241413
