40
Lattice="8.421641763931781 0.0 0.0 4.2108208819658905 7.293355709136913 0.0 0.0 0.0 46.87624170604845" Properties=species:S:1:pos:R:3:tags:I:1:forces:R:3 charge=0 spin=0 energy=-206.994030723182 free_energy=-206.994030723182 stress="0.010009870864450932 -1.3327544934327307e-07 -7.33512317552254e-09 -1.3327544934327307e-07 0.010009837336838245 2.0695290459116222e-07 -7.33512317552254e-09 2.0695290459116222e-07 -0.00023380026686936617" pbc="T T T"
Pt      -0.00000005       0.00000022      19.95723419        4       0.00000288      -0.00000271       0.02411005
Pt       2.80721406      -0.00000018      19.95723436        4       0.00275600       0.00455653       0.02160592
Pt       5.61442778      -0.00000006      19.95723442        4      -0.00392463       0.00389827       0.02174807
Pt       1.40360717       2.43111838      19.95723425        4       0.00533916       0.00145862       0.02178862
Pt       4.21082080       2.43111835      19.95723435        4       0.00000153       0.00000454      -0.04329318
Pt       7.01803478       2.43111843      19.95723423        4      -0.00532815       0.00011620       0.02162225
Pt       2.80721408       4.86223724      19.95723395        4       0.00257047      -0.00467869       0.02159761
Pt       5.61442803       4.86223730      19.95723413        4      -0.00141633      -0.00535971       0.02181152
Pt       8.42164138       4.86223726      19.95723427        4       0.00000063      -0.00000543       0.01878625
Pt       1.40360728       0.81037260      22.29206790        3      -0.00065455       0.00309720      -0.07511029
Pt       4.21082128       0.81037250      22.29206784        3      -0.00031577       0.02656119      -0.08283813
Pt       7.01803477       0.81037260      22.29206779        3      -0.00234909      -0.00216087      -0.07516120
Pt       2.80721450       3.24149125      22.29206775        3       0.02317782      -0.01304831      -0.08287815
Pt       5.61442762       3.24149123      22.29206790        3      -0.02287145      -0.01352697      -0.08288951
Pt       8.42164156       3.24149116      22.29206805        3      -0.00167825       0.00188242      -0.04589830
Pt       4.21082094       5.67260998      22.29206797        3       0.00299864      -0.00094017      -0.07525916
Pt       7.01803488       5.67261038      22.29206774        3       0.00247416       0.00056152      -0.04593771
Pt       9.82524823       5.67261061      22.29206804        3      -0.00078987      -0.00247688      -0.04598224
Pt      -0.00000056       1.62074572      24.58417389        2       0.00307289      -0.00891112       0.00686928
Pt       2.80721443       1.62074548      24.58417398        2       0.04207439       0.02435187      -0.08009925
Pt       5.61442779       1.62074532      24.58417370        2      -0.04206816       0.02427578      -0.07998021
Pt       1.40360636       4.05186439      24.58417390        2      -0.13643937       0.08394897       0.24896882
Pt       4.21082088       4.05186401      24.58417381        2       0.00000100      -0.04853764      -0.07984532
Pt       7.01803503       4.05186407      24.58417407        2       0.14090626       0.07626526       0.24901737
Pt       2.80721279       6.48298345      24.58417372        2       0.00620065       0.00706844       0.00712831
Pt       5.61442797       6.48298324      24.58417392        2      -0.00928713       0.00185467       0.00706844
Pt       8.42164222       6.48298343      24.58417383        2      -0.00446032      -0.16015154       0.24904557
Pt       0.00000025       0.00000996      26.92895342        1       0.00000139       0.00002535      -0.01202024
Pt       2.79660631       0.01996227      26.90621978        1       0.00478477      -0.01912292      -0.00733836
Pt       5.62603312       0.01917853      26.90576072        1      -0.00216065      -0.01360582      -0.00323322
Pt       1.41435559       2.41153601      26.90573988        1      -0.01062352       0.00870466      -0.00328167
Pt       4.21081786       2.43113707      26.92403178        1      -0.00000383       0.00003135       0.00425684
Pt       7.00608426       2.41200319      26.90622368        1       0.01415761       0.01370386      -0.00735089
Pt       2.82977586       4.86146379      26.90621970        1      -0.01894064       0.00548924      -0.00734476
Pt       5.59206924       4.86271313      26.90575805        1       0.01277945       0.00495914      -0.00329298
Pt       8.42164291       4.86233281      26.99528049        1       0.00000557      -0.00005783       0.00439923
N        8.42163944       4.86223109      29.15362969        0       0.00006258       0.00000691      -0.01621199
H        8.90941147       5.70259552      29.49083556        0      -0.02126583      -0.03795474       0.00143995
H        8.90560379       4.01949899      29.49040292        0      -0.02226617       0.03744528       0.00216303
H        7.44990360       4.86437801      29.49061585        0       0.04347576       0.00027426       0.00181959
