40
Lattice="8.421641763931781 0.0 0.0 4.2108208819658905 7.293355709136913 0.0 0.0 0.0 46.87624170604845" Properties=species:S:1:pos:R:3:tags:I:1:forces:R:3 charge=0 spin=0 energy=-206.4258754344857 free_energy=-206.4258754344857 stress="0.010521354153752327 2.9334332793951035e-06 1.4518350965886384e-08 2.9334332793951035e-06 0.01052508782595396 3.5987395676784217e-06 1.4518350965886384e-08 3.5987395676784217e-06 -3.0751514714211226e-05" pbc="T T T"
Pt      -0.00000005       0.00000022      19.95723419        4      -0.00019563       0.00026971       0.01762489
Pt       2.80721406      -0.00000018      19.95723436        4      -0.00006088      -0.00021811       0.01766191
Pt       5.61442778      -0.00000006      19.95723442        4      -0.00012413      -0.00011727       0.01849675
Pt       1.40360717       2.43111838      19.95723425        4       0.00025562       0.00042213       0.01829704
Pt       4.21082080       2.43111835      19.95723435        4      -0.00023827       0.00016999       0.01887563
Pt       7.01803478       2.43111843      19.95723423        4       0.00017425       0.00029661       0.01892151
Pt       2.80721408       4.86223724      19.95723395        4      -0.00054154       0.00001953       0.01856980
Pt       5.61442803       4.86223730      19.95723413        4      -0.00033308       0.00018436       0.01839783
Pt       8.42164138       4.86223726      19.95723427        4       0.00033574      -0.00039036       0.01864579
Pt       1.40360728       0.81037260      22.29206790        3      -0.00031483       0.00136406      -0.04592920
Pt       4.21082128       0.81037250      22.29206784        3       0.00110248       0.00101254      -0.05362837
Pt       7.01803477       0.81037260      22.29206779        3      -0.00089649       0.00181191      -0.05403965
Pt       2.80721450       3.24149125      22.29206775        3       0.00047156      -0.00020215      -0.05165859
Pt       5.61442762       3.24149123      22.29206790        3      -0.00033427       0.00001418      -0.05303904
Pt       8.42164156       3.24149116      22.29206805        3      -0.00148676       0.00050705      -0.05146344
Pt       4.21082094       5.67260998      22.29206797        3      -0.00072486      -0.00103618      -0.05029329
Pt       7.01803488       5.67261038      22.29206774        3      -0.00004055      -0.00011793      -0.05091407
Pt       9.82524823       5.67261061      22.29206804        3       0.00002478       0.00135965      -0.05323957
Pt      -0.00000056       1.62074572      24.58417389        2       0.00529595      -0.00175547       0.05214654
Pt       2.80721443       1.62074548      24.58417398        2      -0.00514640      -0.00207986       0.05029099
Pt       5.61442779       1.62074532      24.58417370        2       0.00240301       0.00024614       0.02560652
Pt       1.40360636       4.05186439      24.58417390        2       0.00024996      -0.00427100       0.05778291
Pt       4.21082088       4.05186401      24.58417381        2      -0.00852712      -0.00153162       0.03791996
Pt       7.01803503       4.05186407      24.58417407        2       0.00774552      -0.00095648       0.03737592
Pt       2.80721279       6.48298345      24.58417372        2       0.01399507      -0.00750759       0.04472052
Pt       5.61442797       6.48298324      24.58417392        2       0.00006280       0.01107854       0.03731663
Pt       8.42164222       6.48298343      24.58417383        2      -0.00987521      -0.00615316       0.04374445
Pt       0.00084743       0.00008778      26.92121298        1      -0.00057621      -0.00894534      -0.02406997
Pt       2.80799743       0.00064245      26.92032891        1      -0.00059004      -0.00938996      -0.02108149
Pt       5.61517904      -0.00513877      26.91112321        1      -0.00130721       0.00696924       0.01800771
Pt       1.40435923       2.42988778      26.92266656        1      -0.00000016      -0.00040815      -0.02825141
Pt       4.21229190       2.42959205      26.91631064        1      -0.01172509       0.00170730      -0.00156978
Pt       7.01845826       2.42870201      26.91700821        1       0.01066495       0.00258305      -0.00339079
Pt       2.80792465       4.85908102      26.92139253        1      -0.00030395       0.00972468      -0.02251387
Pt       5.61572743       4.86305266      26.91115061        1       0.00033857      -0.00135217       0.01664035
Pt       8.42273438       4.85867304      26.92070329        1       0.00035147       0.00955932      -0.01994498
N        5.60890062       2.44772684      30.84398189        0      -0.00061234      -0.00842828       0.00915986
H        4.79051750       2.89469204      30.41048163        0       0.01130603       0.00757343      -0.00447889
H        6.43919371       2.89495053      30.43400329        0      -0.01271595       0.00420968      -0.00577912
H        5.61328766       1.47265463      30.51815611        0       0.00189302      -0.00622212      -0.00091804
