40
Lattice="8.421641763931781 0.0 0.0 4.2108208819658905 7.293355709136913 0.0 0.0 0.0 46.87624170604845" Properties=species:S:1:pos:R:3:tags:I:1:forces:R:3 charge=0 spin=0 energy=-206.4241836162484 free_energy=-206.4241836162484 stress="0.010422405786812305 2.8486200065458434e-08 -2.3454349573626132e-08 2.8486200065458434e-08 0.010422497987747192 1.2143458150148945e-07 -2.3454349573626132e-08 1.2143458150148945e-07 -0.0002364602842135355" pbc="T T T"
Pt      -0.00000005       0.00000022      19.95723419        4      -0.00024057       0.00017546       0.01850869
Pt       2.80721406      -0.00000018      19.95723436        4      -0.00013861      -0.00009720       0.01861770
Pt       5.61442778      -0.00000006      19.95723442        4       0.00027142       0.00012798       0.01849410
Pt       1.40360717       2.43111838      19.95723425        4      -0.00061122       0.00000237       0.01770930
Pt       4.21082080       2.43111835      19.95723435        4       0.00030289      -0.00052724       0.01770629
Pt       7.01803478       2.43111843      19.95723423        4      -0.00003375      -0.00029871       0.01850771
Pt       2.80721408       4.86223724      19.95723395        4       0.00030743       0.00052218       0.01771074
Pt       5.61442803       4.86223730      19.95723413        4       0.00015420      -0.00006876       0.01862344
Pt       8.42164138       4.86223726      19.95723427        4      -0.00002169       0.00016226       0.01862071
Pt       1.40360728       0.81037260      22.29206790        3       0.00084557      -0.00158262      -0.05180849
Pt       4.21082128       0.81037250      22.29206784        3      -0.00129261      -0.00093169      -0.05209494
Pt       7.01803477       0.81037260      22.29206779        3      -0.00000442       0.00000734      -0.04988086
Pt       2.80721450       3.24149125      22.29206775        3      -0.00001297       0.00000470      -0.04673090
Pt       5.61442762       3.24149123      22.29206790        3       0.00094213       0.00153975      -0.05181068
Pt       8.42164156       3.24149116      22.29206805        3      -0.00017541       0.00158596      -0.05208012
Pt       4.21082094       5.67260998      22.29206797        3       0.00144756      -0.00062828      -0.05208760
Pt       7.01803488       5.67261038      22.29206774        3      -0.00000799       0.00000023      -0.05359582
Pt       9.82524823       5.67261061      22.29206804        3      -0.00179479       0.00004856      -0.05182379
Pt      -0.00000056       1.62074572      24.58417389        2      -0.00271704      -0.00232265       0.03538362
Pt       2.80721443       1.62074548      24.58417398        2       0.00097458       0.00367848       0.01074696
Pt       5.61442779       1.62074532      24.58417370        2       0.00339109      -0.00119110       0.03537004
Pt       1.40360636       4.05186439      24.58417390        2       0.00272287      -0.00267715       0.01074037
Pt       4.21082088       4.05186401      24.58417381        2      -0.00366458      -0.00099608       0.01071428
Pt       7.01803503       4.05186407      24.58417407        2       0.00234055      -0.01433566       0.00178275
Pt       2.80721279       6.48298345      24.58417372        2      -0.00062698       0.00354757       0.03534457
Pt       5.61442797       6.48298324      24.58417392        2      -0.01356568       0.00515573       0.00175657
Pt       8.42164222       6.48298343      24.58417383        2       0.01125271       0.00918990       0.00177661
Pt       0.00126773       0.00012265      26.91719599        1      -0.01865527       0.00684650      -0.00577869
Pt       2.80701366      -0.00225427      26.90730887        1       0.00473455       0.02939909       0.04000996
Pt       5.61391785      -0.00114770      26.91719815        1       0.01526076       0.01270236      -0.00575872
Pt       1.40498288       2.43054330      26.91171284        1      -0.01398623      -0.00252321       0.01392950
Pt       4.21064694       2.43258877      26.91171362        1       0.00915820      -0.01087318       0.01397271
Pt       7.01731358       2.43214309      26.91720384        1       0.00336569      -0.01956932      -0.00569748
Pt       2.80604447       4.86134144      26.91170373        1       0.00482792       0.01335915       0.01377320
Pt       5.61649742       4.86318114      26.90730046        1      -0.02786376      -0.01060395       0.03993233
Pt       8.41980804       4.86354693      26.90730286        1       0.02311111      -0.01882455       0.03989529
N        7.01799145       5.67254448      30.80529039        0      -0.00002024      -0.00006281      -0.01907616
H        6.12261334       5.99456855      30.41325531        0       0.03196098      -0.01287592       0.00952896
H        7.74450414       6.28695702      30.41315503        0      -0.02716659      -0.02124846       0.00951981
H        7.18676693       4.73616430      30.41311455        0      -0.00477173       0.03418277       0.00954772
