40
Lattice="8.421641763931781 0.0 0.0 4.2108208819658905 7.293355709136913 0.0 0.0 0.0 46.87624170604845" Properties=species:S:1:pos:R:3:tags:I:1:forces:R:3 charge=0 spin=0 energy=-206.42404056510094 free_energy=-206.42404056510094 stress="0.010470201261341572 4.258511765442563e-09 4.540264608721145e-09 4.258511765442563e-09 0.01047024130821228 -2.198327520019916e-09 4.540264608721145e-09 -2.198327520019916e-09 -0.00011065634316764772" pbc="T T T"
Pt      -0.00000005       0.00000022      19.95723419        4      -0.00000439       0.00011602       0.01876380
Pt       2.80721406      -0.00000018      19.95723436        4       0.00037298       0.00007865       0.01775769
Pt       5.61442778      -0.00000006      19.95723442        4      -0.00012123      -0.00035891       0.01775124
Pt       1.40360717       2.43111838      19.95723425        4      -0.00009929      -0.00006441       0.01875815
Pt       4.21082080       2.43111835      19.95723435        4       0.00027145       0.00066414       0.01859263
Pt       7.01803478       2.43111843      19.95723423        4       0.00010534      -0.00004968       0.01876454
Pt       2.80721408       4.86223724      19.95723395        4       0.00043801      -0.00056812       0.01859206
Pt       5.61442803       4.86223730      19.95723413        4      -0.00070872      -0.00010032       0.01859609
Pt       8.42164138       4.86223726      19.95723427        4      -0.00025351       0.00028142       0.01775688
Pt       1.40360728       0.81037260      22.29206790        3      -0.00055303       0.00077409      -0.05254549
Pt       4.21082128       0.81037250      22.29206784        3      -0.00025837       0.00117648      -0.04934248
Pt       7.01803477       0.81037260      22.29206779        3       0.00094960       0.00009796      -0.05253856
Pt       2.80721450       3.24149125      22.29206775        3      -0.00082566       0.00022225      -0.05263258
Pt       5.61442762       3.24149123      22.29206790        3       0.00022278      -0.00081535      -0.05262160
Pt       8.42164156       3.24149116      22.29206805        3      -0.00039248      -0.00086780      -0.05254470
Pt       4.21082094       5.67260998      22.29206797        3       0.00059737       0.00060144      -0.05261032
Pt       7.01803488       5.67261038      22.29206774        3      -0.00088538      -0.00081529      -0.04932281
Pt       9.82524823       5.67261061      22.29206804        3       0.00114315      -0.00037364      -0.04933023
Pt      -0.00000056       1.62074572      24.58417389        2       0.00000711      -0.00000511       0.02676759
Pt       2.80721443       1.62074548      24.58417398        2       0.00389006       0.00126877       0.03240243
Pt       5.61442779       1.62074532      24.58417370        2      -0.00455768      -0.00052255       0.03159427
Pt       1.40360636       4.05186439      24.58417390        2       0.00182349       0.00421584       0.03163994
Pt       4.21082088       4.05186401      24.58417381        2      -0.00000154       0.00001899       0.05512660
Pt       7.01803503       4.05186407      24.58417407        2      -0.00303790       0.00274964       0.03244206
Pt       2.80721279       6.48298345      24.58417372        2      -0.00084956      -0.00401742       0.03241322
Pt       5.61442797       6.48298324      24.58417392        2       0.00273970      -0.00369029       0.03164530
Pt       8.42164222       6.48298343      24.58417383        2      -0.00001044      -0.00001479       0.02815236
Pt      -0.00027178      -0.00326979      26.91440595        1      -0.00060274       0.01023556       0.00215460
Pt       2.80570093       0.00029826      26.91486110        1       0.00919695      -0.00420479       0.00446943
Pt       5.61544244       0.00116162      26.91486435        1      -0.00823145      -0.00584355       0.00451051
Pt       1.40657797       2.43251874      26.91440062        1      -0.00852833      -0.00563306       0.00212455
Pt       4.21088904       2.42884597      26.91855797        1      -0.00012447       0.01580998      -0.01206216
Pt       7.01533608       2.43299019      26.91439939        1       0.00912758      -0.00457991       0.00211446
Pt       2.80521432       4.86331714      26.91857802        1       0.01375052      -0.00779387      -0.01191458
Pt       5.61636115       4.86343316      26.91857435        1      -0.01363351      -0.00801544      -0.01196369
Pt       8.42214014       4.86077921      26.91487269        1      -0.00095458       0.01002341       0.00457876
N        8.42164022       1.62074126      30.77663674        0      -0.00000006       0.00004249      -0.02696986
H        7.60366403       1.13943023      30.38033040        0      -0.01059501      -0.00637628       0.01297089
H        8.41379892       2.56979102      30.38034300        0      -0.00022571       0.01232622       0.01298706
H        9.24746042       1.15301315      30.38033359        0       0.01081880      -0.00599254       0.01297168
