40
Lattice="8.421641763931781 0.0 0.0 4.2108208819658905 7.293355709136913 0.0 0.0 0.0 46.87624170604845" Properties=species:S:1:pos:R:3:tags:I:1:forces:R:3 charge=0 spin=0 energy=-206.42513919791344 free_energy=-206.42513919791344 stress="0.010473912581801414 4.1060461626329925e-06 -1.1137235560454428e-06 4.1060461626329925e-06 0.010501505807042122 -2.658904804775375e-06 -1.1137235560454428e-06 -2.658904804775375e-06 -9.134787978837267e-05" pbc="T T T"
Pt      -0.00000005       0.00000022      19.95723419        4       0.00004057       0.00112112       0.01726838
Pt       2.80721406      -0.00000018      19.95723436        4      -0.00045004       0.00071765       0.01733131
Pt       5.61442778      -0.00000006      19.95723442        4      -0.00026770       0.00078640       0.01868074
Pt       1.40360717       2.43111838      19.95723425        4       0.00015454       0.00122924       0.01851505
Pt       4.21082080       2.43111835      19.95723435        4       0.00003242       0.00098014       0.01886619
Pt       7.01803478       2.43111843      19.95723423        4      -0.00023405       0.00099637       0.01887959
Pt       2.80721408       4.86223724      19.95723395        4      -0.00084933       0.00097048       0.01851371
Pt       5.61442803       4.86223730      19.95723413        4      -0.00034599       0.00096043       0.01862359
Pt       8.42164138       4.86223726      19.95723427        4       0.00039606       0.00060652       0.01854145
Pt       1.40360728       0.81037260      22.29206790        3      -0.00008377       0.00495658      -0.04568899
Pt       4.21082128       0.81037250      22.29206784        3       0.00073054       0.00452983      -0.05291646
Pt       7.01803477       0.81037260      22.29206779        3      -0.00022643       0.00528616      -0.05346891
Pt       2.80721450       3.24149125      22.29206775        3       0.00044138       0.00336878      -0.05295540
Pt       5.61442762       3.24149123      22.29206790        3      -0.00027470       0.00368614      -0.05081742
Pt       8.42164156       3.24149116      22.29206805        3      -0.00120678       0.00397130      -0.05255461
Pt       4.21082094       5.67260998      22.29206797        3       0.00003398       0.00271851      -0.05187447
Pt       7.01803488       5.67261038      22.29206774        3      -0.00061010       0.00327741      -0.05238709
Pt       9.82524823       5.67261061      22.29206804        3       0.00023188       0.00472103      -0.05124829
Pt      -0.00000056       1.62074572      24.58417389        2       0.00220927      -0.01003769       0.03868440
Pt       2.80721443       1.62074548      24.58417398        2      -0.00188490      -0.01036346       0.03753199
Pt       5.61442779       1.62074532      24.58417370        2       0.00204089      -0.00961950       0.03586721
Pt       1.40360636       4.05186439      24.58417390        2      -0.00020891      -0.01489069       0.04294784
Pt       4.21082088       4.05186401      24.58417381        2       0.00206124      -0.01531842       0.03566057
Pt       7.01803503       4.05186407      24.58417407        2      -0.00300280      -0.01338059       0.03445656
Pt       2.80721279       6.48298345      24.58417372        2       0.00297145      -0.01259411       0.03034309
Pt       5.61442797       6.48298324      24.58417392        2       0.00053090      -0.00736602       0.03145365
Pt       8.42164222       6.48298343      24.58417383        2       0.00007228      -0.01137746       0.03047048
Pt      -0.00235258      -0.01538453      26.91538308        1       0.01585788       0.00507540       0.00215826
Pt       2.81048169      -0.01481004      26.91507192        1      -0.01668947       0.00411464       0.00326776
Pt       5.61465888      -0.01747625      26.91595963        1      -0.00007712       0.01214115      -0.00300345
Pt       1.40414680       2.41558972      26.91922540        1       0.00023012       0.00600641      -0.01555842
Pt       4.20815545       2.41525931      26.91726968        1       0.01555896       0.01282140      -0.00654578
Pt       7.02201209       2.41508815      26.91739317        1      -0.01722211       0.00986233      -0.00656936
Pt       2.80979535       4.84672849      26.91543492        1      -0.01156878       0.00770959       0.00346744
Pt       5.61546740       4.84940498      26.91626648        1      -0.00003502      -0.00401201      -0.00687074
Pt       8.42043181       4.84615440      26.91518869        1       0.01172664       0.00881789       0.00422889
N        5.61037579       2.44090938      30.75551215        0      -0.00015659      -0.01012791      -0.03837577
H        5.61320279       1.49546906      30.35117457        0       0.00041069      -0.02473606       0.02047452
H        4.78844514       2.91752661      30.36055745        0       0.02633822       0.01657112       0.01298237
H        6.43814282       2.91745347      30.37288199        0      -0.02667550       0.01581980       0.01162023
