40
Lattice="8.421641763931781 0.0 0.0 4.2108208819658905 7.293355709136913 0.0 0.0 0.0 46.87624170604845" Properties=species:S:1:pos:R:3:tags:I:1:forces:R:3 charge=0 spin=0 energy=-206.99282337149742 free_energy=-206.99282337149742 stress="0.010041449218988419 -6.941163377405246e-08 -5.057482432846427e-09 -6.941163377405246e-08 0.010041503235697746 -1.8566108650475144e-08 -5.057482432846427e-09 -1.8566108650475144e-08 -0.0001748164213495329" pbc="T T T"
Pt      -0.00000005       0.00000022      19.95723419        4       0.00000305      -0.00000150      -0.04318894
Pt       2.80721406      -0.00000018      19.95723436        4      -0.00501892       0.00002657       0.02152316
Pt       5.61442778      -0.00000006      19.95723442        4       0.00512097       0.00134273       0.02214476
Pt       1.40360717       2.43111838      19.95723425        4      -0.00140746      -0.00510784       0.02217806
Pt       4.21082080       2.43111835      19.95723435        4       0.00000125       0.00000213       0.01857374
Pt       7.01803478       2.43111843      19.95723423        4       0.00248968      -0.00435843       0.02149992
Pt       2.80721408       4.86223724      19.95723395        4       0.00252738       0.00433189       0.02150866
Pt       5.61442803       4.86223730      19.95723413        4      -0.00371711       0.00376707       0.02212278
Pt       8.42164138       4.86223726      19.95723427        4       0.00000072      -0.00000377       0.02436664
Pt       1.40360728       0.81037260      22.29206790        3      -0.02166130      -0.01418567      -0.08395460
Pt       4.21082128       0.81037250      22.29206784        3      -0.00226372       0.00214843      -0.04519302
Pt       7.01803477       0.81037260      22.29206779        3       0.02315703      -0.01165269      -0.08393782
Pt       2.80721450       3.24149125      22.29206775        3       0.00298245       0.00094604      -0.04524980
Pt       5.61442762       3.24149123      22.29206790        3      -0.00072759      -0.00308425      -0.04528716
Pt       8.42164156       3.24149116      22.29206805        3       0.00200313      -0.00068803      -0.07438493
Pt       4.21082094       5.67260998      22.29206797        3      -0.00149870       0.02584637      -0.08389852
Pt       7.01803488       5.67261038      22.29206774        3      -0.00163666      -0.00141743      -0.07428361
Pt       9.82524823       5.67261061      22.29206804        3      -0.00036096       0.00209560      -0.07423138
Pt      -0.00000056       1.62074572      24.58417389        2       0.00261455      -0.04415196      -0.06697246
Pt       2.80721443       1.62074548      24.58417398        2       0.14017551       0.07561477       0.24152535
Pt       5.61442779       1.62074532      24.58417370        2      -0.13554189       0.08361715       0.24149819
Pt       1.40360636       4.05186439      24.58417390        2      -0.01110053       0.00179255       0.01793720
Pt       4.21082088       4.05186401      24.58417381        2      -0.00463133      -0.15920919       0.24152379
Pt       7.01803503       4.05186407      24.58417407        2       0.00705788       0.00868597       0.01799961
Pt       2.80721279       6.48298345      24.58417372        2       0.03696135       0.02437334      -0.06721485
Pt       5.61442797       6.48298324      24.58417392        2      -0.03957138       0.01976330      -0.06712426
Pt       8.42164222       6.48298343      24.58417383        2       0.00404213      -0.01048001       0.01776761
Pt      -0.00000316      -0.00000008      26.92455757        1       0.00000307       0.00000217      -0.00622172
Pt       2.79658559      -0.01431571      26.90783776        1       0.00054371      -0.02828771      -0.01242174
Pt       5.62431206      -0.01415752      26.90707582        1      -0.00043145      -0.02970443      -0.01267981
Pt       1.38640233       2.42963490      26.90707728        1      -0.02551564       0.01521113      -0.01263107
Pt       4.21082153       2.43111717      26.99524289        1       0.00000051       0.00000528       0.03440744
Pt       7.03574271       2.42908049      26.90784153        1       0.02422714       0.01462004      -0.01244237
Pt       2.80013537       4.87859140      26.90784314        1      -0.02477015       0.01367129      -0.01246172
Pt       5.62175107       4.87787916      26.90708018        1       0.02594012       0.01447872      -0.01257465
Pt       8.42164485       4.86223861      26.92918727        1       0.00000175      -0.00000621      -0.01948186
N        4.21082024       2.43111929      29.15768901        0       0.00003181      -0.00010452      -0.03573995
H        3.36968499       2.91769271      29.49437918        0       0.03806945      -0.02201838       0.00168199
H        5.05277471       2.91627539      29.49437866        0      -0.03813962      -0.02196855       0.00167179
H        4.21000214       1.45938471      29.49437811        0       0.00004000       0.04408791       0.00164550
