40
Lattice="8.421641763931781 0.0 0.0 4.2108208819658905 7.293355709136913 0.0 0.0 0.0 46.87624170604845" Properties=species:S:1:pos:R:3:tags:I:1:forces:R:3 charge=0 spin=0 energy=-206.4269626232064 free_energy=-206.4269626232064 stress="0.010526499710977077 -7.043651635285642e-07 5.326433338836978e-08 -7.043651635285642e-07 0.010525817051529884 1.1076035661972128e-06 5.326433338836978e-08 1.1076035661972128e-06 -2.2453959900303744e-05" pbc="T T T"
Pt      -0.00000005       0.00000022      19.95723419        4      -0.00034417       0.00018146       0.01802143
Pt       2.80721406      -0.00000018      19.95723436        4       0.00000277      -0.00039766       0.01801000
Pt       5.61442778      -0.00000006      19.95723442        4      -0.00015551      -0.00008134       0.01847158
Pt       1.40360717       2.43111838      19.95723425        4       0.00034170       0.00021077       0.01800362
Pt       4.21082080       2.43111835      19.95723435        4       0.00006739      -0.00006327       0.01873184
Pt       7.01803478       2.43111843      19.95723423        4       0.00002554       0.00009419       0.01872995
Pt       2.80721408       4.86223724      19.95723395        4       0.00001233       0.00018282       0.01847715
Pt       5.61442803       4.86223730      19.95723413        4      -0.00009513      -0.00002334       0.01871161
Pt       8.42164138       4.86223726      19.95723427        4       0.00015717      -0.00010245       0.01847137
Pt       1.40360728       0.81037260      22.29206790        3       0.00002838       0.00003294      -0.04621746
Pt       4.21082128       0.81037250      22.29206784        3       0.00097547       0.00028743      -0.05237970
Pt       7.01803477       0.81037260      22.29206779        3      -0.00025256       0.00060550      -0.05213107
Pt       2.80721450       3.24149125      22.29206775        3       0.00062778      -0.00011593      -0.05213689
Pt       5.61442762       3.24149123      22.29206790        3       0.00001845       0.00002002      -0.05151062
Pt       8.42164156       3.24149116      22.29206805        3      -0.00072468       0.00069190      -0.05237739
Pt       4.21082094       5.67260998      22.29206797        3      -0.00021749      -0.00104689      -0.05233170
Pt       7.01803488       5.67261038      22.29206774        3      -0.00041633      -0.00051996      -0.05217497
Pt       9.82524823       5.67261061      22.29206804        3      -0.00000210      -0.00001846      -0.05452500
Pt      -0.00000056       1.62074572      24.58417389        2       0.00884441      -0.00436460       0.05322057
Pt       2.80721443       1.62074548      24.58417398        2      -0.00830214      -0.00543261       0.05308481
Pt       5.61442779       1.62074532      24.58417370        2       0.00092333      -0.00390188       0.02997631
Pt       1.40360636       4.05186439      24.58417390        2      -0.00104797      -0.00976197       0.05034206
Pt       4.21082088       4.05186401      24.58417381        2      -0.00406250       0.00113224       0.02957465
Pt       7.01803503       4.05186407      24.58417407        2       0.00317021       0.00247790       0.02964649
Pt       2.80721279       6.48298345      24.58417372        2       0.00895060       0.00408089       0.05044027
Pt       5.61442797       6.48298324      24.58417392        2      -0.00072680       0.01023248       0.05266494
Pt       8.42164222       6.48298343      24.58417383        2      -0.00784987       0.00581632       0.05035822
Pt       0.00041571       0.00087107      26.92338308        1      -0.00032275      -0.00148465      -0.03342139
Pt       2.80628242       0.00003569      26.92332509        1       0.00168990       0.00084050      -0.03321878
Pt       5.61404480       0.00045831      26.91623518        1       0.00030692      -0.00473551      -0.00416110
Pt       1.40405630       2.43035502      26.92336844        1      -0.00130679       0.00104860      -0.03322018
Pt       4.21132413       2.43166993      26.91503283        1      -0.01290452      -0.00690034       0.00556430
Pt       7.01733099       2.43131153      26.91512624        1       0.01242079      -0.00761926       0.00532742
Pt       2.80769871       4.86239093      26.91618539        1      -0.00416952       0.00203578      -0.00396797
Pt       5.61461007       4.86162713      26.91480014        1       0.00047233       0.01448527       0.00638934
Pt       8.42146084       4.86172895      26.91619109        1       0.00390368       0.00266022      -0.00398332
N        5.61445782       3.24678409      31.01054886        0       0.00020756      -0.00166054       0.03012116
H        5.14322722       4.06429786      30.60262711        0      -0.00204766       0.00837021      -0.01195834
H        6.56428234       3.23506217      30.61753016        0       0.00902423       0.00023487      -0.01149853
H        5.13579086       2.41937184      30.63238533        0      -0.00722227      -0.00749154      -0.01112484
