40
Lattice="8.421641763931781 0.0 0.0 4.2108208819658905 7.293355709136913 0.0 0.0 0.0 46.87624170604845" Properties=species:S:1:pos:R:3:tags:I:1:forces:R:3 charge=0 spin=0 energy=-206.42405582389 free_energy=-206.42405582389 stress="0.010434762574732304 1.9576322785042066e-08 -1.2372495916679327e-08 1.9576322785042066e-08 0.01043481845408678 6.491878146164254e-09 -1.2372495916679327e-08 6.491878146164254e-09 -0.00020303556811995804" pbc="T T T"
Pt      -0.00000005       0.00000022      19.95723419        4      -0.00010206       0.00023378       0.01773895
Pt       2.80721406      -0.00000018      19.95723436        4      -0.00015393      -0.00020591       0.01773666
Pt       5.61442778      -0.00000006      19.95723442        4      -0.00011754      -0.00059043       0.01842620
Pt       1.40360717       2.43111838      19.95723425        4       0.00025787      -0.00002617       0.01773839
Pt       4.21082080       2.43111835      19.95723435        4       0.00011117      -0.00010939       0.01883958
Pt       7.01803478       2.43111843      19.95723423        4       0.00003965       0.00014963       0.01883597
Pt       2.80721408       4.86223724      19.95723395        4      -0.00045375       0.00039461       0.01843659
Pt       5.61442803       4.86223730      19.95723413        4      -0.00015207      -0.00004039       0.01883604
Pt       8.42164138       4.86223726      19.95723427        4       0.00057249       0.00019301       0.01842995
Pt       1.40360728       0.81037260      22.29206790        3      -0.00000179       0.00000265      -0.04357453
Pt       4.21082128       0.81037250      22.29206784        3       0.00104566       0.00126291      -0.05256508
Pt       7.01803477       0.81037260      22.29206779        3      -0.00028679       0.00144235      -0.05327718
Pt       2.80721450       3.24149125      22.29206775        3       0.00138595      -0.00046272      -0.05328876
Pt       5.61442762       3.24149123      22.29206790        3       0.00000310      -0.00000069      -0.05179986
Pt       8.42164156       3.24149116      22.29206805        3      -0.00160220       0.00028297      -0.05258954
Pt       4.21082094       5.67260998      22.29206797        3       0.00055531      -0.00153446      -0.05256024
Pt       7.01803488       5.67261038      22.29206774        3      -0.00110527      -0.00098072      -0.05328897
Pt       9.82524823       5.67261061      22.29206804        3       0.00000867      -0.00001078      -0.04970232
Pt      -0.00000056       1.62074572      24.58417389        2       0.00645764      -0.00361885       0.02220190
Pt       2.80721443       1.62074548      24.58417398        2      -0.00635758      -0.00379544       0.02220000
Pt       5.61442779       1.62074532      24.58417370        2       0.00149942      -0.00139628       0.01834667
Pt       1.40360636       4.05186439      24.58417390        2      -0.00121762      -0.00155963       0.02241761
Pt       4.21082088       4.05186401      24.58417381        2      -0.00195455      -0.00059820       0.01832167
Pt       7.01803503       4.05186407      24.58417407        2       0.00044976       0.00201178       0.01831988
Pt       2.80721279       6.48298345      24.58417372        2       0.00198858      -0.00026671       0.02246121
Pt       5.61442797       6.48298324      24.58417392        2      -0.00009975       0.00737899       0.02222087
Pt       8.42164222       6.48298343      24.58417383        2      -0.00077497       0.00184616       0.02246139
Pt      -0.00283209      -0.00169935      26.91417996        1       0.01860461       0.01029939       0.00560456
Pt       2.81009671      -0.00160350      26.91418759        1      -0.01821545       0.01095730       0.00562611
Pt       5.61413052      -0.00029757      26.91388072        1      -0.00005871       0.00261681       0.01206275
Pt       1.40355048       2.43442238      26.91416448        1      -0.00036555      -0.02127771       0.00550662
Pt       4.20734363       2.42954462      26.91129876        1       0.01504369       0.00903783       0.01536344
Pt       7.02113745       2.42890006      26.91129270        1      -0.01534649       0.00851293       0.01535975
Pt       2.80710279       4.86264292      26.91387050        1       0.00223769      -0.00124684       0.01198406
Pt       5.61479716       4.86603232      26.91130560        1       0.00030520      -0.01756873       0.01540288
Pt       8.42204610       4.86213101      26.91387275        1      -0.00219747      -0.00133617       0.01199664
N        5.61442933       3.24149153      30.78466290        0       0.00010678      -0.00012308       0.00157752
H        6.43566844       3.72207781      30.39389889        0      -0.01755648      -0.01014198       0.00273982
H        5.62001134       2.28998138      30.39390216        0      -0.00001758       0.02033599       0.00276508
H        4.78760969       3.71240894      30.39390449        0       0.01746475      -0.01006783       0.00268749
