40
Lattice="8.421641763931781 0.0 0.0 4.2108208819658905 7.293355709136913 0.0 0.0 0.0 46.87624170604845" Properties=species:S:1:pos:R:3:tags:I:1:forces:R:3 charge=0 spin=0 energy=-206.42296672782066 free_energy=-206.42296672782066 stress="0.010540584102272987 1.81141820121411e-06 -3.8896774867680506e-07 1.81141820121411e-06 0.010558238252997398 -6.166975254018325e-06 -3.8896774867680506e-07 -6.166975254018325e-06 -1.3264200333651388e-06" pbc="T T T"
Pt      -0.00000005       0.00000022      19.95723419        4      -0.00010819       0.00039363       0.01854980
Pt       2.80721406      -0.00000018      19.95723436        4       0.00033013       0.00050660       0.01854346
Pt       5.61442778      -0.00000006      19.95723442        4       0.00020215       0.00028977       0.01844484
Pt       1.40360717       2.43111838      19.95723425        4       0.00046653       0.00014226       0.01845567
Pt       4.21082080       2.43111835      19.95723435        4      -0.00054800       0.00048095       0.01834475
Pt       7.01803478       2.43111843      19.95723423        4      -0.00019283      -0.00004199       0.01890404
Pt       2.80721408       4.86223724      19.95723395        4      -0.00026169       0.00047849       0.01861543
Pt       5.61442803       4.86223730      19.95723413        4      -0.00053473       0.00049684       0.01779056
Pt       8.42164138       4.86223726      19.95723427        4       0.00018548       0.00007529       0.01780099
Pt       1.40360728       0.81037260      22.29206790        3      -0.00084124       0.00173726      -0.05165304
Pt       4.21082128       0.81037250      22.29206784        3       0.00065053       0.00123996      -0.05238969
Pt       7.01803477       0.81037260      22.29206779        3      -0.00030661       0.00181149      -0.05125806
Pt       2.80721450       3.24149125      22.29206775        3       0.00010359       0.00224385      -0.05219057
Pt       5.61442762       3.24149123      22.29206790        3       0.00036911       0.00036982      -0.05395488
Pt       8.42164156       3.24149116      22.29206805        3      -0.00095141       0.00051880      -0.05390988
Pt       4.21082094       5.67260998      22.29206797        3       0.00001450       0.00246179      -0.05137786
Pt       7.01803488       5.67261038      22.29206774        3       0.00011678       0.00076411      -0.04714335
Pt       9.82524823       5.67261061      22.29206804        3       0.00069954       0.00200728      -0.05117453
Pt      -0.00000056       1.62074572      24.58417389        2      -0.00323343      -0.00127937       0.03302337
Pt       2.80721443       1.62074548      24.58417398        2      -0.00182238      -0.01719639       0.04882723
Pt       5.61442779       1.62074532      24.58417370        2       0.00270228      -0.00381563       0.03187012
Pt       1.40360636       4.05186439      24.58417390        2       0.00390028       0.00345468       0.05480164
Pt       4.21082088       4.05186401      24.58417381        2      -0.00250643       0.00124192       0.05273012
Pt       7.01803503       4.05186407      24.58417407        2       0.00064439       0.00412572       0.05469043
Pt       2.80721279       6.48298345      24.58417372        2       0.00207092      -0.01547175       0.03743141
Pt       5.61442797       6.48298324      24.58417392        2       0.00647943      -0.00329244       0.05025924
Pt       8.42164222       6.48298343      24.58417383        2      -0.00732211      -0.00556574       0.05025317
Pt      -0.00237747      -0.00415831      26.91601268        1       0.01857436      -0.00579810       0.00456309
Pt       2.80733918      -0.01016906      26.92458693        1       0.00019469       0.01816347      -0.04396195
Pt       5.61676442      -0.00508937      26.91555202        1      -0.01939136      -0.00007780       0.00696953
Pt       1.40288949       2.42279050      26.91374287        1       0.01039511       0.01756823       0.00566964
Pt       4.21195880       2.42271286      26.91310822        1      -0.01034856       0.01935453       0.00814451
Pt       7.01789913       2.42840494      26.91838874        1       0.00270056       0.00665459      -0.01299180
Pt       2.80753300       4.85760995      26.92591458        1      -0.00227944      -0.01300823      -0.04071944
Pt       5.61037185       4.85893523      26.91938816        1       0.02086651      -0.01243349      -0.01621997
Pt       8.42603874       4.85822062      26.92037087        1      -0.02121619      -0.00938329      -0.01976500
N        7.02037984       0.35736560      30.99263936        0      -0.00170940       0.01874083      -0.01825597
H        7.02189458      -0.51311656      30.44458517        0       0.00129250      -0.00275139       0.00396591
H        6.20182169       0.89363636      30.67376732        0       0.03309957      -0.00718713       0.00496483
H        7.84913245       0.88710869      30.68956650        0      -0.03248490      -0.00801940       0.00335227
