40
Lattice="8.421641763931781 0.0 0.0 4.2108208819658905 7.293355709136913 0.0 0.0 0.0 46.87624170604845" Properties=species:S:1:pos:R:3:tags:I:1:forces:R:3 charge=0 spin=0 energy=-206.42587924918297 free_energy=-206.42587924918297 stress="0.010521567426621914 -3.0513106139551383e-06 3.0806154427409638e-06 -3.0513106139551383e-06 0.010524850338697433 -1.8779167021421017e-06 3.0806154427409638e-06 -1.8779167021421017e-06 -3.074568303418346e-05" pbc="T T T"
Pt      -0.00000005       0.00000022      19.95723419        4      -0.00049719      -0.00009601       0.01865266
Pt       2.80721406      -0.00000018      19.95723436        4      -0.00016801       0.00016285       0.01766297
Pt       5.61442778      -0.00000006      19.95723442        4       0.00023156      -0.00042582       0.01828638
Pt       1.40360717       2.43111838      19.95723425        4       0.00032939       0.00019075       0.01839787
Pt       4.21082080       2.43111835      19.95723435        4       0.00033561       0.00003820       0.01762270
Pt       7.01803478       2.43111843      19.95723423        4       0.00016678      -0.00029737       0.01892732
Pt       2.80721408       4.86223724      19.95723395        4       0.00029452       0.00045520       0.01856356
Pt       5.61442803       4.86223730      19.95723413        4      -0.00004224       0.00016650       0.01850548
Pt       8.42164138       4.86223726      19.95723427        4       0.00026326       0.00011879       0.01887230
Pt       1.40360728       0.81037260      22.29206790        3      -0.00008260       0.00009228      -0.05087854
Pt       4.21082128       0.81037250      22.29206784        3       0.00133229      -0.00040650      -0.04594059
Pt       7.01803477       0.81037260      22.29206779        3       0.00117597       0.00103691      -0.05144949
Pt       2.80721450       3.24149125      22.29206775        3      -0.00054469       0.00115105      -0.05033495
Pt       5.61442762       3.24149123      22.29206790        3       0.00201755      -0.00012629      -0.05402004
Pt       8.42164156       3.24149116      22.29206805        3       0.00019810       0.00029068      -0.05303635
Pt       4.21082094       5.67260998      22.29206797        3       0.00115960      -0.00069625      -0.05323362
Pt       7.01803488       5.67261038      22.29206774        3       0.00032167      -0.00146442      -0.05359785
Pt       9.82524823       5.67261061      22.29206804        3      -0.00040583      -0.00032037      -0.05171475
Pt      -0.00000056       1.62074572      24.58417389        2      -0.00460946      -0.00624478       0.03749744
Pt       2.80721443       1.62074548      24.58417398        2       0.00949779      -0.00567035       0.03746522
Pt       5.61442779       1.62074532      24.58417370        2      -0.00414767      -0.00357260       0.05196765
Pt       1.40360636       4.05186439      24.58417390        2       0.00289273       0.00802654       0.03792371
Pt       4.21082088       4.05186401      24.58417381        2      -0.01340656      -0.00834849       0.04463238
Pt       7.01803503       4.05186407      24.58417407        2      -0.00106346      -0.00218040       0.02558759
Pt       2.80721279       6.48298345      24.58417372        2      -0.00365241       0.00194758       0.05764541
Pt       5.61442797       6.48298324      24.58417392        2      -0.00034447       0.01164686       0.04391094
Pt       8.42164222       6.48298343      24.58417383        2       0.00055086       0.00546499       0.05026311
Pt      -0.00360844       0.00083801      26.92075123        1       0.00804214      -0.00508264      -0.02011659
Pt       2.80736957      -0.00099923      26.92042600        1      -0.00783132       0.00515215      -0.02142435
Pt       5.61298756      -0.00003886      26.92253721        1      -0.00035954       0.00019813      -0.02776379
Pt       1.40369454       2.42955445      26.91121398        1      -0.00144147       0.00048117       0.01639020
Pt       4.21048202       2.43033137      26.92118756        1      -0.00746523       0.00504042      -0.02404340
Pt       7.01576647       2.43196796      26.91699804        1      -0.00318887      -0.01050385      -0.00326433
Pt       2.80411085       4.86318692      26.92132506        1       0.00862991      -0.00460020      -0.02238414
Pt       5.60957749       4.86417968      26.91114691        1       0.00679504      -0.00245819       0.01791897
Pt       8.41955743       4.86171453      26.91630038        1       0.00743237       0.00928226      -0.00147249
N        7.73698182       3.64316142      30.84412484        0      -0.00690452       0.00477915       0.00903208
H        6.89035215       4.12689620      30.51828973        0      -0.00633688       0.00147896      -0.00089695
H        8.53325202       4.12841341      30.41060314        0       0.00086073      -0.01355425      -0.00440970
H        7.70914372       2.70050153      30.43413062        0       0.00996467       0.00884726      -0.00574388
