40
Lattice="8.421641763931781 0.0 0.0 4.2108208819658905 7.293355709136913 0.0 0.0 0.0 46.87624170604845" Properties=species:S:1:pos:R:3:tags:I:1:forces:R:3 charge=0 spin=0 energy=-206.4255969615853 free_energy=-206.4255969615853 stress="0.010524585843086243 -1.1043592166970484e-05 -3.675559355542646e-06 -1.1043592166970484e-05 0.010521067306399345 1.7541697161505e-07 -3.675559355542646e-06 1.7541697161505e-07 -3.269859007559717e-05" pbc="T T T"
Pt      -0.00000005       0.00000022      19.95723419        4       0.00071662      -0.00023662       0.01767304
Pt       2.80721406      -0.00000018      19.95723436        4       0.00050459      -0.00044950       0.01885128
Pt       5.61442778      -0.00000006      19.95723442        4       0.00057777      -0.00003062       0.01842754
Pt       1.40360717       2.43111838      19.95723425        4       0.00037078      -0.00005398       0.01849369
Pt       4.21082080       2.43111835      19.95723435        4       0.00053865      -0.00004606       0.01890595
Pt       7.01803478       2.43111843      19.95723423        4       0.00052967       0.00022838       0.01861980
Pt       2.80721408       4.86223724      19.95723395        4       0.00024583       0.00000521       0.01755392
Pt       5.61442803       4.86223730      19.95723413        4       0.00043970      -0.00066006       0.01828188
Pt       8.42164138       4.86223726      19.95723427        4      -0.00013803      -0.00019547       0.01867987
Pt       1.40360728       0.81037260      22.29206790        3       0.00308870      -0.00091854      -0.05344489
Pt       4.21082128       0.81037250      22.29206784        3       0.00118187      -0.00058066      -0.05208476
Pt       7.01803477       0.81037260      22.29206779        3       0.00054134       0.00045174      -0.05085245
Pt       2.80721450       3.24149125      22.29206775        3       0.00108739      -0.00197163      -0.05359403
Pt       5.61442762       3.24149123      22.29206790        3       0.00090444      -0.00102188      -0.05183944
Pt       8.42164156       3.24149116      22.29206805        3       0.00215624      -0.00164542      -0.05400664
Pt       4.21082094       5.67260998      22.29206797        3       0.00246622      -0.00148922      -0.04572724
Pt       7.01803488       5.67261038      22.29206774        3       0.00211883      -0.00003941      -0.05176984
Pt       9.82524823       5.67261061      22.29206804        3       0.00126613      -0.00110109      -0.05090386
Pt      -0.00000056       1.62074572      24.58417389        2      -0.01600745      -0.00719575       0.04379928
Pt       2.80721443       1.62074548      24.58417398        2      -0.00253099       0.00161283       0.02405656
Pt       5.61442779       1.62074532      24.58417370        2      -0.00177219       0.01000288       0.03773281
Pt       1.40360636       4.05186439      24.58417390        2      -0.00307184       0.01476052       0.04362149
Pt       4.21082088       4.05186401      24.58417381        2      -0.00281299       0.00712857       0.05211405
Pt       7.01803503       4.05186407      24.58417407        2      -0.00780946       0.00523771       0.05731615
Pt       2.80721279       6.48298345      24.58417372        2       0.00591459      -0.00282318       0.03987282
Pt       5.61442797       6.48298324      24.58417392        2      -0.00880221      -0.00228920       0.05162191
Pt       8.42164222       6.48298343      24.58417383        2      -0.00653207      -0.00381713       0.03577085
Pt      -0.00507388       0.00260530      26.92192991        1      -0.00598735       0.00297572      -0.02610856
Pt       2.80036723       0.00405828      26.91579325        1      -0.00168510      -0.01264512       0.00156441
Pt       5.60989843       0.00196484      26.91183934        1       0.00195702      -0.00268723       0.01458794
Pt       1.39508127       2.43632261      26.91082093        1       0.00463169      -0.00323274       0.01868767
Pt       4.20426877       2.43372856      26.91732253        1       0.00966982       0.00935299      -0.00470120
Pt       7.01046578       2.43529867      26.92006111        1       0.00990279      -0.00466561      -0.01907728
Pt       2.80297752       4.86476153      26.92079191        1      -0.00570962       0.00455104      -0.02293902
Pt       5.60788119       4.86502554      26.92305742        1       0.00293853       0.00035258      -0.02898614
Pt       8.41381142       4.86684877      26.92030727        1       0.00866979      -0.00749949      -0.01861534
N        3.49843228       1.21159180      30.83995465        0       0.00671960       0.00594428       0.01389390
H        4.45467364       1.21815904      30.46250696        0       0.00487463      -0.00653651      -0.00416716
H        3.02576405       0.39893853      30.42345267        0      -0.00134113       0.00845859      -0.00577329
H        3.03226985       2.04703509      30.46341109        0      -0.00981308      -0.00723098      -0.00553567
