40
Lattice="8.421641763931781 0.0 0.0 4.2108208819658905 7.293355709136913 0.0 0.0 0.0 46.87624170604845" Properties=species:S:1:pos:R:3:tags:I:1:forces:R:3 charge=0 spin=0 energy=-206.42546344718102 free_energy=-206.42546344718102 stress="0.010526623576879501 -1.6053932995419018e-05 -1.2378488918329822e-06 -1.6053932995419018e-05 0.010518946684896946 4.913343218504451e-06 -1.2378488918329822e-06 4.913343218504451e-06 -3.3924912713700905e-05" pbc="T T T"
Pt      -0.00000005       0.00000022      19.95723419        4       0.00007011      -0.00032789       0.01870815
Pt       2.80721406      -0.00000018      19.95723436        4       0.00046172      -0.00010118       0.01766342
Pt       5.61442778      -0.00000006      19.95723442        4       0.00068643      -0.00063998       0.01831797
Pt       1.40360717       2.43111838      19.95723425        4       0.00082711       0.00000233       0.01839289
Pt       4.21082080       2.43111835      19.95723435        4       0.00092524      -0.00036218       0.01754961
Pt       7.01803478       2.43111843      19.95723423        4       0.00070840      -0.00054378       0.01890926
Pt       2.80721408       4.86223724      19.95723395        4       0.00077856       0.00012662       0.01861263
Pt       5.61442803       4.86223730      19.95723413        4       0.00056702      -0.00014158       0.01849045
Pt       8.42164138       4.86223726      19.95723427        4       0.00077342      -0.00023005       0.01882431
Pt       1.40360728       0.81037260      22.29206790        3       0.00172455      -0.00130391      -0.05151792
Pt       4.21082128       0.81037250      22.29206784        3       0.00337279      -0.00171186      -0.04559892
Pt       7.01803477       0.81037260      22.29206779        3       0.00314813      -0.00060104      -0.05169653
Pt       2.80721450       3.24149125      22.29206775        3       0.00165572      -0.00020648      -0.05060908
Pt       5.61442762       3.24149123      22.29206790        3       0.00360307      -0.00140483      -0.05395066
Pt       8.42164156       3.24149116      22.29206805        3       0.00212117      -0.00096210      -0.05182710
Pt       4.21082094       5.67260998      22.29206797        3       0.00304551      -0.00211582      -0.05386966
Pt       7.01803488       5.67261038      22.29206774        3       0.00203035      -0.00289015      -0.05308711
Pt       9.82524823       5.67261061      22.29206804        3       0.00165349      -0.00127112      -0.05207981
Pt      -0.00000056       1.62074572      24.58417389        2      -0.01026064      -0.00136557       0.03673574
Pt       2.80721443       1.62074548      24.58417398        2       0.00318224      -0.00201369       0.03998389
Pt       5.61442779       1.62074532      24.58417370        2      -0.00972901       0.00020204       0.05314864
Pt       1.40360636       4.05186439      24.58417390        2      -0.00269257       0.01088668       0.03623462
Pt       4.21082088       4.05186401      24.58417381        2      -0.01858619      -0.00546739       0.04440495
Pt       7.01803503       4.05186407      24.58417407        2      -0.00651009       0.00125398       0.02387746
Pt       2.80721279       6.48298345      24.58417372        2      -0.01046732       0.00612894       0.05710368
Pt       5.61442797       6.48298324      24.58417392        2      -0.00496139       0.01553988       0.04281398
Pt       8.42164222       6.48298343      24.58417383        2      -0.00474422       0.01008506       0.05066352
Pt      -0.01124536       0.00617558      26.91956039        1       0.00938643      -0.00805780      -0.01713157
Pt       2.79954960       0.00427114      26.92102765        1      -0.00463712       0.00381772      -0.02284898
Pt       5.60556055       0.00597724      26.92310579        1       0.00214485      -0.00408195      -0.02911430
Pt       1.39574649       2.43483494      26.91178772        1       0.00440772      -0.00206192       0.01516665
Pt       4.20229150       2.43544516      26.92170843        1      -0.00413448       0.00207130      -0.02583190
Pt       7.00810499       2.43742310      26.91734645        1      -0.00081368      -0.01383193      -0.00471407
Pt       2.79603144       4.86794355      26.92068508        1       0.01271602      -0.00474844      -0.02018536
Pt       5.60251646       4.86889964      26.91094442        1       0.00674900      -0.00129183       0.01802084
Pt       8.41200204       4.86711469      26.91577516        1       0.01117456       0.00827861       0.00171938
N        7.72728023       3.65254514      30.83561706        0      -0.00665496      -0.00578938       0.01413372
H        8.19954599       2.81604758      30.46916522        0       0.00948984       0.00771054      -0.00615419
H        6.77453645       3.64045073      30.44955653        0      -0.00474244       0.00590142      -0.00367096
H        8.20118502       4.46394824      30.41809850        0       0.00153091      -0.00848102      -0.00558741
