40
Lattice="8.421641763931781 0.0 0.0 4.2108208819658905 7.293355709136913 0.0 0.0 0.0 46.87624170604845" Properties=species:S:1:pos:R:3:tags:I:1:forces:R:3 charge=0 spin=0 energy=-206.41953159293297 free_energy=-206.41953159293297 stress="0.010490485467016697 -9.023556776810437e-05 -1.844982398324646e-05 -9.023556776810437e-05 0.01044298056513071 -5.625652647722745e-06 -1.844982398324646e-05 -5.625652647722745e-06 -0.00017510881298221648" pbc="T T T"
Pt      -0.00000005       0.00000022      19.95723419        4       0.00342078      -0.00044670       0.01744764
Pt       2.80721406      -0.00000018      19.95723436        4       0.00330900      -0.00072852       0.01855027
Pt       5.61442778      -0.00000006      19.95723442        4       0.00308047      -0.00034158       0.01821912
Pt       1.40360717       2.43111838      19.95723425        4       0.00306228      -0.00053625       0.01843273
Pt       4.21082080       2.43111835      19.95723435        4       0.00315560      -0.00093995       0.01886969
Pt       7.01803478       2.43111843      19.95723423        4       0.00364851      -0.00051370       0.01840379
Pt       2.80721408       4.86223724      19.95723395        4       0.00279106      -0.00083316       0.01749024
Pt       5.61442803       4.86223730      19.95723413        4       0.00355894      -0.00109673       0.01835777
Pt       8.42164138       4.86223726      19.95723427        4       0.00295295      -0.00079218       0.01848773
Pt       1.40360728       0.81037260      22.29206790        3       0.01418453      -0.00498089      -0.05094252
Pt       4.21082128       0.81037250      22.29206784        3       0.01261404      -0.00402116      -0.05125923
Pt       7.01803477       0.81037260      22.29206779        3       0.01075623      -0.00380428      -0.05070026
Pt       2.80721450       3.24149125      22.29206775        3       0.01277811      -0.00457922      -0.05099041
Pt       5.61442762       3.24149123      22.29206790        3       0.01186473      -0.00369516      -0.05419631
Pt       8.42164156       3.24149116      22.29206805        3       0.01263344      -0.00454083      -0.05067820
Pt       4.21082094       5.67260998      22.29206797        3       0.01335712      -0.00585698      -0.04876797
Pt       7.01803488       5.67261038      22.29206774        3       0.01290831      -0.00315620      -0.05266655
Pt       9.82524823       5.67261061      22.29206804        3       0.01258029      -0.00312807      -0.05263833
Pt      -0.00000056       1.62074572      24.58417389        2      -0.03853190       0.00854711       0.02857821
Pt       2.80721443       1.62074548      24.58417398        2      -0.03886801       0.01381233       0.00778738
Pt       5.61442779       1.62074532      24.58417370        2      -0.03393592       0.01435471       0.02403842
Pt       1.40360636       4.05186439      24.58417390        2      -0.03793559       0.01006577       0.02880946
Pt       4.21082088       4.05186401      24.58417381        2      -0.03979165       0.00851202       0.03018089
Pt       7.01803503       4.05186407      24.58417407        2      -0.03333717       0.01036239       0.03401699
Pt       2.80721279       6.48298345      24.58417372        2      -0.03436700       0.00959475       0.02417319
Pt       5.61442797       6.48298324      24.58417392        2      -0.03962026       0.01244643       0.02483096
Pt       8.42164222       6.48298343      24.58417383        2      -0.03539914       0.00407492       0.02257476
Pt      -0.04980144       0.01734956      26.91577385        1       0.01992033      -0.01316826       0.00223248
Pt       2.75941490       0.01826972      26.91342523        1       0.00432407      -0.03182470       0.01112450
Pt       5.56397917       0.01582423      26.91456421        1       0.03838961      -0.01388492       0.01022514
Pt       1.35668302       2.44614352      26.91538005        1       0.00207186       0.00840916       0.00749211
Pt       4.16171264       2.44486443      26.91509913        1       0.03015925       0.02132512       0.01534758
Pt       6.96904956       2.44600247      26.91586343        1       0.02597872       0.00107581       0.00355940
Pt       2.75630311       4.87840737      26.91472619        1       0.03081092      -0.00533016       0.00644650
Pt       5.56598892       4.87870003      26.91248847        1       0.01942863      -0.00467196       0.01147253
Pt       8.37273373       4.87788315      26.91700333        1       0.01732729      -0.01078078      -0.00194575
N        3.50513362       1.13053933      30.81357464        0       0.01020278       0.01087886       0.01135451
H        4.01729616       2.01270180      30.68610597        0      -0.00026103       0.01472579       0.00059869
H        4.04751153       0.40849183      30.32119732        0      -0.03400277      -0.00054012      -0.00322276
H        2.61782478       1.23367018      30.30345536        0       0.02478072      -0.02399259      -0.00109438
