40
Lattice="8.421641763931781 0.0 0.0 4.2108208819658905 7.293355709136913 0.0 0.0 0.0 46.87624170604845" Properties=species:S:1:pos:R:3:tags:I:1:forces:R:3 charge=0 spin=0 energy=-206.99403835257652 free_energy=-206.99403835257652 stress="0.010009774938225746 8.140808205325811e-08 4.926905106117374e-09 8.140808205325811e-08 0.01000988855957985 -1.552453738895565e-07 4.926905106117374e-09 -1.552453738895565e-07 -0.00023342919303104281" pbc="T T T"
Pt      -0.00000005       0.00000022      19.95723419        4       0.00552282       0.00144084       0.02231279
Pt       2.80721406      -0.00000018      19.95723436        4      -0.00000237      -0.00000114      -0.04340982
Pt       5.61442778      -0.00000006      19.95723442        4      -0.00510683       0.00008617       0.02113790
Pt       1.40360717       2.43111838      19.95723425        4       0.00248539      -0.00446369       0.02112182
Pt       4.21082080       2.43111835      19.95723435        4      -0.00151656      -0.00550151       0.02234055
Pt       7.01803478       2.43111843      19.95723423        4      -0.00000196       0.00000543       0.01863718
Pt       2.80721408       4.86223724      19.95723395        4       0.00000084      -0.00000200       0.02418221
Pt       5.61442803       4.86223730      19.95723413        4       0.00261863       0.00438738       0.02112621
Pt       8.42164138       4.86223726      19.95723427        4      -0.00400275       0.00406309       0.02228208
Pt       1.40360728       0.81037260      22.29206790        3       0.02445111      -0.01081035      -0.08299267
Pt       4.21082128       0.81037250      22.29206784        3      -0.02159106      -0.01570734      -0.08301134
Pt       7.01803477       0.81037260      22.29206779        3      -0.00283248       0.00245015      -0.04600406
Pt       2.80721450       3.24149125      22.29206775        3       0.00089386      -0.00082566      -0.07494929
Pt       5.61442762       3.24149123      22.29206790        3       0.00353503       0.00130674      -0.04607043
Pt       8.42164156       3.24149116      22.29206805        3      -0.00069375      -0.00371877      -0.04609926
Pt       4.21082094       5.67260998      22.29206797        3       0.00029939       0.00123463      -0.07479831
Pt       7.01803488       5.67261038      22.29206774        3      -0.00286403       0.02655094      -0.08293993
Pt       9.82524823       5.67261061      22.29206804        3      -0.00119505      -0.00039492      -0.07484879
Pt      -0.00000056       1.62074572      24.58417389        2      -0.13653186       0.08367880       0.24918433
Pt       2.80721443       1.62074548      24.58417398        2       0.00453149      -0.04922045      -0.08028341
Pt       5.61442779       1.62074532      24.58417370        2       0.14076169       0.07639993       0.24923326
Pt       1.40360636       4.05186439      24.58417390        2       0.00537638       0.00903836       0.00754836
Pt       4.21082088       4.05186401      24.58417381        2      -0.01058519       0.00015442       0.00746747
Pt       7.01803503       4.05186407      24.58417407        2      -0.00421467      -0.16013350       0.24918625
Pt       2.80721279       6.48298345      24.58417372        2       0.00521841      -0.00924490       0.00730058
Pt       5.61442797       6.48298324      24.58417392        2       0.04037478       0.02856099      -0.08056708
Pt       8.42164222       6.48298343      24.58417383        2      -0.04493345       0.02056680      -0.08043320
Pt       0.01151579      -0.01953500      26.90566598        1      -0.01378315       0.01339719      -0.00745632
Pt       2.80721199      -0.00001772      26.92480032        1       0.00000419      -0.00003273       0.00275491
Pt       5.60277955      -0.01898256      26.90627724        1       0.01040701       0.00913786      -0.00274115
Pt       1.42580410       2.43050255      26.90628519        1      -0.01302627       0.00439950      -0.00279122
Pt       4.18818404       2.43088775      26.90567373        1       0.01848263       0.00514531      -0.00744847
Pt       7.01803240       2.43100324      26.99539409        1      -0.00000887       0.00006525       0.00341827
Pt       2.80721500       4.86221375      26.92827521        1       0.00001457      -0.00004372      -0.01175743
Pt       5.60387280       4.88174052      26.90627779        1       0.00263328      -0.01361333      -0.00277035
Pt       8.43276330       4.88190859      26.90568729        1      -0.00471216      -0.01863075      -0.00743087
N        7.01803584       2.43112363      29.15363847        0      -0.00000180       0.00062636      -0.01610576
H        6.53351074       3.27352668      29.49041801        0       0.02104927      -0.03712418       0.00198440
H        7.98974454       2.42968182      29.49067823        0      -0.04281101      -0.00027184       0.00188718
H        6.53085274       1.59047782      29.49094102        0       0.02175439       0.03704461       0.00180325
