40
Lattice="8.421641763931781 0.0 0.0 4.2108208819658905 7.293355709136913 0.0 0.0 0.0 46.87624170604845" Properties=species:S:1:pos:R:3:tags:I:1:forces:R:3 charge=0 spin=0 energy=-206.4269683452523 free_energy=-206.4269683452523 stress="0.010526380501687527 -7.191329132183455e-07 7.209280994402434e-08 -7.191329132183455e-07 0.010525733232498169 1.1012406275767717e-06 7.209280994402434e-08 1.1012406275767717e-06 -2.2576226911041886e-05" pbc="T T T"
Pt      -0.00000005       0.00000022      19.95723419        4       0.00034459       0.00020799       0.01800192
Pt       2.80721406      -0.00000018      19.95723436        4       0.00006316      -0.00006264       0.01873116
Pt       5.61442778      -0.00000006      19.95723442        4       0.00002689       0.00009584       0.01872096
Pt       1.40360717       2.43111838      19.95723425        4       0.00001126       0.00018772       0.01847718
Pt       4.21082080       2.43111835      19.95723435        4      -0.00009228      -0.00001787       0.01871244
Pt       7.01803478       2.43111843      19.95723423        4       0.00015500      -0.00009689       0.01847226
Pt       2.80721408       4.86223724      19.95723395        4      -0.00034602       0.00017962       0.01802240
Pt       5.61442803       4.86223730      19.95723413        4       0.00000299      -0.00040329       0.01801066
Pt       8.42164138       4.86223726      19.95723427        4      -0.00015387      -0.00008873       0.01848055
Pt       1.40360728       0.81037260      22.29206790        3       0.00063461      -0.00011568      -0.05213677
Pt       4.21082128       0.81037250      22.29206784        3       0.00001232       0.00002440      -0.05151407
Pt       7.01803477       0.81037260      22.29206779        3      -0.00072697       0.00069236      -0.05237311
Pt       2.80721450       3.24149125      22.29206775        3      -0.00022267      -0.00105029      -0.05233255
Pt       5.61442762       3.24149123      22.29206790        3      -0.00041002      -0.00051619      -0.05217671
Pt       8.42164156       3.24149116      22.29206805        3      -0.00000576      -0.00000514      -0.05453144
Pt       4.21082094       5.67260998      22.29206797        3       0.00002735       0.00003499      -0.04620807
Pt       7.01803488       5.67261038      22.29206774        3       0.00097831       0.00027825      -0.05237866
Pt       9.82524823       5.67261061      22.29206804        3      -0.00024804       0.00059282      -0.05213135
Pt      -0.00000056       1.62074572      24.58417389        2      -0.00105079      -0.00977058       0.05035191
Pt       2.80721443       1.62074548      24.58417398        2      -0.00407471       0.00113635       0.02957354
Pt       5.61442779       1.62074532      24.58417370        2       0.00318146       0.00248497       0.02965140
Pt       1.40360636       4.05186439      24.58417390        2       0.00895334       0.00408848       0.05043897
Pt       4.21082088       4.05186401      24.58417381        2      -0.00072273       0.01024543       0.05265977
Pt       7.01803503       4.05186407      24.58417407        2      -0.00785462       0.00582804       0.05036100
Pt       2.80721279       6.48298345      24.58417372        2       0.00885732      -0.00437141       0.05321556
Pt       5.61442797       6.48298324      24.58417392        2      -0.00830794      -0.00544328       0.05307697
Pt       8.42164222       6.48298343      24.58417383        2       0.00091607      -0.00391917       0.02997751
Pt       0.00044924      -0.00076899      26.92337462        1      -0.00129873       0.00108266      -0.03325949
Pt       2.80771236       0.00054807      26.91502656        1      -0.01287228      -0.00688102       0.00558410
Pt       5.61372907       0.00019065      26.91512227        1       0.01238852      -0.00760255       0.00533273
Pt       1.40408573       2.43127553      26.91618699        1      -0.00413222       0.00201180      -0.00397484
Pt       4.21100260       2.43051408      26.91479505        1       0.00047353       0.01444807       0.00640291
Pt       7.01785957       2.43061298      26.91619334        1       0.00386799       0.00264079      -0.00398973
Pt       2.80763334       4.86311159      26.92338812        1      -0.00034964      -0.00150011      -0.03345088
Pt       5.61349196       4.86227488      26.92333101        1       0.00171570       0.00082382      -0.03325809
Pt       8.42125874       4.86268891      26.91623485        1       0.00030250      -0.00469391      -0.00416316
N        4.21084921       0.81565891      31.01019333        0       0.00013927      -0.00162202       0.03026230
H        5.16067434       0.80403953      30.61718169        0       0.00917003       0.00026527      -0.01153502
H        3.73227153      -0.01179265      30.63201038        0      -0.00729854      -0.00758403      -0.01114299
H        3.73953655       1.63313352      30.60228927        0      -0.00205447       0.00839510      -0.01196138
