40
Lattice="8.421641763931781 0.0 0.0 4.2108208819658905 7.293355709136913 0.0 0.0 0.0 46.87624170604845" Properties=species:S:1:pos:R:3:tags:I:1:forces:R:3 charge=0 spin=0 energy=-206.4241836162484 free_energy=-206.4241836162484 stress="0.010427365079522133 -8.936734730013995e-08 3.42195249913857e-08 -8.936734730013995e-08 0.010427670553326607 2.3769185730770914e-08 3.42195249913857e-08 2.3769185730770914e-08 -0.0001810745452530682" pbc="T T T"
Pt      -0.00000005       0.00000022      19.95723419        4       0.00040428       0.00020590       0.01846263
Pt       2.80721406      -0.00000018      19.95723436        4       0.00001029       0.00016112       0.01857501
Pt       5.61442778      -0.00000006      19.95723442        4       0.00012703      -0.00008228       0.01855966
Pt       1.40360717       2.43111838      19.95723425        4      -0.00037356       0.00024505       0.01847592
Pt       4.21082080       2.43111835      19.95723435        4      -0.00002325      -0.00045650       0.01782713
Pt       7.01803478       2.43111843      19.95723423        4      -0.00002774      -0.00044665       0.01847132
Pt       2.80721408       4.86223724      19.95723395        4      -0.00038104       0.00024645       0.01782633
Pt       5.61442803       4.86223730      19.95723413        4       0.00040712       0.00020554       0.01782802
Pt       8.42164138       4.86223726      19.95723427        4      -0.00013849      -0.00007386       0.01858159
Pt       1.40360728       0.81037260      22.29206790        3      -0.00026714      -0.00027780      -0.05305304
Pt       4.21082128       0.81037250      22.29206784        3      -0.00051197       0.00077720      -0.04916126
Pt       7.01803477       0.81037260      22.29206779        3      -0.00010819       0.00037761      -0.05306276
Pt       2.80721450       3.24149125      22.29206775        3      -0.00050267      -0.00053647      -0.05201511
Pt       5.61442762       3.24149123      22.29206790        3       0.00071856      -0.00016021      -0.05201909
Pt       8.42164156       3.24149116      22.29206805        3       0.00038643      -0.00008902      -0.05302778
Pt       4.21082094       5.67260998      22.29206797        3      -0.00021743       0.00071369      -0.05204379
Pt       7.01803488       5.67261038      22.29206774        3      -0.00041287      -0.00082370      -0.04915967
Pt       9.82524823       5.67261061      22.29206804        3       0.00093251       0.00004739      -0.04916420
Pt      -0.00000056       1.62074572      24.58417389        2      -0.00001092       0.00002613      -0.00336928
Pt       2.80721443       1.62074548      24.58417398        2       0.00721751      -0.00325421       0.02635953
Pt       5.61442779       1.62074532      24.58417370        2      -0.01022638      -0.00299041       0.03227065
Pt       1.40360636       4.05186439      24.58417390        2       0.00250890       0.01033955       0.03223434
Pt       4.21082088       4.05186401      24.58417381        2       0.00000319      -0.00003941       0.03944129
Pt       7.01803503       4.05186407      24.58417407        2      -0.00080953       0.00785651       0.02633720
Pt       2.80721279       6.48298345      24.58417372        2      -0.00642704      -0.00462904       0.02631381
Pt       5.61442797       6.48298324      24.58417392        2       0.00770514      -0.00736284       0.03220754
Pt       8.42164222       6.48298343      24.58417383        2      -0.00001798      -0.00001312       0.00450066
Pt       0.00038572       0.00254641      26.90691481        1       0.00090838      -0.02668822       0.03511566
Pt       2.81302183      -0.00085210      26.91684442        1      -0.04275199       0.01304272       0.00005066
Pt       5.61077916      -0.00462603      26.91684432        1       0.03267192       0.03052744       0.00003217
Pt       1.40119191       2.43017486      26.90694155        1       0.02264454       0.01413117       0.03500677
Pt       4.20894027       2.43000884      26.91771271        1       0.01116843       0.01800804      -0.01122160
Pt       7.02004032       2.42949500      26.90695014        1      -0.02357772       0.01254647       0.03496167
Pt       2.80718850       4.86438694      26.91767656        1       0.01005710      -0.01863107      -0.01110054
Pt       5.61630398       4.86115769      26.91768297        1      -0.02118292       0.00063815      -0.01110538
Pt       8.41945501       4.86768745      26.91684585        1       0.01010189      -0.04354046       0.00001993
N        8.42169599       6.48302518      30.82374002        0      -0.00026300      -0.00004358      -0.00660452
H        9.12855878       5.84957501      30.42826314        0       0.01091320      -0.01132045       0.00550550
H        7.51966418       6.18758501      30.42830754        0      -0.01563774      -0.00353905       0.00561996
H        8.61678379       7.41197717      30.42838010        0       0.00498311       0.01490229       0.00552322
