40
Lattice="8.421641763931781 0.0 0.0 4.2108208819658905 7.293355709136913 0.0 0.0 0.0 46.87624170604845" Properties=species:S:1:pos:R:3:tags:I:1:forces:R:3 charge=0 spin=0 energy=-206.9931762309945 free_energy=-206.9931762309945 stress="0.010014021769165993 -7.564713655483501e-08 -1.252715264854487e-08 -7.564713655483501e-08 0.010014048777520657 8.101039283836542e-11 -1.252715264854487e-08 8.101039283836542e-11 -0.00022638709924649447" pbc="T T T"
Pt      -0.00000005       0.00000022      19.95723419        4      -0.00161862      -0.00528068       0.02214101
Pt       2.80721406      -0.00000018      19.95723436        4      -0.00000239       0.00000341       0.01869590
Pt       5.61442778      -0.00000006      19.95723442        4       0.00266041      -0.00445923       0.02145543
Pt       1.40360717       2.43111838      19.95723425        4       0.00252913       0.00453566       0.02147170
Pt       4.21082080       2.43111835      19.95723435        4      -0.00375307       0.00404102       0.02208588
Pt       7.01803478       2.43111843      19.95723423        4      -0.00000226       0.00000153       0.02415617
Pt       2.80721408       4.86223724      19.95723395        4       0.00000137      -0.00000386      -0.04330909
Pt       5.61442803       4.86223730      19.95723413        4      -0.00519183      -0.00007512       0.02148828
Pt       8.42164138       4.86223726      19.95723427        4       0.00537623       0.00123630       0.02211610
Pt       1.40360728       0.81037260      22.29206790        3       0.00321638       0.00079697      -0.04675549
Pt       4.21082128       0.81037250      22.29206784        3      -0.00097841      -0.00320648      -0.04678867
Pt       7.01803477       0.81037260      22.29206779        3       0.00199366      -0.00081687      -0.07383709
Pt       2.80721450       3.24149125      22.29206775        3      -0.00146231       0.02618342      -0.08347140
Pt       5.61442762       3.24149123      22.29206790        3      -0.00173435      -0.00134089      -0.07374016
Pt       8.42164156       3.24149116      22.29206805        3      -0.00025218       0.00216606      -0.07369166
Pt       4.21082094       5.67260998      22.29206797        3      -0.02197668      -0.01431356      -0.08353075
Pt       7.01803488       5.67261038      22.29206774        3      -0.00224859       0.00241618      -0.04670284
Pt       9.82524823       5.67261061      22.29206804        3       0.02343477      -0.01187330      -0.08351504
Pt      -0.00000056       1.62074572      24.58417389        2      -0.00930986       0.00074569       0.00967966
Pt       2.80721443       1.62074548      24.58417398        2      -0.00458767      -0.15955554       0.24964730
Pt       5.61442779       1.62074532      24.58417370        2       0.00524716       0.00765519       0.00975770
Pt       1.40360636       4.05186439      24.58417390        2       0.03959548       0.02567847      -0.08192888
Pt       4.21082088       4.05186401      24.58417381        2      -0.04200096       0.02139613      -0.08179761
Pt       7.01803503       4.05186407      24.58417407        2       0.00404627      -0.00840138       0.00948210
Pt       2.80721279       6.48298345      24.58417372        2       0.00242577      -0.04707186      -0.08164183
Pt       5.61442797       6.48298324      24.58417392        2       0.14045851       0.07581639       0.24964711
Pt       8.42164222       6.48298343      24.58417383        2      -0.13586804       0.08374800       0.24960737
Pt      -0.02227877       0.00002250      26.90612525        1       0.01609543       0.00624595      -0.00729689
Pt       2.80721454       0.00000080      26.99502478        1      -0.00000092      -0.00000154       0.00945410
Pt       5.63683060      -0.00077282      26.90687011        1      -0.01621372       0.00637147      -0.00716981
Pt       1.39308574       2.45091956      26.90686251        1       0.00260036      -0.01730339      -0.00714340
Pt       4.22198773       2.45041315      26.90613542        1      -0.00264611      -0.01713850      -0.00725414
Pt       7.01803614       2.43111437      26.92861390        1       0.00000859      -0.00001296      -0.00936365
Pt       2.80721306       4.86224058      26.92230007        1      -0.00000255       0.00000908       0.00710528
Pt       5.60254851       4.84321018      26.90686470        1       0.01362496       0.01093127      -0.00713398
Pt       8.43275430       4.84292028      26.90611061        1      -0.01346377       0.01088066      -0.00728768
N        2.80721343      -0.00000030      29.15419505        0      -0.00003069      -0.00002992      -0.01999711
H        2.80938502      -0.97180068      29.49103036        0      -0.00008549       0.04744308       0.00178452
H        1.96452423       0.48401740      29.49103214        0       0.04112327      -0.02363822       0.00178481
H        3.64773008       0.48777955      29.49103192        0      -0.04100731      -0.02377848       0.00179676
