40
Lattice="8.421641763931781 0.0 0.0 4.2108208819658905 7.293355709136913 0.0 0.0 0.0 46.87624170604845" Properties=species:S:1:pos:R:3:tags:I:1:forces:R:3 charge=0 spin=0 energy=-206.42418170889977 free_energy=-206.42418170889977 stress="0.01042734831571579 -8.723714728375853e-08 2.4288388189575016e-08 -8.723714728375853e-08 0.01042767520993948 1.5708652156831704e-08 2.4288388189575016e-08 1.5708652156831704e-08 -0.0001810877729440108" pbc="T T T"
Pt      -0.00000005       0.00000022      19.95723419        4      -0.00013629      -0.00007133       0.01858152
Pt       2.80721406      -0.00000018      19.95723436        4      -0.00038488       0.00025281       0.01782429
Pt       5.61442778      -0.00000006      19.95723442        4       0.00040803       0.00021223       0.01781895
Pt       1.40360717       2.43111838      19.95723425        4       0.00012819      -0.00008490       0.01856935
Pt       4.21082080       2.43111835      19.95723435        4       0.00040283       0.00020887       0.01846318
Pt       7.01803478       2.43111843      19.95723423        4       0.00001096       0.00016001       0.01857590
Pt       2.80721408       4.86223724      19.95723395        4      -0.00002527      -0.00045190       0.01847221
Pt       5.61442803       4.86223730      19.95723413        4      -0.00037525       0.00024138       0.01847486
Pt       8.42164138       4.86223726      19.95723427        4      -0.00002393      -0.00046200       0.01782650
Pt       1.40360728       0.81037260      22.29206790        3       0.00092483       0.00005969      -0.04916409
Pt       4.21082128       0.81037250      22.29206784        3      -0.00021836       0.00071497      -0.05204612
Pt       7.01803477       0.81037260      22.29206779        3      -0.00040947      -0.00081806      -0.04915790
Pt       2.80721450       3.24149125      22.29206775        3      -0.00011688       0.00037771      -0.05306412
Pt       5.61442762       3.24149123      22.29206790        3      -0.00026270      -0.00027798      -0.05305414
Pt       8.42164156       3.24149116      22.29206805        3      -0.00050525       0.00077553      -0.04916209
Pt       4.21082094       5.67260998      22.29206797        3       0.00038043      -0.00008883      -0.05302414
Pt       7.01803488       5.67261038      22.29206774        3      -0.00049774      -0.00054256      -0.05201537
Pt       9.82524823       5.67261061      22.29206804        3       0.00072251      -0.00017172      -0.05201721
Pt      -0.00000056       1.62074572      24.58417389        2      -0.00000575      -0.00001044       0.00449322
Pt       2.80721443       1.62074548      24.58417398        2      -0.00644796      -0.00462050       0.02630671
Pt       5.61442779       1.62074532      24.58417370        2       0.00771505      -0.00735686       0.03220819
Pt       1.40360636       4.05186439      24.58417390        2      -0.01022649      -0.00300276       0.03226323
Pt       4.21082088       4.05186401      24.58417381        2      -0.00001425       0.00003034      -0.00338298
Pt       7.01803503       4.05186407      24.58417407        2       0.00722153      -0.00325757       0.02635475
Pt       2.80721279       6.48298345      24.58417372        2      -0.00079314       0.00785320       0.02633872
Pt       5.61442797       6.48298324      24.58417392        2       0.00249823       0.01034488       0.03223355
Pt       8.42164222       6.48298343      24.58417383        2      -0.00000490      -0.00004799       0.03944623
Pt      -0.00218643       0.00545191      26.91684683        1       0.01009518      -0.04355551       0.00001512
Pt       2.80718913       0.00215053      26.91767637        1       0.01005961      -0.01863952      -0.01109880
Pt       5.61630398      -0.00107979      26.91768376        1      -0.02118173       0.00063817      -0.01111072
Pt       1.39995749       2.42649106      26.91684388        1       0.03267891       0.03053761       0.00003238
Pt       4.21120701       2.43366418      26.90691119        1       0.00091260      -0.02668440       0.03513061
Pt       7.02384499       2.43026503      26.91684582        1      -0.04276864       0.01305009       0.00005333
Pt       2.80921929       4.86061358      26.90694618        1      -0.02358147       0.01254719       0.03497815
Pt       5.61201238       4.86129434      26.90693843        1       0.02264950       0.01412784       0.03502386
Pt       8.41976010       4.86112682      26.91771294        1       0.01117441       0.01801235      -0.01122393
N        8.42169471       1.62078805      30.82379616        0      -0.00020309       0.00000509      -0.00662136
H        9.12855063       0.98732836      30.42831716        0       0.01090022      -0.01131562       0.00551222
H        7.51966112       1.32536103      30.42836193        0      -0.01567502      -0.00355547       0.00560327
H        8.61679685       2.54973715      30.42843320        0       0.00497523       0.01486620       0.00554254
