40
Lattice="8.421641763931781 0.0 0.0 4.2108208819658905 7.293355709136913 0.0 0.0 0.0 46.87624170604845" Properties=species:S:1:pos:R:3:tags:I:1:forces:R:3 charge=0 spin=0 energy=-206.994030723182 free_energy=-206.994030723182 stress="0.010009882040321827 -1.389701083098771e-07 -4.499759231890721e-09 -1.389701083098771e-07 0.01000986061990261 2.033508081922264e-07 -4.499759231890721e-09 2.033508081922264e-07 -0.0002337971527595073" pbc="T T T"
Pt      -0.00000005       0.00000022      19.95723419        4       0.00000289      -0.00000279       0.02411003
Pt       2.80721406      -0.00000018      19.95723436        4       0.00275595       0.00455668       0.02160592
Pt       5.61442778      -0.00000006      19.95723442        4      -0.00392457       0.00389824       0.02174810
Pt       1.40360717       2.43111838      19.95723425        4       0.00533915       0.00145865       0.02178866
Pt       4.21082080       2.43111835      19.95723435        4       0.00000157       0.00000440      -0.04329305
Pt       7.01803478       2.43111843      19.95723423        4      -0.00532826       0.00011622       0.02162218
Pt       2.80721408       4.86223724      19.95723395        4       0.00257034      -0.00467867       0.02159752
Pt       5.61442803       4.86223730      19.95723413        4      -0.00141628      -0.00535975       0.02181135
Pt       8.42164138       4.86223726      19.95723427        4       0.00000061      -0.00000547       0.01878623
Pt       1.40360728       0.81037260      22.29206790        3      -0.00065446       0.00309719      -0.07511047
Pt       4.21082128       0.81037250      22.29206784        3      -0.00031579       0.02656142      -0.08283743
Pt       7.01803477       0.81037260      22.29206779        3      -0.00234897      -0.00216080      -0.07516091
Pt       2.80721450       3.24149125      22.29206775        3       0.02317764      -0.01304851      -0.08287802
Pt       5.61442762       3.24149123      22.29206790        3      -0.02287139      -0.01352712      -0.08288956
Pt       8.42164156       3.24149116      22.29206805        3      -0.00167812       0.00188239      -0.04589833
Pt       4.21082094       5.67260998      22.29206797        3       0.00299913      -0.00094028      -0.07525966
Pt       7.01803488       5.67261038      22.29206774        3       0.00247407       0.00056163      -0.04593745
Pt       9.82524823       5.67261061      22.29206804        3      -0.00078986      -0.00247694      -0.04598179
Pt      -0.00000056       1.62074572      24.58417389        2       0.00307127      -0.00891166       0.00686802
Pt       2.80721443       1.62074548      24.58417398        2       0.04207573       0.02435094      -0.08010138
Pt       5.61442779       1.62074532      24.58417370        2      -0.04206843       0.02427541      -0.07998116
Pt       1.40360636       4.05186439      24.58417390        2      -0.13643949       0.08395051       0.24896672
Pt       4.21082088       4.05186401      24.58417381        2       0.00000108      -0.04853735      -0.07984564
Pt       7.01803503       4.05186407      24.58417407        2       0.14090624       0.07626522       0.24901706
Pt       2.80721279       6.48298345      24.58417372        2       0.00620041       0.00706860       0.00712857
Pt       5.61442797       6.48298324      24.58417392        2      -0.00928698       0.00185440       0.00706862
Pt       8.42164222       6.48298343      24.58417383        2      -0.00446054      -0.16015159       0.24904476
Pt       0.00000024       0.00000989      26.92895303        1       0.00000050       0.00002553      -0.01202070
Pt       2.79660636       0.01996209      26.90621950        1       0.00478441      -0.01912274      -0.00733874
Pt       5.62603305       0.01917847      26.90576073        1      -0.00215945      -0.01360606      -0.00323280
Pt       1.41435562       2.41153592      26.90573977        1      -0.01062374       0.00870399      -0.00327580
Pt       4.21081802       2.43113699      26.92403179        1      -0.00000433       0.00003086       0.00425709
Pt       7.00608417       2.41200303      26.90622393        1       0.01415942       0.01370369      -0.00735108
Pt       2.82977582       4.86146392      26.90621968        1      -0.01894029       0.00548986      -0.00734504
Pt       5.59206916       4.86271318      26.90575820        1       0.01277999       0.00495935      -0.00329341
Pt       8.42164294       4.86233242      26.99528118        1       0.00000521      -0.00005721       0.00440360
N        8.42163925       4.86223102      29.15363007        0       0.00009573      -0.00002659      -0.01615530
H        8.90560914       4.01950133      29.49040635        0      -0.02229927       0.03750317       0.00213148
H        7.44990361       4.86437327      29.49061781        0       0.04349389       0.00026992       0.00180889
H        8.90940670       5.70259866      29.49083678        0      -0.02128494      -0.03797475       0.00142292
