40
Lattice="8.421641763931781 0.0 0.0 4.2108208819658905 7.293355709136913 0.0 0.0 0.0 46.87624170604845" Properties=species:S:1:pos:R:3:tags:I:1:forces:R:3 charge=0 spin=0 energy=-206.42115665396813 free_energy=-206.42115665396813 stress="0.01037748996168375 9.934246008924674e-06 -1.7592695940038539e-06 9.934246008924674e-06 0.010540645569562912 -1.6510570276295766e-05 -1.7592695940038539e-06 -1.6510570276295766e-05 -0.00017747879610396922" pbc="T T T"
Pt      -0.00000005       0.00000022      19.95723419        4      -0.00083575       0.00318728       0.01843148
Pt       2.80721406      -0.00000018      19.95723436        4      -0.00065165       0.00295731       0.01839000
Pt       5.61442778      -0.00000006      19.95723442        4      -0.00023588       0.00287560       0.01839586
Pt       1.40360717       2.43111838      19.95723425        4      -0.00036671       0.00308178       0.01730631
Pt       4.21082080       2.43111835      19.95723435        4      -0.00049245       0.00270998       0.01725313
Pt       7.01803478       2.43111843      19.95723423        4      -0.00054658       0.00289397       0.01862597
Pt       2.80721408       4.86223724      19.95723395        4      -0.00007524       0.00342423       0.01845898
Pt       5.61442803       4.86223730      19.95723413        4      -0.00025072       0.00302093       0.01876725
Pt       8.42164138       4.86223726      19.95723427        4      -0.00051534       0.00306991       0.01881661
Pt       1.40360728       0.81037260      22.29206790        3      -0.00000641       0.01040404      -0.05099702
Pt       4.21082128       0.81037250      22.29206784        3      -0.00039054       0.01125353      -0.05145750
Pt       7.01803477       0.81037260      22.29206779        3       0.00031108       0.01199878      -0.05107981
Pt       2.80721450       3.24149125      22.29206775        3      -0.00003784       0.01416254      -0.04808415
Pt       5.61442762       3.24149123      22.29206790        3       0.00010355       0.01256771      -0.05106175
Pt       8.42164156       3.24149116      22.29206805        3       0.00029511       0.01357911      -0.05139101
Pt       4.21082094       5.67260998      22.29206797        3      -0.00044627       0.01101526      -0.05429048
Pt       7.01803488       5.67261038      22.29206774        3      -0.00035784       0.01175713      -0.05050984
Pt       9.82524823       5.67261061      22.29206804        3      -0.00041028       0.01168885      -0.05405640
Pt      -0.00000056       1.62074572      24.58417389        2       0.00058215      -0.03382882       0.02237866
Pt       2.80721443       1.62074548      24.58417398        2       0.00153286      -0.03371960       0.02135322
Pt       5.61442779       1.62074532      24.58417370        2       0.00398143      -0.03397454       0.02156755
Pt       1.40360636       4.05186439      24.58417390        2       0.00027556      -0.03563061       0.02622847
Pt       4.21082088       4.05186401      24.58417381        2       0.00229566      -0.03556331       0.02637100
Pt       7.01803503       4.05186407      24.58417407        2       0.00164998      -0.03741146       0.01380311
Pt       2.80721279       6.48298345      24.58417372        2       0.00046543      -0.03340992       0.03399120
Pt       5.61442797       6.48298324      24.58417392        2       0.00034450      -0.03325604       0.02866308
Pt       8.42164222       6.48298343      24.58417383        2       0.00001824      -0.03182440       0.02825686
Pt       0.00175160      -0.04463155      26.91509587        1      -0.00519928       0.00488900       0.00719949
Pt       2.80880695      -0.04561951      26.91721789        1      -0.00038466       0.01858689      -0.00432543
Pt       5.61535065      -0.04528582      26.91501948        1       0.00351691       0.00503246       0.00759830
Pt       1.40260559       2.38167515      26.91391220        1       0.01427511       0.03089218       0.01310758
Pt       4.21394491       2.38232416      26.91345912        1      -0.01602418       0.02948178       0.01420643
Pt       7.01854068       2.38481226      26.91650136        1       0.00024270       0.01234264       0.00141106
Pt       2.80835881       4.81461229      26.91347952        1      -0.00136542       0.02285834       0.00683348
Pt       5.61566560       4.81572831      26.91410961        1      -0.01287747       0.02309965       0.01172297
Pt       8.42260082       4.81499700      26.91387283        1       0.01186238       0.02279070       0.01236812
N        7.01784655       4.86662708      30.76941137        0       0.00039306      -0.00154997       0.03980540
H        7.01317652       5.76649887      30.27235876        0      -0.00022231      -0.01514614      -0.00446854
H        7.83953919       4.34720597      30.43585292        0       0.00769752       0.00979437      -0.01447506
H        6.19145992       4.34602541      30.44954996        0      -0.00815010       0.00989906      -0.01511442
