40
Lattice="8.421641763931781 0.0 0.0 4.2108208819658905 7.293355709136913 0.0 0.0 0.0 46.87624170604845" Properties=species:S:1:pos:R:3:tags:I:1:forces:R:3 charge=0 spin=0 energy=-206.42467952689293 free_energy=-206.42467952689293 stress="0.010460545308887959 -6.016586695523074e-08 -5.04473840479136e-09 -6.016586695523074e-08 0.010460433550179005 1.2007949301562348e-08 -5.04473840479136e-09 1.2007949301562348e-08 -0.00015491787053178996" pbc="T T T"
Pt      -0.00000005       0.00000022      19.95723419        4      -0.00040040       0.00041041       0.01845436
Pt       2.80721406      -0.00000018      19.95723436        4      -0.00010898      -0.00000100       0.01892329
Pt       5.61442778      -0.00000006      19.95723442        4       0.00055649       0.00014726       0.01844051
Pt       1.40360717       2.43111838      19.95723425        4      -0.00000672       0.00035028       0.01770084
Pt       4.21082080       2.43111835      19.95723435        4      -0.00029955      -0.00017952       0.01769817
Pt       7.01803478       2.43111843      19.95723423        4      -0.00015653      -0.00055532       0.01845773
Pt       2.80721408       4.86223724      19.95723395        4       0.00030848      -0.00017384       0.01769688
Pt       5.61442803       4.86223730      19.95723413        4       0.00005519      -0.00009349       0.01892830
Pt       8.42164138       4.86223726      19.95723427        4       0.00004973       0.00008740       0.01892414
Pt       1.40360728       0.81037260      22.29206790        3       0.00033041      -0.00101039      -0.05300185
Pt       4.21082128       0.81037250      22.29206784        3      -0.00103147      -0.00067552      -0.05329504
Pt       7.01803477       0.81037260      22.29206779        3       0.00000180      -0.00000307      -0.05018248
Pt       2.80721450       3.24149125      22.29206775        3      -0.00000754       0.00000353      -0.04381556
Pt       5.61442762       3.24149123      22.29206790        3       0.00070420       0.00079522      -0.05300946
Pt       8.42164156       3.24149116      22.29206805        3      -0.00006776       0.00122537      -0.05328253
Pt       4.21082094       5.67260998      22.29206797        3       0.00109122      -0.00054657      -0.05328866
Pt       7.01803488       5.67261038      22.29206774        3      -0.00000472      -0.00000683      -0.05023611
Pt       9.82524823       5.67261061      22.29206804        3      -0.00102994       0.00019608      -0.05302882
Pt      -0.00000056       1.62074572      24.58417389        2       0.00443619       0.00091558       0.02124025
Pt       2.80721443       1.62074548      24.58417398        2      -0.00047499       0.00638397       0.03448142
Pt       5.61442779       1.62074532      24.58417370        2      -0.00298309       0.00340702       0.02122402
Pt       1.40360636       4.05186439      24.58417390        2       0.00576659      -0.00277212       0.03450263
Pt       4.21082088       4.05186401      24.58417381        2      -0.00527506      -0.00359077       0.03448930
Pt       7.01803503       4.05186407      24.58417407        2       0.00154510       0.00358034       0.02715687
Pt       2.80721279       6.48298345      24.58417372        2      -0.00142462      -0.00426965       0.02120391
Pt       5.61442797       6.48298324      24.58417392        2       0.00230520      -0.00312119       0.02712645
Pt       8.42164222       6.48298343      24.58417383        2      -0.00385642      -0.00045187       0.02712288
Pt      -0.00068363       0.00011736      26.91304031        1       0.00987281      -0.00260331       0.01610602
Pt       2.80691459       0.00400616      26.91485051        1       0.00191799      -0.01857578      -0.00128102
Pt       5.61487058       0.00055177      26.91304169        1      -0.00719310      -0.00726201       0.01611599
Pt       1.39908789       2.42941236      26.91604223        1       0.03216951       0.01566383      -0.00320538
Pt       4.21457857       2.42807342      26.91604368        1      -0.02966867       0.02000422      -0.00314384
Pt       7.01828997       2.43048256      26.91305149        1      -0.00268199       0.00988103       0.01618528
Pt       2.80799436       4.86702533      26.91602794        1      -0.00252573      -0.03570896      -0.00330300
Pt       5.61112759       4.85998769      26.91485502        1       0.01509919       0.01094073      -0.00134037
Pt       8.42525785       4.86051751      26.91485644        1      -0.01701082       0.00761325      -0.00137926
N        7.01798406       5.67270195      30.74534971        0       0.00011712      -0.00008200      -0.04119039
H        6.42443387       6.41514721      30.35081788        0       0.01489833      -0.01601370       0.01860067
H        7.95797947       5.81514024      30.35126754        0      -0.02133001      -0.00460044       0.01863299
H        6.67161481       4.78707695      30.35181596        0       0.00631194       0.02069176       0.01857111
