40
Lattice="8.421641763931781 0.0 0.0 4.2108208819658905 7.293355709136913 0.0 0.0 0.0 46.87624170604845" Properties=species:S:1:pos:R:3:tags:I:1:forces:R:3 charge=0 spin=0 energy=-206.4247062297738 free_energy=-206.4247062297738 stress="0.010460701771080494 1.8197880535808508e-08 -5.935852254168594e-09 1.8197880535808508e-08 0.010460694320499897 -1.6253631329732343e-08 -5.935852254168594e-09 -1.6253631329732343e-08 -0.00015594775322824717" pbc="T T T"
Pt      -0.00000005       0.00000022      19.95723419        4       0.00002971       0.00013907       0.01888769
Pt       2.80721406      -0.00000018      19.95723436        4       0.00021866      -0.00015826       0.01771793
Pt       5.61442778      -0.00000006      19.95723442        4       0.00011005      -0.00009102       0.01888273
Pt       1.40360717       2.43111838      19.95723425        4       0.00057994       0.00020514       0.01846653
Pt       4.21082080       2.43111835      19.95723435        4      -0.00046472       0.00040251       0.01847160
Pt       7.01803478       2.43111843      19.95723423        4      -0.00013830      -0.00004607       0.01888814
Pt       2.80721408       4.86223724      19.95723395        4      -0.00011221      -0.00060908       0.01847491
Pt       5.61442803       4.86223730      19.95723413        4       0.00002795       0.00026772       0.01772262
Pt       8.42164138       4.86223726      19.95723427        4      -0.00024855      -0.00011345       0.01772043
Pt       1.40360728       0.81037260      22.29206790        3      -0.00128542       0.00026144      -0.05259266
Pt       4.21082128       0.81037250      22.29206784        3       0.00096913      -0.00066708      -0.05381322
Pt       7.01803477       0.81037260      22.29206779        3       0.00000117       0.00000027      -0.05007673
Pt       2.80721450       3.24149125      22.29206775        3      -0.00000530      -0.00000179      -0.05001945
Pt       5.61442762       3.24149123      22.29206790        3       0.00041775      -0.00125134      -0.05256920
Pt       8.42164156       3.24149116      22.29206805        3      -0.00106726      -0.00050872      -0.05381724
Pt       4.21082094       5.67260998      22.29206797        3       0.00009649       0.00118243      -0.05380141
Pt       7.01803488       5.67261038      22.29206774        3      -0.00000188      -0.00000256      -0.04390983
Pt       9.82524823       5.67261061      22.29206804        3       0.00087835       0.00097654      -0.05256925
Pt      -0.00000056       1.62074572      24.58417389        2      -0.00337536      -0.00030250       0.02685550
Pt       2.80721443       1.62074548      24.58417398        2      -0.00077498      -0.00426570       0.02103110
Pt       5.61442779       1.62074532      24.58417370        2       0.00194880      -0.00276557       0.02685264
Pt       1.40360636       4.05186439      24.58417390        2      -0.00332817       0.00281113       0.02105659
Pt       4.21082088       4.05186401      24.58417381        2       0.00409538       0.00149678       0.02106226
Pt       7.01803503       4.05186407      24.58417407        2       0.00042903       0.00622951       0.03445476
Pt       2.80721279       6.48298345      24.58417372        2       0.00143156       0.00307888       0.02687722
Pt       5.61442797       6.48298324      24.58417392        2       0.00518205      -0.00348978       0.03445555
Pt       8.42164222       6.48298343      24.58417383        2      -0.00562318      -0.00275523       0.03445183
Pt       0.00299848      -0.00248014      26.91476406        1      -0.01507171       0.00830263      -0.00093278
Pt       2.80643689       0.00484522      26.91599873        1       0.00177933      -0.03537474      -0.00310039
Pt       5.61077231      -0.00134763      26.91476679        1       0.01472560       0.00891679      -0.00091476
Pt       1.40455602       2.43083774      26.91306910        1      -0.00910505      -0.00317340       0.01603280
Pt       4.21058856       2.43208816      26.91306685        1       0.00730051      -0.00630275       0.01600271
Pt       7.01868433       2.43496518      26.91476797        1       0.00035477      -0.01723121      -0.00086982
Pt       2.80648925       4.86156338      26.91307712        1       0.00179307       0.00950446       0.01610074
Pt       5.61061945       4.85915174      26.91601291        1       0.02974294       0.01919119      -0.00300071
Pt       8.42621886       4.86049488      26.91601762        1      -0.03150887       0.01614420      -0.00295311
N        7.01806012       0.81041357      30.74648761        0       0.00004938       0.00006850      -0.04122194
H        7.37193328      -0.07200750      30.35243361        0      -0.00661854       0.02058345       0.01853814
H        6.07698942       0.94500600      30.35222186        0       0.02116593      -0.00455094       0.01855537
H        7.60522452       1.55795342      30.35202472        0      -0.01459822      -0.01610152       0.01860286
