40
Lattice="8.421641763931781 0.0 0.0 4.2108208819658905 7.293355709136913 0.0 0.0 0.0 46.87624170604845" Properties=species:S:1:pos:R:3:tags:I:1:forces:R:3 charge=0 spin=0 energy=-206.42434192618492 free_energy=-206.42434192618492 stress="0.010479160584509373 2.54550407419174e-08 -2.643884666753138e-09 2.54550407419174e-08 0.01047918014228344 -2.8316813338591373e-09 -2.643884666753138e-09 -2.8316813338591373e-09 -6.813854270149022e-05" pbc="T T T"
Pt      -0.00000005       0.00000022      19.95723419        4      -0.00009650      -0.00024659       0.01792160
Pt       2.80721406      -0.00000018      19.95723436        4      -0.00017738      -0.00050041       0.01846176
Pt       5.61442778      -0.00000006      19.95723442        4      -0.00016345       0.00021071       0.01791418
Pt       1.40360717       2.43111838      19.95723425        4       0.00032930       0.00010519       0.01878139
Pt       4.21082080       2.43111835      19.95723435        4      -0.00025346       0.00023198       0.01877747
Pt       7.01803478       2.43111843      19.95723423        4       0.00026097       0.00004004       0.01791689
Pt       2.80721408       4.86223724      19.95723395        4      -0.00007309      -0.00033920       0.01877821
Pt       5.61442803       4.86223730      19.95723413        4       0.00051860       0.00009691       0.01845224
Pt       8.42164138       4.86223726      19.95723427        4      -0.00034388       0.00039974       0.01845663
Pt       1.40360728       0.81037260      22.29206790        3       0.00055435       0.00065297      -0.05288665
Pt       4.21082128       0.81037250      22.29206784        3       0.00013002       0.00105289      -0.05338908
Pt       7.01803477       0.81037260      22.29206779        3       0.00000268       0.00000466      -0.04616690
Pt       2.80721450       3.24149125      22.29206775        3      -0.00000781       0.00000110      -0.04872531
Pt       5.61442762       3.24149123      22.29206790        3      -0.00083477       0.00015815      -0.05291762
Pt       8.42164156       3.24149116      22.29206805        3       0.00084516      -0.00063450      -0.05340710
Pt       4.21082094       5.67260998      22.29206797        3      -0.00097640      -0.00040808      -0.05340459
Pt       7.01803488       5.67261038      22.29206774        3      -0.00000129      -0.00000812      -0.05050603
Pt       9.82524823       5.67261061      22.29206804        3       0.00028981      -0.00082087      -0.05288478
Pt      -0.00000056       1.62074572      24.58417389        2      -0.00498891      -0.00282580       0.04804683
Pt       2.80721443       1.62074548      24.58417398        2       0.00145823       0.00502514       0.03288848
Pt       5.61442779       1.62074532      24.58417370        2       0.00493234      -0.00292992       0.04805623
Pt       1.40360636       4.05186439      24.58417390        2       0.00361822      -0.00378726       0.03284343
Pt       4.21082088       4.05186401      24.58417381        2      -0.00508996      -0.00122771       0.03286531
Pt       7.01803503       4.05186407      24.58417407        2      -0.00108182      -0.00372571       0.03621771
Pt       2.80721279       6.48298345      24.58417372        2       0.00007924       0.00571151       0.04806700
Pt       5.61442797       6.48298324      24.58417392        2      -0.00270806       0.00281635       0.03626987
Pt       8.42164222       6.48298343      24.58417383        2       0.00377304       0.00095092       0.03626205
Pt       0.00354387      -0.00186117      26.91893360        1      -0.02599337       0.01457029      -0.01865340
Pt       2.80690504       0.00283670      26.91427653        1       0.00021655      -0.01690058       0.00761898
Pt       5.61103910      -0.00214388      26.91893392        1       0.02564104       0.01523888      -0.01869798
Pt       1.40206108       2.43041869      26.91806137        1       0.00068656       0.00195298      -0.00923774
Pt       4.21220523       2.43013527      26.91806216        1      -0.00205771      -0.00038953      -0.00926119
Pt       7.01787127       2.43512720      26.91890951        1       0.00039837      -0.02984100      -0.01877363
Pt       2.80736876       4.86392524      26.91807079        1       0.00140017      -0.00159104      -0.00921155
Pt       5.61212758       4.86054904      26.91426419        1       0.01452813       0.00871116       0.00755532
Pt       8.42425234       4.86109301      26.91426072        1      -0.01480767       0.00824254       0.00755829
N        2.80721361       3.24149141      30.85924323        0       0.00009158      -0.00003231      -0.02282822
H        2.81863290       2.29430838      30.45957956        0       0.00067712      -0.03992813       0.01042395
H        1.98122208       3.70519271      30.45957944        0      -0.03498680       0.01940750       0.01038388
H        3.62178976       3.72496960      30.45957761        0       0.03421055       0.02055501       0.01043398
