40
Lattice="8.421641763931781 0.0 0.0 4.2108208819658905 7.293355709136913 0.0 0.0 0.0 46.87624170604845" Properties=species:S:1:pos:R:3:tags:I:1:forces:R:3 charge=0 spin=0 energy=-206.42558551749352 free_energy=-206.42558551749352 stress="0.010512671433389187 3.203348342140089e-06 1.8671385078050662e-06 3.203348342140089e-06 0.010533233173191547 -3.1584440876031294e-06 1.8671385078050662e-06 -3.1584440876031294e-06 -3.247506174375303e-05" pbc="T T T"
Pt      -0.00000005       0.00000022      19.95723419        4      -0.00014998       0.00072954       0.01767771
Pt       2.80721406      -0.00000018      19.95723436        4      -0.00013989       0.00021386       0.01755029
Pt       5.61442778      -0.00000006      19.95723442        4      -0.00013576       0.00035232       0.01848648
Pt       1.40360717       2.43111838      19.95723425        4       0.00034920       0.00072095       0.01828048
Pt       4.21082080       2.43111835      19.95723435        4      -0.00023364       0.00049693       0.01890881
Pt       7.01803478       2.43111843      19.95723423        4       0.00013629       0.00067280       0.01885003
Pt       2.80721408       4.86223724      19.95723395        4      -0.00045551       0.00034733       0.01862115
Pt       5.61442803       4.86223730      19.95723413        4      -0.00026931       0.00052038       0.01843430
Pt       8.42164138       4.86223726      19.95723427        4       0.00023909      -0.00002550       0.01867111
Pt       1.40360728       0.81037260      22.29206790        3       0.00005614       0.00290819      -0.04573685
Pt       4.21082128       0.81037250      22.29206784        3       0.00115248       0.00194003      -0.05362359
Pt       7.01803477       0.81037260      22.29206779        3      -0.00074794       0.00315310      -0.05348207
Pt       2.80721450       3.24149125      22.29206775        3       0.00042761       0.00130427      -0.05177641
Pt       5.61442762       3.24149123      22.29206790        3      -0.00007026       0.00132773      -0.05209929
Pt       8.42164156       3.24149116      22.29206805        3      -0.00103216       0.00187384      -0.05178465
Pt       4.21082094       5.67260998      22.29206797        3      -0.00067095       0.00024173      -0.05077089
Pt       7.01803488       5.67261038      22.29206774        3       0.00031894       0.00164751      -0.05091759
Pt       9.82524823       5.67261061      22.29206804        3       0.00033966       0.00268375      -0.05403457
Pt      -0.00000056       1.62074572      24.58417389        2       0.00656542      -0.00648184       0.05179466
Pt       2.80721443       1.62074548      24.58417398        2      -0.00488100      -0.00584637       0.05222862
Pt       5.61442779       1.62074532      24.58417370        2      -0.00016457      -0.00296159       0.02417286
Pt       1.40360636       4.05186439      24.58417390        2      -0.00051115      -0.00953302       0.05743359
Pt       4.21082088       4.05186401      24.58417381        2      -0.00794318      -0.00663952       0.03775776
Pt       7.01803503       4.05186407      24.58417407        2       0.00665422      -0.00386884       0.03562339
Pt       2.80721279       6.48298345      24.58417372        2       0.01430552      -0.01031158       0.04395611
Pt       5.61442797       6.48298324      24.58417392        2      -0.00059713       0.00661987       0.03962992
Pt       8.42164222       6.48298343      24.58417383        2      -0.01121188      -0.01004648       0.04351137
Pt       0.00031150      -0.00572841      26.92198004        1       0.00029534      -0.00661127      -0.02621825
Pt       2.80714023      -0.00491663      26.92072190        1      -0.00094771      -0.00729844      -0.02269735
Pt       5.61420440      -0.00999201      26.91081235        1       0.00045989       0.00567745       0.01873614
Pt       1.40447795       2.42403237      26.92320377        1      -0.00179316       0.00237789      -0.02951022
Pt       4.21183053       2.42412792      26.91734898        1      -0.01281019       0.00365675      -0.00491326
Pt       7.01801000       2.42309011      26.91578659        1       0.01161797       0.00503139       0.00145137
Pt       2.80734034       4.85357315      26.92012917        1      -0.00074278       0.01086315      -0.01920726
Pt       5.61500157       4.85731657      26.91171311        1       0.00136047       0.00292912       0.01505511
Pt       8.42160735       4.85312121      26.92026723        1       0.00202087       0.01126969      -0.01844596
N        5.62364354       2.42782911      30.84018720        0      -0.00894043       0.00163137       0.01365450
H        5.13285956       1.60152931      30.47499014        0       0.01008055      -0.00620299      -0.00536134
H        5.13873229       3.24753412      30.45301549        0       0.00560912       0.00756240      -0.00423283
H        6.56305734       2.41946122      30.42214317        0      -0.00754023      -0.00292598      -0.00567350
