40
Lattice="8.421641763931781 0.0 0.0 4.2108208819658905 7.293355709136913 0.0 0.0 0.0 46.87624170604845" Properties=species:S:1:pos:R:3:tags:I:1:forces:R:3 charge=0 spin=0 energy=-206.4240443797982 free_energy=-206.4240443797982 stress="0.01047019474208355 8.151901376152182e-09 6.275313602088772e-09 8.151901376152182e-09 0.01047020684927702 2.967926127084297e-09 6.275313602088772e-09 2.967926127084297e-09 -0.00011069411266362295" pbc="T T T"
Pt      -0.00000005       0.00000022      19.95723419        4      -0.00070382      -0.00009884       0.01859550
Pt       2.80721406      -0.00000018      19.95723436        4      -0.00025665       0.00028807       0.01775663
Pt       5.61442778      -0.00000006      19.95723442        4       0.00043572      -0.00056067       0.01858163
Pt       1.40360717       2.43111838      19.95723425        4       0.00037528       0.00007680       0.01775954
Pt       4.21082080       2.43111835      19.95723435        4      -0.00011904      -0.00036103       0.01776072
Pt       7.01803478       2.43111843      19.95723423        4      -0.00000883       0.00011917       0.01876445
Pt       2.80721408       4.86223724      19.95723395        4       0.00027119       0.00065879       0.01859329
Pt       5.61442803       4.86223730      19.95723413        4       0.00010546      -0.00005435       0.01876396
Pt       8.42164138       4.86223726      19.95723427        4      -0.00009862      -0.00006931       0.01875703
Pt       1.40360728       0.81037260      22.29206790        3      -0.00088424      -0.00080921      -0.04932380
Pt       4.21082128       0.81037250      22.29206784        3       0.00113238      -0.00035769      -0.04933082
Pt       7.01803477       0.81037260      22.29206779        3       0.00060154       0.00059938      -0.05260988
Pt       2.80721450       3.24149125      22.29206775        3      -0.00026190       0.00117247      -0.04934227
Pt       5.61442762       3.24149123      22.29206790        3       0.00095070       0.00009684      -0.05254189
Pt       8.42164156       3.24149116      22.29206805        3      -0.00054800       0.00077479      -0.05254597
Pt       4.21082094       5.67260998      22.29206797        3       0.00021702      -0.00081259      -0.05261922
Pt       7.01803488       5.67261038      22.29206774        3      -0.00039813      -0.00087460      -0.05254273
Pt       9.82524823       5.67261061      22.29206804        3      -0.00081191       0.00020960      -0.05263171
Pt      -0.00000056       1.62074572      24.58417389        2       0.00274532      -0.00368796       0.03163936
Pt       2.80721443       1.62074548      24.58417398        2      -0.00000570      -0.00000672       0.02814805
Pt       5.61442779       1.62074532      24.58417370        2      -0.00085912      -0.00400354       0.03241308
Pt       1.40360636       4.05186439      24.58417390        2       0.00390035       0.00126375       0.03239333
Pt       4.21082088       4.05186401      24.58417381        2      -0.00455966      -0.00052781       0.03158898
Pt       7.01803503       4.05186407      24.58417407        2       0.00000140      -0.00000250       0.02676650
Pt       2.80721279       6.48298345      24.58417372        2       0.00000796       0.00000956       0.05512183
Pt       5.61442797       6.48298324      24.58417392        2      -0.00303662       0.00274667       0.03243612
Pt       8.42164222       6.48298343      24.58417383        2       0.00180915       0.00421365       0.03164368
Pt       0.00193340       0.00119655      26.91857261        1      -0.01363339      -0.00801977      -0.01196055
Pt       2.80771250      -0.00145796      26.91487246        1      -0.00095344       0.01002571       0.00457859
Pt       5.61242784       0.00108047      26.91857721        1       0.01375793      -0.00779105      -0.01191326
Pt       1.40209394       2.43141706      26.91486036        1       0.00919924      -0.00420478       0.00447605
Pt       4.21183588       2.43228020      26.91486326        1      -0.00823308      -0.00584367       0.00450819
Pt       7.01776304       2.42784803      26.91440508        1      -0.00060757       0.01024082       0.00215568
Pt       2.80728167       4.85996420      26.91855530        1      -0.00012486       0.01581082      -0.01205434
Pt       5.61172866       4.86410941      26.91439784        1       0.00913175      -0.00458536       0.00212141
Pt       8.42461318       4.86363795      26.91439917        1      -0.00853399      -0.00563515       0.00212622
N        7.01803320       4.05185971      30.77665032        0      -0.00001277       0.00001399      -0.02695167
H        7.84385236       3.58413220      30.38034619        0       0.01083008      -0.00599485       0.01296933
H        6.20005747       3.57054888      30.38034244        0      -0.01059806      -0.00637748       0.01297314
H        7.01019164       5.00090892      30.38035586        0      -0.00022302       0.01235798       0.01297558
