40
Lattice="8.421641763931781 0.0 0.0 4.2108208819658905 7.293355709136913 0.0 0.0 0.0 46.87624170604845" Properties=species:S:1:pos:R:3:tags:I:1:forces:R:3 charge=0 spin=0 energy=-206.4258811565316 free_energy=-206.4258811565316 stress="0.01052155066281557 -3.053656428164686e-06 3.085939852098818e-06 -3.053656428164686e-06 0.010524861514568329 -1.8616336774357478e-06 3.085939852098818e-06 -1.8616336774357478e-06 -3.072770050494e-05" pbc="T T T"
Pt      -0.00000005       0.00000022      19.95723419        4      -0.00003762       0.00016792       0.01850512
Pt       2.80721406      -0.00000018      19.95723436        4       0.00026028       0.00012519       0.01887170
Pt       5.61442778      -0.00000006      19.95723442        4       0.00029240       0.00046266       0.01855334
Pt       1.40360717       2.43111838      19.95723425        4      -0.00016567       0.00016101       0.01766503
Pt       4.21082080       2.43111835      19.95723435        4       0.00023401      -0.00042786       0.01829556
Pt       7.01803478       2.43111843      19.95723423        4      -0.00050165      -0.00009261       0.01865317
Pt       2.80721408       4.86223724      19.95723395        4       0.00033577       0.00003297       0.01762366
Pt       5.61442803       4.86223730      19.95723413        4       0.00016676      -0.00030171       0.01892694
Pt       8.42164138       4.86223726      19.95723427        4       0.00032972       0.00018602       0.01839673
Pt       1.40360728       0.81037260      22.29206790        3       0.00032345      -0.00145790      -0.05359855
Pt       4.21082128       0.81037250      22.29206784        3      -0.00041609      -0.00030397      -0.05171577
Pt       7.01803477       0.81037260      22.29206779        3       0.00116375      -0.00069802      -0.05323309
Pt       2.80721450       3.24149125      22.29206775        3       0.00132850      -0.00040932      -0.04594175
Pt       5.61442762       3.24149123      22.29206790        3       0.00117724       0.00103612      -0.05145278
Pt       8.42164156       3.24149116      22.29206805        3      -0.00007754       0.00009369      -0.05088001
Pt       4.21082094       5.67260998      22.29206797        3       0.00201219      -0.00012341      -0.05401772
Pt       7.01803488       5.67261038      22.29206774        3       0.00019279       0.00028415      -0.05303342
Pt       9.82524823       5.67261061      22.29206804        3      -0.00053071       0.00113893      -0.05033410
Pt      -0.00000056       1.62074572      24.58417389        2      -0.00034033       0.01164865       0.04391559
Pt       2.80721443       1.62074548      24.58417398        2       0.00055279       0.00546939       0.05026539
Pt       5.61442779       1.62074532      24.58417370        2      -0.00366028       0.00196106       0.05764772
Pt       1.40360636       4.05186439      24.58417390        2       0.00950707      -0.00567771       0.03746235
Pt       4.21082088       4.05186401      24.58417381        2      -0.00414777      -0.00357783       0.05196648
Pt       7.01803503       4.05186407      24.58417407        2      -0.00461659      -0.00624431       0.03749936
Pt       2.80721279       6.48298345      24.58417372        2      -0.01339604      -0.00835752       0.04463121
Pt       5.61442797       6.48298324      24.58417392        2      -0.00106126      -0.00218358       0.02559172
Pt       8.42164222       6.48298343      24.58417383        2       0.00287564       0.00802493       0.03793150
Pt      -0.00485103       0.00194147      26.91114648        1       0.00679628      -0.00245751       0.01791978
Pt       2.80512939      -0.00052427      26.91630274        1       0.00743037       0.00928664      -0.00148640
Pt       5.61132403       0.00094899      26.92132639        1       0.00863555      -0.00460016      -0.02238032
Pt       1.40376233       2.43011833      26.92042551        1      -0.00783164       0.00515044      -0.02142628
Pt       4.20938073       2.43107821      26.92253756        1      -0.00035645       0.00020670      -0.02776451
Pt       7.01442598       2.43195625      26.92075380        1       0.00804536      -0.00508575      -0.02012386
Pt       2.80687513       4.86144873      26.92118575        1      -0.00746498       0.00504290      -0.02403857
Pt       5.61216066       4.86308627      26.91699880        1      -0.00319633      -0.01050508      -0.00326396
Pt       8.42172810       4.86067303      26.91121504        1      -0.00143951       0.00047791       0.01639417
N        6.33337708       6.07428273      30.84418923        0      -0.00690038       0.00470411       0.00906741
H        5.48674640       6.55801689      30.51835916        0      -0.00638132       0.00150324      -0.00091842
H        7.12964342       6.55953323      30.41066238        0       0.00090203      -0.01352367      -0.00443436
H        6.30553675       5.13162240      30.43419187        0       0.00996030       0.00886321      -0.00574000
