40
Lattice="8.421641763931781 0.0 0.0 4.2108208819658905 7.293355709136913 0.0 0.0 0.0 46.87624170604845" Properties=species:S:1:pos:R:3:tags:I:1:forces:R:3 charge=0 spin=0 energy=-206.99357677420738 free_energy=-206.99357677420738 stress="0.010039512068033218 -2.987037532875547e-07 1.6202078567673084e-09 -2.987037532875547e-07 0.010039597749710083 -5.26040196291433e-07 1.6202078567673084e-09 -5.26040196291433e-07 -0.00017783785006031394" pbc="T T T"
Pt      -0.00000005       0.00000022      19.95723419        4       0.00239635      -0.00445490       0.02175730
Pt       2.80721406      -0.00000018      19.95723436        4      -0.00120937      -0.00531849       0.02173747
Pt       5.61442778      -0.00000006      19.95723442        4      -0.00000120       0.00000453       0.01863871
Pt       1.40360717       2.43111838      19.95723425        4       0.00000064       0.00000080       0.02433505
Pt       4.21082080       2.43111835      19.95723435        4       0.00265746       0.00429989       0.02176883
Pt       7.01803478       2.43111843      19.95723423        4      -0.00400255       0.00370458       0.02168548
Pt       2.80721408       4.86223724      19.95723395        4       0.00520762       0.00161400       0.02171546
Pt       5.61442803       4.86223730      19.95723413        4      -0.00000031      -0.00000250      -0.04318046
Pt       8.42164138       4.86223726      19.95723427        4      -0.00504937       0.00015147       0.02178605
Pt       1.40360728       0.81037260      22.29206790        3       0.00308919      -0.00081377      -0.07579994
Pt       4.21082128       0.81037250      22.29206784        3       0.00208756       0.00055655      -0.04447785
Pt       7.01803477       0.81037260      22.29206779        3      -0.00062151      -0.00210722      -0.04451725
Pt       2.80721450       3.24149125      22.29206775        3      -0.00081410       0.00310799      -0.07563928
Pt       5.61442762       3.24149123      22.29206790        3      -0.00058456       0.02610607      -0.08317705
Pt       8.42164156       3.24149116      22.29206805        3      -0.00227959      -0.00229477      -0.07569514
Pt       4.21082094       5.67260998      22.29206797        3       0.02293346      -0.01257234      -0.08324374
Pt       7.01803488       5.67261038      22.29206774        3      -0.02235255      -0.01353591      -0.08325408
Pt       9.82524823       5.67261061      22.29206804        3      -0.00145855       0.00154869      -0.04442168
Pt      -0.00000056       1.62074572      24.58417389        2       0.00833296       0.00568352       0.01493272
Pt       2.80721443       1.62074548      24.58417398        2      -0.00913124       0.00442558       0.01487798
Pt       5.61442779       1.62074532      24.58417370        2      -0.00488413      -0.15884733       0.24140771
Pt       1.40360636       4.05186439      24.58417390        2       0.00080080      -0.01008520       0.01466315
Pt       4.21082088       4.05186401      24.58417381        2       0.04148811       0.01896943      -0.06491902
Pt       7.01803503       4.05186407      24.58417407        2      -0.03715835       0.02639704      -0.06483509
Pt       2.80721279       6.48298345      24.58417372        2      -0.13499482       0.08361166       0.24113020
Pt       5.61442797       6.48298324      24.58417392        2      -0.00433815      -0.04537330      -0.06467411
Pt       8.42164222       6.48298343      24.58417383        2       0.13988356       0.07518283       0.24116437
Pt       0.01508554      -0.00186574      26.90925009        1       0.03041232       0.01243778      -0.02104796
Pt       2.78714419      -0.00104944      26.90528929        1      -0.01877294       0.01363899      -0.00277536
Pt       5.61442891      -0.00004554      26.99498124        1       0.00000223      -0.00018097       0.03573865
Pt       1.40361008       2.43112759      26.92861973        1      -0.00000025      -0.00003492      -0.01859391
Pt       4.20490686       2.44513438      26.90926385        1      -0.02589669       0.02002079      -0.02109512
Pt       7.02716126       2.44904335      26.90529936        1       0.02114398       0.00933216      -0.00274010
Pt       2.81815995       4.84540046      26.90527809        1      -0.00235780      -0.02317785      -0.00281951
Pt       5.61442495       4.86224560      26.92607296        1       0.00000625      -0.00003383      -0.00819192
Pt       8.41247058       4.85012601      26.90923799        1      -0.00453243      -0.03265930      -0.02100506
N        5.61442677      -0.00014901      29.15745565        0       0.00005316       0.00147594      -0.03597304
H        6.09914338       0.84229177      29.49371581        0      -0.02095418      -0.03821241       0.00209253
H        6.10152716      -0.84094342      29.49440159        0      -0.02277792       0.03751518       0.00105394
H        4.64261089      -0.00124824      29.49405790        0       0.04367732      -0.00008031       0.00159130
