40
Lattice="8.421641763931781 0.0 0.0 4.2108208819658905 7.293355709136913 0.0 0.0 0.0 46.87624170604845" Properties=species:S:1:pos:R:3:tags:I:1:forces:R:3 charge=0 spin=0 energy=-206.42591739615563 free_energy=-206.42591739615563 stress="0.010472322814166546 -7.884106878464081e-08 6.269099683819945e-10 -7.884106878464081e-08 0.010472399182617664 -2.1831843000086337e-08 6.269099683819945e-10 -2.1831843000086337e-08 -0.00011256233847234398" pbc="T T T"
Pt      -0.00000005       0.00000022      19.95723419        4       0.00033794       0.00063493       0.01853125
Pt       2.80721406      -0.00000018      19.95723436        4       0.00014658      -0.00010825       0.01872951
Pt       5.61442778      -0.00000006      19.95723442        4      -0.00017507      -0.00006571       0.01871530
Pt       1.40360717       2.43111838      19.95723425        4      -0.00071490      -0.00002548       0.01853812
Pt       4.21082080       2.43111835      19.95723435        4      -0.00023313       0.00014208       0.01782711
Pt       7.01803478       2.43111843      19.95723423        4       0.00037878      -0.00060376       0.01853347
Pt       2.80721408       4.86223724      19.95723395        4       0.00023913       0.00013023       0.01782993
Pt       5.61442803       4.86223730      19.95723413        4      -0.00000560      -0.00027202       0.01783099
Pt       8.42164138       4.86223726      19.95723427        4       0.00002608       0.00018225       0.01873296
Pt       1.40360728       0.81037260      22.29206790        3       0.00026516      -0.00077563      -0.05213661
Pt       4.21082128       0.81037250      22.29206784        3      -0.00039159      -0.00051096      -0.05214898
Pt       7.01803477       0.81037260      22.29206779        3      -0.00081288       0.00016997      -0.05214746
Pt       2.80721450       3.24149125      22.29206775        3      -0.00068819      -0.00033745      -0.05024320
Pt       5.61442762       3.24149123      22.29206790        3       0.00063733      -0.00041676      -0.05025151
Pt       8.42164156       3.24149116      22.29206805        3       0.00055238       0.00063358      -0.05212783
Pt       4.21082094       5.67260998      22.29206797        3       0.00004301       0.00077743      -0.05025475
Pt       7.01803488       5.67261038      22.29206774        3       0.00064618      -0.00006675      -0.05214578
Pt       9.82524823       5.67261061      22.29206804        3      -0.00024911       0.00059284      -0.05215262
Pt      -0.00000056       1.62074572      24.58417389        2      -0.00000024      -0.00001011       0.04671927
Pt       2.80721443       1.62074548      24.58417398        2      -0.00178717      -0.00116917       0.02929089
Pt       5.61442779       1.62074532      24.58417370        2       0.00072719       0.00158114       0.03291377
Pt       1.40360636       4.05186439      24.58417390        2       0.00104233      -0.00146894       0.03289523
Pt       4.21082088       4.05186401      24.58417381        2       0.00000327      -0.00002994       0.02685876
Pt       7.01803503       4.05186407      24.58417407        2       0.00185742      -0.00100628       0.02923858
Pt       2.80721279       6.48298345      24.58417372        2      -0.00008286       0.00210363       0.02926150
Pt       5.61442797       6.48298324      24.58417392        2      -0.00175492      -0.00018239       0.03287839
Pt       8.42164222       6.48298343      24.58417383        2      -0.00001184      -0.00001950       0.03403860
Pt      -0.00162125      -0.00204261      26.91641035        1       0.00696896       0.01373788      -0.00423767
Pt       2.80473748       0.00133501      26.91630685        1       0.01012099      -0.00691535      -0.00374838
Pt       5.61684445       0.00143424      26.91630340        1      -0.01104825      -0.00532718      -0.00372083
Pt       1.40616008       2.43069373      26.91642302        1      -0.01537177      -0.00083624      -0.00412247
Pt       4.20983550       2.42940890      26.91423110        1       0.00692147       0.00911448       0.00655049
Pt       7.01709873       2.43349973      26.91642346        1       0.00842181      -0.01284626      -0.00406971
Pt       2.80624795       4.86390072      26.91421695        1       0.00445650      -0.01055504       0.00645651
Pt       5.61637330       4.86219776      26.91421998        1      -0.01137393       0.00146224       0.00647208
Pt       8.42169664       4.85937997      26.91629524        1       0.00091764       0.01228873      -0.00365495
N        8.42170522       6.48279570      30.84164600        0       0.00005221       0.00004625      -0.03294762
H        8.75937146       7.37020752      30.44553390        0       0.00206904       0.00075267       0.01374004
H        9.02099473       5.74719371      30.44392955        0      -0.00054449      -0.00194597       0.01378996
H        7.48460902       6.33216097      30.44467465        0      -0.00158545       0.00114481       0.01373780
