40
Lattice="8.421641763931781 0.0 0.0 4.2108208819658905 7.293355709136913 0.0 0.0 0.0 46.87624170604845" Properties=species:S:1:pos:R:3:tags:I:1:forces:R:3 charge=0 spin=0 energy=-206.42514110526207 free_energy=-206.42514110526207 stress="0.010473922826349735 4.1254411371483e-06 -1.1358982874298817e-06 4.1254411371483e-06 0.010501507669687271 -2.663025270521757e-06 -1.1358982874298817e-06 -2.663025270521757e-06 -9.132559353020042e-05" pbc="T T T"
Pt      -0.00000005       0.00000022      19.95723419        4      -0.00084744       0.00097274       0.01851225
Pt       2.80721406      -0.00000018      19.95723436        4      -0.00034653       0.00096633       0.01862274
Pt       5.61442778      -0.00000006      19.95723442        4       0.00039426       0.00061383       0.01853258
Pt       1.40360717       2.43111838      19.95723425        4       0.00003785       0.00112362       0.01726984
Pt       4.21082080       2.43111835      19.95723435        4      -0.00044668       0.00071630       0.01733242
Pt       7.01803478       2.43111843      19.95723423        4      -0.00026828       0.00078435       0.01869013
Pt       2.80721408       4.86223724      19.95723395        4       0.00015543       0.00122443       0.01851524
Pt       5.61442803       4.86223730      19.95723413        4       0.00002935       0.00097570       0.01886570
Pt       8.42164138       4.86223726      19.95723427        4      -0.00023148       0.00099080       0.01887900
Pt       1.40360728       0.81037260      22.29206790        3       0.00003522       0.00271700      -0.05187632
Pt       4.21082128       0.81037250      22.29206784        3      -0.00061098       0.00328713      -0.05238789
Pt       7.01803477       0.81037260      22.29206779        3       0.00022698       0.00473391      -0.05124908
Pt       2.80721450       3.24149125      22.29206775        3      -0.00008930       0.00495630      -0.04568828
Pt       5.61442762       3.24149123      22.29206790        3       0.00073692       0.00452545      -0.05291846
Pt       8.42164156       3.24149116      22.29206805        3      -0.00022459       0.00528705      -0.05347249
Pt       4.21082094       5.67260998      22.29206797        3       0.00044615       0.00337088      -0.05295330
Pt       7.01803488       5.67261038      22.29206774        3      -0.00028029       0.00368135      -0.05081555
Pt       9.82524823       5.67261061      22.29206804        3      -0.00120307       0.00395823      -0.05255129
Pt      -0.00000056       1.62074572      24.58417389        2       0.00296602      -0.01258831       0.03034414
Pt       2.80721443       1.62074548      24.58417398        2       0.00052867      -0.00735714       0.03145612
Pt       5.61442779       1.62074532      24.58417370        2       0.00007943      -0.01136660       0.03047363
Pt       1.40360636       4.05186439      24.58417390        2       0.00221135      -0.01003912       0.03868854
Pt       4.21082088       4.05186401      24.58417381        2      -0.00187878      -0.01036262       0.03754025
Pt       7.01803503       4.05186407      24.58417407        2       0.00203507      -0.00962127       0.03586938
Pt       2.80721279       6.48298345      24.58417372        2      -0.00020462      -0.01489586       0.04295646
Pt       5.61442797       6.48298324      24.58417392        2       0.00205610      -0.01532815       0.03566024
Pt       8.42164222       6.48298343      24.58417383        2      -0.00300494      -0.01338998       0.03446159
Pt       0.00258117      -0.01550943      26.91543556        1      -0.01157026       0.00771038       0.00346659
Pt       2.80825351      -0.01283196      26.91626613        1      -0.00003607      -0.00401406      -0.00686315
Pt       5.61321789      -0.01608341      26.91518990        1       0.01172966       0.00882006       0.00422310
Pt       1.40125490       2.41573446      26.91538483        1       0.01585631       0.00507383       0.00215006
Pt       4.21408851       2.41630889      26.91507309        1      -0.01668665       0.00411555       0.00325902
Pt       7.01826585       2.41364164      26.91595809        1      -0.00007846       0.01214105      -0.00299895
Pt       2.80775358       4.84670840      26.91922676        1       0.00023253       0.00600711      -0.01556616
Pt       5.61176261       4.84637753      26.91727099        1       0.01555782       0.01282255      -0.00655639
Pt       8.42561874       4.84620704      26.91739530        1      -0.01722223       0.00986033      -0.00657693
N        7.01398091       4.87202802      30.75550123        0       0.00002234      -0.01010336      -0.03835202
H        7.01680975       3.92658781      30.35116542        0       0.00039784      -0.02476702       0.02046052
H        6.19205214       5.34864486      30.36054708        0       0.02625141       0.01661582       0.01293719
H        7.84175061       5.34857245      30.37287200        0      -0.02675612       0.01578174       0.01165923
