40
Lattice="8.421641763931781 0.0 0.0 4.2108208819658905 7.293355709136913 0.0 0.0 0.0 46.87624170604845" Properties=species:S:1:pos:R:3:tags:I:1:forces:R:3 charge=0 spin=0 energy=-206.42849994620445 free_energy=-206.42849994620445 stress="0.010476934723556042 4.812753751082255e-09 -2.7675866931531345e-08 4.812753751082255e-09 0.010476990602910519 -1.592959009144579e-08 -2.7675866931531345e-08 -1.592959009144579e-08 -0.00015318894293159246" pbc="T T T"
Pt      -0.00000005       0.00000022      19.95723419        4       0.00007819       0.00007760       0.01853513
Pt       2.80721406      -0.00000018      19.95723436        4      -0.00003985      -0.00037474       0.01871053
Pt       5.61442778      -0.00000006      19.95723442        4       0.00002716      -0.00009800       0.01852173
Pt       1.40360717       2.43111838      19.95723425        4      -0.00039606       0.00000877       0.01775631
Pt       4.21082080       2.43111835      19.95723435        4       0.00018969      -0.00034646       0.01775457
Pt       7.01803478       2.43111843      19.95723423        4      -0.00010607       0.00002428       0.01854195
Pt       2.80721408       4.86223724      19.95723395        4       0.00020822       0.00033566       0.01775534
Pt       5.61442803       4.86223730      19.95723413        4       0.00034557       0.00015501       0.01872109
Pt       8.42164138       4.86223726      19.95723427        4      -0.00030960       0.00021613       0.01871770
Pt       1.40360728       0.81037260      22.29206790        3       0.00058750      -0.00002893      -0.05209624
Pt       4.21082128       0.81037250      22.29206784        3      -0.00126318       0.00034218      -0.05237451
Pt       7.01803477       0.81037260      22.29206779        3      -0.00000086       0.00000486      -0.05060155
Pt       2.80721450       3.24149125      22.29206775        3      -0.00000809       0.00000332      -0.05127141
Pt       5.61442762       3.24149123      22.29206790        3      -0.00026831       0.00053439      -0.05208394
Pt       8.42164156       3.24149116      22.29206805        3       0.00092112       0.00092180      -0.05235494
Pt       4.21082094       5.67260998      22.29206797        3       0.00033367      -0.00124294      -0.05236789
Pt       7.01803488       5.67261038      22.29206774        3      -0.00000444       0.00000183      -0.04836825
Pt       9.82524823       5.67261061      22.29206804        3      -0.00031678      -0.00050366      -0.05210724
Pt      -0.00000056       1.62074572      24.58417389        2      -0.00251864      -0.00237238       0.02893431
Pt       2.80721443       1.62074548      24.58417398        2       0.00020722      -0.00817929       0.02445943
Pt       5.61442779       1.62074532      24.58417370        2       0.00332562      -0.00097599       0.02893411
Pt       1.40360636       4.05186439      24.58417390        2      -0.00717711       0.00391196       0.02443992
Pt       4.21082088       4.05186401      24.58417381        2       0.00698136       0.00426943       0.02442582
Pt       7.01803503       4.05186407      24.58417407        2       0.00042611       0.00050728       0.02983297
Pt       2.80721279       6.48298345      24.58417372        2      -0.00079442       0.00338475       0.02890204
Pt       5.61442797       6.48298324      24.58417392        2       0.00021452      -0.00062067       0.02982101
Pt       8.42164222       6.48298343      24.58417383        2      -0.00064692       0.00012097       0.02984278
Pt       0.00155048      -0.00023304      26.91505988        1      -0.00822548       0.00422108       0.00152082
Pt       2.80785623      -0.00223582      26.91819008        1      -0.00046602       0.01812664      -0.00553228
Pt       5.61345302      -0.00123149      26.91506438        1       0.00777265       0.00500815       0.00153823
Pt       1.40348916       2.43073513      26.91032633        1      -0.00132940      -0.00036856       0.01741488
Pt       4.21121607       2.43121691      26.91033043        1       0.00096426      -0.00100761       0.01743878
Pt       7.01745755       2.43258859      26.91507423        1       0.00045626      -0.00924549       0.00156344
Pt       2.80693536       4.86252330      26.91031331        1       0.00037050       0.00132206       0.01744331
Pt       5.61604569       4.86391382      26.91818752        1      -0.01548696      -0.00946619      -0.00549803
Pt       8.41938126       4.86280094      26.91818780        1       0.01594643      -0.00866209      -0.00549992
N        7.01803694       5.67260768      30.88554601        0       0.00001614      -0.00003633      -0.00755062
H        7.83551785       5.18423596      30.49472117        0      -0.04210281       0.02510006       0.00539912
H        6.18635281       5.20883291      30.49472663        0       0.04277265       0.02391683       0.00539290
H        7.03223716       6.62475375      30.49472441        0      -0.00068394      -0.04898545       0.00538852
