40
Lattice="8.421641763931781 0.0 0.0 4.2108208819658905 7.293355709136913 0.0 0.0 0.0 46.87624170604845" Properties=species:S:1:pos:R:3:tags:I:1:forces:R:3 charge=0 spin=0 energy=-206.9934260936654 free_energy=-206.9934260936654 stress="0.009985094889998436 -6.603808344607387e-08 3.2790798965010026e-09 -6.603808344607387e-08 0.009985176846385002 -5.5656904862644296e-08 3.2790798965010026e-09 -5.5656904862644296e-08 -0.0002705662336666137" pbc="T T T"
Pt      -0.00000005       0.00000022      19.95723419        4       0.00261310      -0.00451631       0.02147144
Pt       2.80721406      -0.00000018      19.95723436        4      -0.00154839      -0.00525272       0.02213732
Pt       5.61442778      -0.00000006      19.95723442        4      -0.00000106       0.00000360       0.01860826
Pt       1.40360717       2.43111838      19.95723425        4      -0.00000004       0.00000048       0.02415952
Pt       4.21082080       2.43111835      19.95723435        4       0.00260272       0.00451754       0.02148223
Pt       7.01803478       2.43111843      19.95723423        4      -0.00377413       0.00396349       0.02208522
Pt       2.80721408       4.86223724      19.95723395        4       0.00531974       0.00129017       0.02211686
Pt       5.61442803       4.86223730      19.95723413        4      -0.00000136      -0.00000227      -0.04360878
Pt       8.42164138       4.86223726      19.95723427        4      -0.00521063      -0.00000451       0.02149837
Pt       1.40360728       0.81037260      22.29206790        3       0.00206761      -0.00070873      -0.07466970
Pt       4.21082128       0.81037250      22.29206784        3       0.00294208       0.00095873      -0.04569177
Pt       7.01803477       0.81037260      22.29206779        3      -0.00069703      -0.00305484      -0.04572575
Pt       2.80721450       3.24149125      22.29206775        3      -0.00039478       0.00217738      -0.07452245
Pt       5.61442762       3.24149123      22.29206790        3      -0.00152477       0.02670620      -0.08424176
Pt       8.42164156       3.24149116      22.29206805        3      -0.00167684      -0.00146000      -0.07457508
Pt       4.21082094       5.67260998      22.29206797        3       0.02391499      -0.01205598      -0.08428891
Pt       7.01803488       5.67261038      22.29206774        3      -0.02239189      -0.01464859      -0.08430433
Pt       9.82524823       5.67261061      22.29206804        3      -0.00224097       0.00208804      -0.04564152
Pt      -0.00000056       1.62074572      24.58417389        2       0.00256176       0.00582112       0.00373649
Pt       2.80721443       1.62074548      24.58417398        2      -0.00640120      -0.00068909       0.00367272
Pt       5.61442779       1.62074532      24.58417370        2      -0.00492259      -0.15994664       0.24536480
Pt       1.40360636       4.05186439      24.58417390        2       0.00383533      -0.00516249       0.00347902
Pt       4.21082088       4.05186401      24.58417381        2       0.04153297       0.02665114      -0.07666180
Pt       7.01803503       4.05186407      24.58417407        2      -0.04382312       0.02258512      -0.07654531
Pt       2.80721279       6.48298345      24.58417372        2      -0.13600910       0.08424008       0.24532837
Pt       5.61442797       6.48298324      24.58417392        2       0.00228626      -0.04924801      -0.07638183
Pt       8.42164222       6.48298343      24.58417383        2       0.14094177       0.07573227       0.24537642
Pt       0.02098759      -0.00063076      26.90670851        1      -0.00224455       0.00302272      -0.00731030
Pt       2.78672895      -0.00011948      26.90560651        1       0.00110681       0.00374115      -0.00619873
Pt       5.61442877       0.00000005      26.99525446        1      -0.00000231      -0.00000477      -0.01804259
Pt       1.40360847       2.43111981      26.92349135        1       0.00000724      -0.00000694       0.00663064
Pt       4.20088000       2.44960204      26.90669608        1      -0.00146946      -0.00343385      -0.00728152
Pt       7.02818225       2.44891248      26.90560210        1       0.00267941      -0.00281071      -0.00612163
Pt       2.81755685       4.84456172      26.90558320        1      -0.00380198      -0.00092968      -0.00617049
Pt       5.61442654       4.86223433      26.92523886        1       0.00000000       0.00000726      -0.00533029
Pt       8.41059467       4.84438301      26.90669034        1       0.00372335       0.00042162      -0.00724169
N        5.61442757      -0.00000335      29.14815234        0       0.00004439      -0.00017995       0.02050536
H        5.61390760      -0.96987704      29.48827314        0      -0.00000711       0.00612979       0.00091352
H        4.77475610       0.48538188      29.48826638        0       0.00514957      -0.00295421       0.00100308
H        6.45462259       0.48448013      29.48826582        0      -0.00518575      -0.00298757       0.00098661
