40
Lattice="8.421641763931781 0.0 0.0 4.2108208819658905 7.293355709136913 0.0 0.0 0.0 46.87624170604845" Properties=species:S:1:pos:R:3:tags:I:1:forces:R:3 charge=0 spin=0 energy=-206.99356914481285 free_energy=-206.99356914481285 stress="0.010039491578936577 2.636114970755443e-07 -9.294101488421802e-09 2.636114970755443e-07 0.010039551183581352 2.121993674109035e-07 -9.294101488421802e-09 2.121993674109035e-07 -0.00017720501637086272" pbc="T T T"
Pt      -0.00000005       0.00000022      19.95723419        4      -0.00382377       0.00373032       0.02244911
Pt       2.80721406      -0.00000018      19.95723436        4      -0.00000273       0.00000299       0.02428651
Pt       5.61442778      -0.00000006      19.95723442        4       0.00268334       0.00425557       0.02108196
Pt       1.40360717       2.43111838      19.95723425        4      -0.00502326       0.00020494       0.02110819
Pt       4.21082080       2.43111835      19.95723435        4       0.00514570       0.00145832       0.02248041
Pt       7.01803478       2.43111843      19.95723423        4      -0.00000146       0.00000244      -0.04322726
Pt       2.80721408       4.86223724      19.95723395        4       0.00000095      -0.00000336       0.01847020
Pt       5.61442803       4.86223730      19.95723413        4       0.00233789      -0.00445711       0.02108249
Pt       8.42164138       4.86223726      19.95723427        4      -0.00131700      -0.00518901       0.02250168
Pt       1.40360728       0.81037260      22.29206790        3      -0.00103682      -0.00040845      -0.07535965
Pt       4.21082128       0.81037250      22.29206784        3       0.00020015       0.00109637      -0.07531579
Pt       7.01803477       0.81037260      22.29206779        3      -0.00266527       0.02619885      -0.08330400
Pt       2.80721450       3.24149125      22.29206775        3      -0.00302323       0.00216970      -0.04453098
Pt       5.61442762       3.24149123      22.29206790        3       0.02404594      -0.01081395      -0.08333907
Pt       8.42164156       3.24149116      22.29206805        3      -0.02137306      -0.01537107      -0.08335790
Pt       4.21082094       5.67260998      22.29206797        3      -0.00037773      -0.00374595      -0.04462284
Pt       7.01803488       5.67261038      22.29206774        3       0.00083192      -0.00067489      -0.07546047
Pt       9.82524823       5.67261061      22.29206804        3       0.00339579       0.00157642      -0.04459294
Pt      -0.00000056       1.62074572      24.58417389        2      -0.04418508       0.01502067      -0.06502033
Pt       2.80721443       1.62074548      24.58417398        2       0.00731629      -0.01040882       0.01464247
Pt       5.61442779       1.62074532      24.58417370        2       0.03516785       0.03075228      -0.06512363
Pt       1.40360636       4.05186439      24.58417390        2       0.13947700       0.07625016       0.24127071
Pt       4.21082088       4.05186401      24.58417381        2      -0.13576798       0.08265457       0.24124685
Pt       7.01803503       4.05186407      24.58417407        2       0.00900941      -0.04579708      -0.06488337
Pt       2.80721279       6.48298345      24.58417372        2      -0.00368663      -0.15891616       0.24117501
Pt       5.61442797       6.48298324      24.58417392        2       0.00536535       0.01147308       0.01486510
Pt       8.42164222       6.48298343      24.58417383        2      -0.01270078      -0.00109192       0.01479466
Pt       0.00646143       0.01361313      26.90866645        1       0.02525034       0.02164671      -0.02084362
Pt       2.80721765      -0.00000984      26.92785520        1      -0.00000709       0.00000785      -0.01782400
Pt       5.60593779       0.01820946      26.90590304        1      -0.01881792       0.01020227      -0.00255127
Pt       1.39206181       2.41462667      26.90590755        1       0.00065365      -0.02127123      -0.00254042
Pt       4.21939486       2.41869315      26.90866492        1       0.00602824      -0.03254942      -0.02097621
Pt       7.01803120       2.43110655      26.92670195        1       0.00000669       0.00001566      -0.00936698
Pt       2.80721331       4.86225614      26.99498195        1      -0.00000170      -0.00001498       0.03638108
Pt       5.63446239       4.86047444      26.90590604        1       0.01817598       0.01119067      -0.00255458
Pt       8.40660606       4.86100129      26.90866539        1      -0.03128076       0.01102090      -0.02090931
N        2.80721303       4.86225711      29.15756419        0      -0.00001250       0.00045414      -0.03632695
H        2.32288735       4.01970101      29.49410560        0       0.02176546       0.03779512       0.00176623
H        2.31975498       5.70288856      29.49437306        0       0.02144548      -0.03709053       0.00102758
H        3.77900111       4.86419136      29.49423809        0      -0.04319861      -0.00137636       0.00140107
