40
Lattice="8.421641763931781 0.0 0.0 4.2108208819658905 7.293355709136913 0.0 0.0 0.0 46.87624170604845" Properties=species:S:1:pos:R:3:tags:I:1:forces:R:3 charge=0 spin=0 energy=-206.42747569998863 free_energy=-206.42747569998863 stress="0.010509413667023182 -5.885566256580432e-09 6.851822664799556e-09 -5.885566256580432e-09 0.0105093689635396 -3.384393565397659e-08 6.851822664799556e-09 -3.384393565397659e-08 -1.435533613403095e-05" pbc="T T T"
Pt      -0.00000005       0.00000022      19.95723419        4       0.00033958       0.00013891       0.01882520
Pt       2.80721406      -0.00000018      19.95723436        4      -0.00029020       0.00022136       0.01882049
Pt       5.61442778      -0.00000006      19.95723442        4       0.00029316      -0.00013255       0.01776974
Pt       1.40360717       2.43111838      19.95723425        4      -0.00004692      -0.00035948       0.01882124
Pt       4.21082080       2.43111835      19.95723435        4       0.00014716      -0.00013643       0.01859306
Pt       7.01803478       2.43111843      19.95723423        4       0.00004713       0.00019922       0.01859832
Pt       2.80721408       4.86223724      19.95723395        4      -0.00026520      -0.00018896       0.01778583
Pt       5.61442803       4.86223730      19.95723413        4      -0.00019475      -0.00006291       0.01860472
Pt       8.42164138       4.86223726      19.95723427        4      -0.00002531       0.00031716       0.01778528
Pt       1.40360728       0.81037260      22.29206790        3       0.00000040      -0.00000297      -0.04577097
Pt       4.21082128       0.81037250      22.29206784        3       0.00012246       0.00018933      -0.05284353
Pt       7.01803477       0.81037260      22.29206779        3      -0.00002285      -0.00080478      -0.05323585
Pt       2.80721450       3.24149125      22.29206775        3      -0.00068987       0.00042211      -0.05323518
Pt       5.61442762       3.24149123      22.29206790        3       0.00000597      -0.00000787      -0.05313847
Pt       8.42164156       3.24149116      22.29206805        3      -0.00021916       0.00000584      -0.05281680
Pt       4.21082094       5.67260998      22.29206797        3       0.00010230      -0.00019888      -0.05280946
Pt       7.01803488       5.67261038      22.29206774        3       0.00071289       0.00036817      -0.05321793
Pt       9.82524823       5.67261061      22.29206804        3       0.00001008      -0.00001320      -0.04806243
Pt      -0.00000056       1.62074572      24.58417389        2       0.00756677      -0.00532241       0.04422621
Pt       2.80721443       1.62074548      24.58417398        2      -0.00840169      -0.00389929       0.04423847
Pt       5.61442779       1.62074532      24.58417370        2      -0.00084524      -0.00631516       0.04065713
Pt       1.40360636       4.05186439      24.58417390        2       0.00005901       0.00007611       0.05516439
Pt       4.21082088       4.05186401      24.58417381        2      -0.00505766       0.00391120       0.04068640
Pt       7.01803503       4.05186407      24.58417407        2       0.00589804       0.00244798       0.04069122
Pt       2.80721279       6.48298345      24.58417372        2      -0.00010329      -0.00001542       0.05515670
Pt       5.61442797       6.48298324      24.58417392        2       0.00081390       0.00921296       0.04426117
Pt       8.42164222       6.48298343      24.58417383        2       0.00004220      -0.00011406       0.05518087
Pt      -0.00103797      -0.00048159      26.92246066        1      -0.00033926       0.00154853      -0.02656017
Pt       2.80815382      -0.00065075      26.92246401        1      -0.00115830      -0.00104813      -0.02660981
Pt       5.61424792       0.00165111      26.92015399        1      -0.00010389      -0.01447013      -0.02263696
Pt       1.40369909       2.43226358      26.92247017        1       0.00151597      -0.00048580      -0.02647442
Pt       4.20838624       2.42956549      26.91397054        1       0.01293728       0.00619035       0.00501949
Pt       7.02059848       2.42979772      26.91397021        1      -0.01182806       0.00810315       0.00500086
Pt       2.80872454       4.86157308      26.92017093        1      -0.01245657       0.00732827      -0.02247413
Pt       5.61429587       4.86512712      26.91398359        1      -0.00113421      -0.01425114       0.00501977
Pt       8.42030556       4.86126243      26.92017465        1       0.01256265       0.00714969      -0.02254006
N        1.40360822       0.81036540      30.84148540        0       0.00008545       0.00003609      -0.04186456
H        2.21375933       0.32011307      30.44048502        0       0.03583298      -0.02179843       0.01780951
H        0.57395719       0.35388639      30.44049192        0      -0.03686029      -0.02018160       0.01777160
H        1.42310676       1.75710985      30.44050204        0       0.00094722       0.04194331       0.01780277
