40
Lattice="8.421641763931781 0.0 0.0 4.2108208819658905 7.293355709136913 0.0 0.0 0.0 46.87624170604845" Properties=species:S:1:pos:R:3:tags:I:1:forces:R:3 charge=0 spin=0 energy=-206.42383075675133 free_energy=-206.42383075675133 stress="0.01045016199350357 6.123906132415868e-06 -2.2066724341129884e-06 6.123906132415868e-06 0.010525749996304512 -1.3753186067333445e-05 -2.2066724341129884e-06 -1.3753186067333445e-05 -0.0001002429416985251" pbc="T T T"
Pt      -0.00000005       0.00000022      19.95723419        4       0.00011627       0.00221810       0.01844709
Pt       2.80721406      -0.00000018      19.95723436        4      -0.00001888       0.00207682       0.01882664
Pt       5.61442778      -0.00000006      19.95723442        4      -0.00037450       0.00214615       0.01886734
Pt       1.40360717       2.43111838      19.95723425        4      -0.00076914       0.00194300       0.01854581
Pt       4.21082080       2.43111835      19.95723435        4      -0.00045546       0.00204650       0.01860548
Pt       7.01803478       2.43111843      19.95723423        4       0.00015250       0.00165379       0.01855589
Pt       2.80721408       4.86223724      19.95723395        4       0.00014713       0.00231932       0.01718555
Pt       5.61442803       4.86223730      19.95723413        4      -0.00074670       0.00185626       0.01718106
Pt       8.42164138       4.86223726      19.95723427        4      -0.00039100       0.00202774       0.01875885
Pt       1.40360728       0.81037260      22.29206790        3      -0.00005652       0.00731746      -0.05350807
Pt       4.21082128       0.81037250      22.29206784        3      -0.00011212       0.00763393      -0.04893028
Pt       7.01803477       0.81037260      22.29206779        3      -0.00048488       0.00802319      -0.05312992
Pt       2.80721450       3.24149125      22.29206775        3      -0.00024383       0.00702354      -0.05207584
Pt       5.61442762       3.24149123      22.29206790        3      -0.00001507       0.00777650      -0.05253550
Pt       8.42164156       3.24149116      22.29206805        3       0.00052757       0.00851401      -0.05234019
Pt       4.21082094       5.67260998      22.29206797        3       0.00016881       0.00942915      -0.04582144
Pt       7.01803488       5.67261038      22.29206774        3       0.00074694       0.00814922      -0.05257280
Pt       9.82524823       5.67261061      22.29206804        3       0.00012118       0.00905774      -0.05299538
Pt      -0.00000056       1.62074572      24.58417389        2      -0.00037225      -0.02695098       0.04231845
Pt       2.80721443       1.62074548      24.58417398        2       0.00270996      -0.02685067       0.03437552
Pt       5.61442779       1.62074532      24.58417370        2      -0.00379725      -0.02505255       0.03328737
Pt       1.40360636       4.05186439      24.58417390        2       0.00237610      -0.02286948       0.02963844
Pt       4.21082088       4.05186401      24.58417381        2       0.00055206      -0.01953154       0.03196946
Pt       7.01803503       4.05186407      24.58417407        2       0.00036018      -0.02277268       0.02952167
Pt       2.80721279       6.48298345      24.58417372        2       0.00206134      -0.02154143       0.03738881
Pt       5.61442797       6.48298324      24.58417392        2      -0.00154032      -0.02180157       0.03644754
Pt       8.42164222       6.48298343      24.58417383        2       0.00085113      -0.02107864       0.03505931
Pt       0.00024573      -0.03225701      26.91930249        1      -0.00097906       0.01505426      -0.01461118
Pt       2.80377902      -0.03205429      26.91747701        1       0.01753811       0.01920636      -0.00558792
Pt       5.61815472      -0.03227977      26.91721441        1      -0.01760219       0.01629957      -0.00542738
Pt       1.40608738       2.39951095      26.91482467        1      -0.01166846       0.01209078       0.00566886
Pt       4.21150661       2.40213595      26.91681305        1      -0.00035040       0.00304534      -0.00754998
Pt       7.01618035       2.39900154      26.91474575        1       0.01234225       0.01240394       0.00620043
Pt       2.80470594       4.83035111      26.91586964        1       0.01672745       0.01083353       0.00301091
Pt       5.61716920       4.83121360      26.91538200        1      -0.01711586       0.00854554       0.00429299
Pt       8.42146754       4.82895483      26.91647840        1      -0.00045991       0.01706340      -0.00572918
N        4.21510345       0.00461455      30.73450705        0       0.00009744       0.01070894      -0.03851664
H        5.03779812      -0.46590496      30.33385258        0      -0.02621727      -0.01663096       0.01395181
H        3.38787972      -0.46796753      30.34579928        0       0.02677537      -0.01536605       0.01270317
H        4.21127477       0.95548547      30.34315780        0      -0.00060062       0.02398238       0.02052349
