40
Lattice="8.421641763931781 0.0 0.0 4.2108208819658905 7.293355709136913 0.0 0.0 0.0 46.87624170604845" Properties=species:S:1:pos:R:3:tags:I:1:forces:R:3 charge=0 spin=0 energy=-206.4283511730111 free_energy=-206.4283511730111 stress="0.010428398847579956 -4.457872959662268e-10 9.507674647579734e-09 -4.457872959662268e-10 0.01042839977890253 -9.083843366397559e-08 9.507674647579734e-09 -9.083843366397559e-08 -0.00018614767759572715" pbc="T T T"
Pt      -0.00000005       0.00000022      19.95723419        4      -0.00022031      -0.00034879       0.01792374
Pt       2.80721406      -0.00000018      19.95723436        4      -0.00003840      -0.00034426       0.01838638
Pt       5.61442778      -0.00000006      19.95723442        4      -0.00028277       0.00020705       0.01838381
Pt       1.40360717       2.43111838      19.95723425        4       0.00041226      -0.00001971       0.01792177
Pt       4.21082080       2.43111835      19.95723435        4      -0.00010277      -0.00037681       0.01857018
Pt       7.01803478       2.43111843      19.95723423        4      -0.00018924       0.00036720       0.01792012
Pt       2.80721408       4.86223724      19.95723395        4      -0.00027220       0.00027688       0.01857141
Pt       5.61442803       4.86223730      19.95723413        4       0.00037662       0.00009551       0.01856337
Pt       8.42164138       4.86223726      19.95723427        4       0.00031860       0.00014148       0.01838332
Pt       1.40360728       0.81037260      22.29206790        3       0.00120024      -0.00026087      -0.04913560
Pt       4.21082128       0.81037250      22.29206784        3       0.00044409       0.00010194      -0.05318825
Pt       7.01803477       0.81037260      22.29206779        3      -0.00082375      -0.00091210      -0.04912804
Pt       2.80721450       3.24149125      22.29206775        3       0.00056451      -0.00036691      -0.05188619
Pt       5.61442762       3.24149123      22.29206790        3       0.00004279       0.00068345      -0.05189114
Pt       8.42164156       3.24149116      22.29206805        3      -0.00037026       0.00117847      -0.04916885
Pt       4.21082094       5.67260998      22.29206797        3      -0.00061207      -0.00030943      -0.05187812
Pt       7.01803488       5.67261038      22.29206774        3      -0.00030995       0.00032767      -0.05321993
Pt       9.82524823       5.67261061      22.29206804        3      -0.00012802      -0.00044897      -0.05320827
Pt      -0.00000056       1.62074572      24.58417389        2       0.00000653      -0.00004663       0.03705913
Pt       2.80721443       1.62074548      24.58417398        2      -0.01017560       0.00026291       0.02950920
Pt       5.61442779       1.62074532      24.58417370        2       0.01147991       0.00100905       0.02819202
Pt       1.40360636       4.05186439      24.58417390        2      -0.00483650      -0.01046794       0.02810409
Pt       4.21082088       4.05186401      24.58417381        2       0.00000053      -0.00001335      -0.01443315
Pt       7.01803503       4.05186407      24.58417407        2       0.00481759      -0.00894821       0.02943322
Pt       2.80721279       6.48298345      24.58417372        2       0.00535757       0.00867690       0.02952318
Pt       5.61442797       6.48298324      24.58417392        2      -0.00664165       0.00945778       0.02819652
Pt       8.42164222       6.48298343      24.58417383        2      -0.00001796       0.00005335       0.01074258
Pt       0.00024739       0.00140500      26.91918539        1       0.00013019       0.00201953      -0.01728360
Pt       2.81021812      -0.00252597      26.91197766        1      -0.02623327       0.01802578       0.01399827
Pt       5.61073687      -0.00134430      26.91197269        1       0.02868609       0.01379408       0.01403122
Pt       1.40226050       2.43062906      26.91914650        1      -0.00177472      -0.00091159      -0.01713469
Pt       4.21029957       2.43466893      26.90943670        1       0.00041518      -0.03277802       0.03169209
Pt       7.01912960       2.43019328      26.91914093        1       0.00166528      -0.00109311      -0.01711573
Pt       2.81055311       4.86091624      26.90942581        1      -0.02862818       0.01601763       0.03159813
Pt       5.61161050       4.86001339      26.90942538        1       0.02819449       0.01673789       0.03160551
Pt       8.42232407       4.86611285      26.91192474        1      -0.00244564      -0.03177916       0.01408790
N        4.21081994       4.05186498      30.93377573        0       0.00007372      -0.00006669       0.00349651
H        5.03823009       4.51685049      30.53811625        0       0.01166867       0.00654958       0.00094122
H        4.19980550       3.10281458      30.53811523        0      -0.00017306      -0.01336544       0.00094050
H        3.39442788       4.53592932      30.53811552        0      -0.01157842       0.00687392       0.00089603
