40
Lattice="8.421641763931781 0.0 0.0 4.2108208819658905 7.293355709136913 0.0 0.0 0.0 46.87624170604845" Properties=species:S:1:pos:R:3:tags:I:1:forces:R:3 charge=0 spin=0 energy=-206.42405963858727 free_energy=-206.42405963858727 stress="0.010434716939926147 4.089414140651115e-09 -2.9606155305117454e-09 4.089414140651115e-09 0.010434725321829319 4.4187487002744774e-11 -2.9606155305117454e-09 4.4187487002744774e-11 -0.0002031332260230556" pbc="T T T"
Pt      -0.00000005       0.00000022      19.95723419        4      -0.00014857      -0.00021016       0.01773714
Pt       2.80721406      -0.00000018      19.95723436        4      -0.00011870      -0.00059153       0.01843430
Pt       5.61442778      -0.00000006      19.95723442        4      -0.00010632       0.00023895       0.01773010
Pt       1.40360717       2.43111838      19.95723425        4       0.00010983      -0.00010982       0.01883998
Pt       4.21082080       2.43111835      19.95723435        4       0.00004243       0.00014967       0.01883614
Pt       7.01803478       2.43111843      19.95723423        4       0.00025613      -0.00002538       0.01773772
Pt       2.80721408       4.86223724      19.95723395        4      -0.00014935      -0.00004146       0.01883714
Pt       5.61442803       4.86223730      19.95723413        4       0.00056999       0.00019384       0.01843021
Pt       8.42164138       4.86223726      19.95723427        4      -0.00045442       0.00039436       0.01843515
Pt       1.40360728       0.81037260      22.29206790        3       0.00104764       0.00125973      -0.05256518
Pt       4.21082128       0.81037250      22.29206784        3      -0.00029215       0.00144607      -0.05327878
Pt       7.01803477       0.81037260      22.29206779        3       0.00000113       0.00000295      -0.04357364
Pt       2.80721450       3.24149125      22.29206775        3      -0.00000680       0.00000014      -0.05179970
Pt       5.61442762       3.24149123      22.29206790        3      -0.00160329       0.00028063      -0.05258805
Pt       8.42164156       3.24149116      22.29206805        3       0.00139642      -0.00046179      -0.05328999
Pt       4.21082094       5.67260998      22.29206797        3      -0.00110559      -0.00097264      -0.05328839
Pt       7.01803488       5.67261038      22.29206774        3      -0.00000051      -0.00000415      -0.04970105
Pt       9.82524823       5.67261061      22.29206804        3       0.00056483      -0.00154864      -0.05255968
Pt      -0.00000056       1.62074572      24.58417389        2      -0.00634780      -0.00379750       0.02217690
Pt       2.80721443       1.62074548      24.58417398        2       0.00149082      -0.00140227       0.01833402
Pt       5.61442779       1.62074532      24.58417370        2       0.00645694      -0.00360868       0.02217895
Pt       1.40360636       4.05186439      24.58417390        2      -0.00195567      -0.00060342       0.01830980
Pt       4.21082088       4.05186401      24.58417381        2       0.00045921       0.00201354       0.01831008
Pt       7.01803503       4.05186407      24.58417407        2      -0.00122515      -0.00154962       0.02241613
Pt       2.80721279       6.48298345      24.58417372        2      -0.00008375       0.00737409       0.02219222
Pt       5.61442797       6.48298324      24.58417392        2      -0.00076561       0.00184539       0.02244877
Pt       8.42164222       6.48298343      24.58417383        2       0.00196531      -0.00027067       0.02245744
Pt       0.00288187      -0.00160289      26.91418175        1      -0.01819763       0.01095533       0.00565234
Pt       2.80691689      -0.00029792      26.91387978        1      -0.00005817       0.00261280       0.01206727
Pt       5.61159794      -0.00169845      26.91417457        1       0.01857910       0.01029956       0.00563192
Pt       1.40012896       2.42954426      26.91129404        1       0.01505344       0.00904532       0.01538003
Pt       4.21392442       2.42889935      26.91128892        1      -0.01535513       0.00851969       0.01538066
Pt       7.01797846       2.43442081      26.91415933        1      -0.00037055      -0.02125884       0.00552677
Pt       2.80758370       4.86603297      26.91130142        1       0.00030378      -0.01758460       0.01543026
Pt       5.61483226       4.86213069      26.91387304        1      -0.00219415      -0.00133567       0.01199496
Pt       8.42153029       4.86264320      26.91387120        1       0.00223719      -0.00124937       0.01197622
N        2.80721658       3.24148952      30.78476810        0      -0.00000316       0.00000460       0.00162018
H        1.98039469       3.71240897      30.39401099        0       0.01753341      -0.01011185       0.00271800
H        3.62845370       3.72207768      30.39400675        0      -0.01751484      -0.01012995       0.00271350
H        2.81279788       2.28998260      30.39400897        0      -0.00001067       0.02023128       0.00271011
