40
Lattice="8.421641763931781 0.0 0.0 4.2108208819658905 7.293355709136913 0.0 0.0 0.0 46.87624170604845" Properties=species:S:1:pos:R:3:tags:I:1:forces:R:3 charge=0 spin=0 energy=-206.9928214641488 free_energy=-206.9928214641488 stress="0.010041427798569202 -5.632753996565043e-08 1.0096840696860454e-08 -5.632753996565043e-08 0.010041491128504276 -2.2211576578001768e-08 1.0096840696860454e-08 -2.2211576578001768e-08 -0.0001748252398101613" pbc="T T T"
Pt      -0.00000005       0.00000022      19.95723419        4      -0.00140457      -0.00511014       0.02217683
Pt       2.80721406      -0.00000018      19.95723436        4      -0.00000247       0.00000313       0.01857262
Pt       5.61442778      -0.00000006      19.95723442        4       0.00249039      -0.00435650       0.02149021
Pt       1.40360717       2.43111838      19.95723425        4       0.00252633       0.00433662       0.02150834
Pt       4.21082080       2.43111835      19.95723435        4      -0.00371401       0.00377154       0.02212312
Pt       7.01803478       2.43111843      19.95723423        4      -0.00000159       0.00000164       0.02436743
Pt       2.80721408       4.86223724      19.95723395        4       0.00000104      -0.00000368      -0.04318756
Pt       5.61442803       4.86223730      19.95723413        4      -0.00501838       0.00002103       0.02152405
Pt       8.42164138       4.86223726      19.95723427        4       0.00512268       0.00133516       0.02215342
Pt       1.40360728       0.81037260      22.29206790        3       0.00298824       0.00094584      -0.04524969
Pt       4.21082128       0.81037250      22.29206784        3      -0.00073410      -0.00307979      -0.04528697
Pt       7.01803477       0.81037260      22.29206779        3       0.00200136      -0.00068902      -0.07438181
Pt       2.80721450       3.24149125      22.29206775        3      -0.00150281       0.02584458      -0.08389980
Pt       5.61442762       3.24149123      22.29206790        3      -0.00163098      -0.00141231      -0.07428530
Pt       8.42164156       3.24149116      22.29206805        3      -0.00036450       0.00210895      -0.07423378
Pt       4.21082094       5.67260998      22.29206797        3      -0.02166255      -0.01418425      -0.08395314
Pt       7.01803488       5.67261038      22.29206774        3      -0.00226314       0.00213899      -0.04519202
Pt       9.82524823       5.67261061      22.29206804        3       0.02316286      -0.01166530      -0.08393876
Pt      -0.00000056       1.62074572      24.58417389        2      -0.01110266       0.00179454       0.01793994
Pt       2.80721443       1.62074548      24.58417398        2      -0.00463850      -0.15920997       0.24152316
Pt       5.61442779       1.62074532      24.58417370        2       0.00706380       0.00869090       0.01800010
Pt       1.40360636       4.05186439      24.58417390        2       0.03695562       0.02437731      -0.06721901
Pt       4.21082088       4.05186401      24.58417381        2      -0.03956781       0.01976983      -0.06712218
Pt       7.01803503       4.05186407      24.58417407        2       0.00404721      -0.01047131       0.01776597
Pt       2.80721279       6.48298345      24.58417372        2       0.00262314      -0.04415844      -0.06697236
Pt       5.61442797       6.48298324      24.58417392        2       0.14017841       0.07560950       0.24152452
Pt       8.42164222       6.48298343      24.58417383        2      -0.13555373       0.08360390       0.24150059
Pt      -0.01720489      -0.00148356      26.90707732        1      -0.02551649       0.01521024      -0.01263088
Pt       2.80721435      -0.00000097      26.99524303        1      -0.00000102       0.00000437       0.03440525
Pt       5.63213573      -0.00203747      26.90784103        1       0.02422676       0.01461761      -0.01243978
Pt       1.39652808       2.44747292      26.90784290        1      -0.02476718       0.01367053      -0.01246075
Pt       4.21814407       2.44676016      26.90707971        1       0.02593994       0.01448143      -0.01257371
Pt       7.01803819       2.43111992      26.92918787        1       0.00000103      -0.00000563      -0.01948101
Pt       2.80721049       4.86223712      26.92455726        1       0.00000551       0.00000257      -0.00622225
Pt       5.60379952       4.84792136      26.90783779        1       0.00054409      -0.02828844      -0.01242403
Pt       8.43152573       4.84807941      26.90707526        1      -0.00043563      -0.02970168      -0.01268230
N        2.80721243       0.00000046      29.15768811        0       0.00016392      -0.00013413      -0.03578566
H        3.64916864       0.48515628      29.49437788        0      -0.03816427      -0.02197282       0.00166608
H        2.80639617      -0.97173394      29.49437668        0       0.00002684       0.04407359       0.00165485
H        1.96607943       0.48657322      29.49437792        0       0.03797721      -0.02197055       0.00172626
