40
Lattice="8.421641763931781 0.0 0.0 4.2108208819658905 7.293355709136913 0.0 0.0 0.0 46.87624170604845" Properties=species:S:1:pos:R:3:tags:I:1:forces:R:3 charge=0 spin=0 energy=-206.4241836162484 free_energy=-206.4241836162484 stress="0.010427353903651237 -6.460947332698197e-08 3.824242966743441e-08 -6.460947332698197e-08 0.010427684523165226 -8.428763464962685e-09 3.824242966743441e-08 -8.428763464962685e-09 -0.00018109913798980415" pbc="T T T"
Pt      -0.00000005       0.00000022      19.95723419        4       0.00013079      -0.00008738       0.01856823
Pt       2.80721406      -0.00000018      19.95723436        4       0.00039907       0.00020999       0.01846206
Pt       5.61442778      -0.00000006      19.95723442        4       0.00001172       0.00016204       0.01856679
Pt       1.40360717       2.43111838      19.95723425        4      -0.00002619      -0.00044734       0.01847185
Pt       4.21082080       2.43111835      19.95723435        4      -0.00037219       0.00024570       0.01847518
Pt       7.01803478       2.43111843      19.95723423        4      -0.00002619      -0.00045660       0.01782745
Pt       2.80721408       4.86223724      19.95723395        4      -0.00013834      -0.00007376       0.01858298
Pt       5.61442803       4.86223730      19.95723413        4      -0.00038413       0.00024713       0.01782510
Pt       8.42164138       4.86223726      19.95723427        4       0.00040994       0.00020457       0.01782762
Pt       1.40360728       0.81037260      22.29206790        3      -0.00011110       0.00037770      -0.05306402
Pt       4.21082128       0.81037250      22.29206784        3      -0.00026918      -0.00027376      -0.05305289
Pt       7.01803477       0.81037260      22.29206779        3      -0.00050723       0.00077449      -0.04915840
Pt       2.80721450       3.24149125      22.29206775        3       0.00037587      -0.00009058      -0.05302531
Pt       5.61442762       3.24149123      22.29206790        3      -0.00049257      -0.00053733      -0.05201695
Pt       8.42164156       3.24149116      22.29206805        3       0.00071887      -0.00015800      -0.05202036
Pt       4.21082094       5.67260998      22.29206797        3       0.00092332       0.00006190      -0.04916327
Pt       7.01803488       5.67261038      22.29206774        3      -0.00021727       0.00070587      -0.05204613
Pt       9.82524823       5.67261061      22.29206804        3      -0.00040445      -0.00083030      -0.04915776
Pt      -0.00000056       1.62074572      24.58417389        2      -0.01022851      -0.00300050       0.03226340
Pt       2.80721443       1.62074548      24.58417398        2      -0.00002076       0.00003315      -0.00338987
Pt       5.61442779       1.62074532      24.58417370        2       0.00722865      -0.00325181       0.02635497
Pt       1.40360636       4.05186439      24.58417390        2      -0.00079884       0.00785428       0.02633011
Pt       4.21082088       4.05186401      24.58417381        2       0.00250407       0.01034989       0.03223335
Pt       7.01803503       4.05186407      24.58417407        2      -0.00000083      -0.00004094       0.03944290
Pt       2.80721279       6.48298345      24.58417372        2       0.00000348      -0.00001470       0.00449304
Pt       5.61442797       6.48298324      24.58417392        2      -0.00644729      -0.00462747       0.02630438
Pt       8.42164222       6.48298343      24.58417383        2       0.00770525      -0.00736953       0.03220349
Pt      -0.00365005      -0.00462714      26.91684298        1       0.03267776       0.03053298       0.00003355
Pt       2.80760021       0.00254662      26.90691012        1       0.00091031      -0.02669556       0.03514441
Pt       5.62023776      -0.00085315      26.91684543        1      -0.04276273       0.01305057       0.00005687
Pt       1.40561273       2.42949438      26.90694526        1      -0.02357999       0.01254923       0.03497535
Pt       4.20840599       2.43017480      26.90693839        1       0.02265348       0.01413166       0.03502550
Pt       7.01615368       2.43000796      26.91771292        1       0.01116954       0.01801491      -0.01122283
Pt       2.80502714       4.86768965      26.91684593        1       0.01010032      -0.04355548       0.00002184
Pt       5.61440331       4.86438802      26.91767755        1       0.01005919      -0.01863892      -0.01110232
Pt       8.42351893       4.86115721      26.91768349        1      -0.02119043       0.00063874      -0.01110646
N       11.22890982       6.48302251      30.82381755        0      -0.00030066       0.00015345      -0.00669205
H       11.42401705       7.41197340      30.42845383        0       0.00495309       0.01475793       0.00559939
H       11.93575927       5.84956205      30.42833606        0       0.01095307      -0.01136799       0.00548906
H       10.32687270       6.18760413      30.42837999        0      -0.01560899      -0.00353843       0.00563985
