40
Lattice="8.421641763931781 0.0 0.0 4.2108208819658905 7.293355709136913 0.0 0.0 0.0 46.87624170604845" Properties=species:S:1:pos:R:3:tags:I:1:forces:R:3 charge=0 spin=0 energy=-206.42591358145836 free_energy=-206.42591358145836 stress="0.010472350753843784 -7.297839488273894e-08 -6.7735732578455554e-09 -7.297839488273894e-08 0.010472412221133709 -1.4343902954294663e-08 -6.7735732578455554e-09 -1.4343902954294663e-08 -0.00011252950935158879" pbc="T T T"
Pt      -0.00000005       0.00000022      19.95723419        4      -0.00071192      -0.00002786       0.01853678
Pt       2.80721406      -0.00000018      19.95723436        4      -0.00023685       0.00014317       0.01782591
Pt       5.61442778      -0.00000006      19.95723442        4       0.00037948      -0.00060176       0.01852414
Pt       1.40360717       2.43111838      19.95723425        4       0.00023795       0.00013485       0.01782970
Pt       4.21082080       2.43111835      19.95723435        4      -0.00000235      -0.00026768       0.01783152
Pt       7.01803478       2.43111843      19.95723423        4       0.00002366       0.00018749       0.01873400
Pt       2.80721408       4.86223724      19.95723395        4       0.00033610       0.00063282       0.01853277
Pt       5.61442803       4.86223730      19.95723413        4       0.00014695      -0.00011366       0.01873038
Pt       8.42164138       4.86223726      19.95723427        4      -0.00017272      -0.00007321       0.01872418
Pt       1.40360728       0.81037260      22.29206790        3      -0.00068204      -0.00033708      -0.05024398
Pt       4.21082128       0.81037250      22.29206784        3       0.00063154      -0.00041218      -0.05024952
Pt       7.01803477       0.81037260      22.29206779        3       0.00055035       0.00063315      -0.05212483
Pt       2.80721450       3.24149125      22.29206775        3       0.00003907       0.00077567      -0.05025581
Pt       5.61442762       3.24149123      22.29206790        3       0.00065210      -0.00006177      -0.05214861
Pt       8.42164156       3.24149116      22.29206805        3      -0.00025292       0.00060696      -0.05215553
Pt       4.21082094       5.67260998      22.29206797        3       0.00026416      -0.00077387      -0.05213521
Pt       7.01803488       5.67261038      22.29206774        3      -0.00039072      -0.00052101      -0.05214799
Pt       9.82524823       5.67261061      22.29206804        3      -0.00080813       0.00015721      -0.05214726
Pt      -0.00000056       1.62074572      24.58417389        2       0.00104009      -0.00147226       0.03290276
Pt       2.80721443       1.62074548      24.58417398        2      -0.00000371      -0.00003245       0.02686038
Pt       5.61442779       1.62074532      24.58417370        2       0.00186341      -0.00100586       0.02924783
Pt       1.40360636       4.05186439      24.58417390        2      -0.00008427       0.00210863       0.02926416
Pt       4.21082088       4.05186401      24.58417381        2      -0.00175507      -0.00017479       0.03288600
Pt       7.01803503       4.05186407      24.58417407        2      -0.00000887      -0.00001274       0.03403274
Pt       2.80721279       6.48298345      24.58417372        2       0.00000798      -0.00001552       0.04673204
Pt       5.61442797       6.48298324      24.58417392        2      -0.00178705      -0.00117248       0.02930023
Pt       8.42164222       6.48298343      24.58417383        2       0.00071773       0.00157373       0.03292002
Pt       0.00255213      -0.00042559      26.91642729        1      -0.01537625      -0.00082528      -0.00413769
Pt       2.80622809      -0.00170949      26.91423138        1       0.00692109       0.00911445       0.00654103
Pt       5.61349204       0.00238000      26.91642815        1       0.00842203      -0.01284261      -0.00408527
Pt       1.40264133       2.43278173      26.91421793        1       0.00445967      -0.01055456       0.00645702
Pt       4.21276605       2.43107858      26.91422063        1      -0.01137293       0.00146237       0.00647153
Pt       7.01809079       2.42826126      26.91629562        1       0.00091112       0.01228055      -0.00365569
Pt       2.80559246       4.86019541      26.91641388        1       0.00695692       0.01373146      -0.00425576
Pt       5.61195096       4.86357065      26.91630652        1       0.01011922      -0.00690825      -0.00375198
Pt       8.42405693       4.86367212      26.91630266        1      -0.01104044      -0.00532806      -0.00371462
N        7.01809937       4.05167752      30.84163397        0      -0.00002923       0.00003598      -0.03292056
H        7.35576473       4.93908971      30.44552431        0       0.00208509       0.00077476       0.01372262
H        7.61738744       3.31607512      30.44391973        0      -0.00051688      -0.00197056       0.01376482
H        6.08100087       3.90104371      30.44466502        0      -0.00153320       0.00115220       0.01375800
