40
Lattice="8.421641763931781 0.0 0.0 4.2108208819658905 7.293355709136913 0.0 0.0 0.0 46.87624170604845" Properties=species:S:1:pos:R:3:tags:I:1:forces:R:3 charge=0 spin=0 energy=-206.42468143424156 free_energy=-206.42468143424156 stress="0.010460502468049526 -6.76048443892796e-08 2.8279991681756655e-09 -6.76048443892796e-08 0.010460414923727512 1.6570307792562744e-08 2.8279991681756655e-09 1.6570307792562744e-08 -0.00015496912237722427" pbc="T T T"
Pt      -0.00000005       0.00000022      19.95723419        4      -0.00000389       0.00034794       0.01769968
Pt       2.80721406      -0.00000018      19.95723436        4      -0.00030309      -0.00017826       0.01769722
Pt       5.61442778      -0.00000006      19.95723442        4      -0.00015580      -0.00055325       0.01844821
Pt       1.40360717       2.43111838      19.95723425        4       0.00030753      -0.00016916       0.01769649
Pt       4.21082080       2.43111835      19.95723435        4       0.00005816      -0.00008910       0.01892874
Pt       7.01803478       2.43111843      19.95723423        4       0.00004760       0.00009308       0.01892461
Pt       2.80721408       4.86223724      19.95723395        4      -0.00040235       0.00040819       0.01845561
Pt       5.61442803       4.86223730      19.95723413        4      -0.00010857      -0.00000661       0.01892414
Pt       8.42164138       4.86223726      19.95723427        4       0.00055844       0.00013966       0.01844895
Pt       1.40360728       0.81037260      22.29206790        3      -0.00000206       0.00000346      -0.04381458
Pt       4.21082128       0.81037250      22.29206784        3       0.00069782       0.00080017      -0.05300829
Pt       7.01803477       0.81037260      22.29206779        3      -0.00007009       0.00122440      -0.05327954
Pt       2.80721450       3.24149125      22.29206775        3       0.00108676      -0.00054824      -0.05329034
Pt       5.61442762       3.24149123      22.29206790        3       0.00000061      -0.00000147      -0.05023965
Pt       8.42164156       3.24149116      22.29206805        3      -0.00103391       0.00020958      -0.05303135
Pt       4.21082094       5.67260998      22.29206797        3       0.00032917      -0.00100881      -0.05300000
Pt       7.01803488       5.67261038      22.29206774        3      -0.00103041      -0.00068474      -0.05329404
Pt       9.82524823       5.67261061      22.29206804        3       0.00000692      -0.00001524      -0.05018262
Pt      -0.00000056       1.62074572      24.58417389        2       0.00576839      -0.00277239       0.03449852
Pt       2.80721443       1.62074548      24.58417398        2      -0.00528365      -0.00359156       0.03448347
Pt       5.61442779       1.62074532      24.58417370        2       0.00154956       0.00358142       0.02715133
Pt       1.40360636       4.05186439      24.58417390        2      -0.00143046      -0.00426632       0.02119829
Pt       4.21082088       4.05186401      24.58417381        2       0.00230523      -0.00311510       0.02712027
Pt       7.01803503       4.05186407      24.58417407        2      -0.00384819      -0.00044237       0.02711062
Pt       2.80721279       6.48298345      24.58417372        2       0.00444489       0.00090965       0.02123810
Pt       5.61442797       6.48298324      24.58417392        2      -0.00047348       0.00638203       0.03447156
Pt       8.42164222       6.48298343      24.58417383        2      -0.00299248       0.00339322       0.02122111
Pt      -0.00451931      -0.00170669      26.91604142        1       0.03216739       0.01566700      -0.00320432
Pt       2.81097167      -0.00304520      26.91604298        1      -0.02966899       0.02000899      -0.00313882
Pt       5.61468258      -0.00063662      26.91305236        1      -0.00267957       0.00988587       0.01618931
Pt       1.40438738       2.43590668      26.91602722        1      -0.00252229      -0.03571098      -0.00330302
Pt       4.20751993       2.42886881      26.91485314        1       0.01510148       0.01094194      -0.00133074
Pt       7.02165134       2.42939808      26.91485297        1      -0.01701422       0.00761340      -0.00136268
Pt       2.80652963       4.86235482      26.91304007        1       0.00987518      -0.00260715       0.01610699
Pt       5.61412824       4.86624405      26.91484702        1       0.00191689      -0.01858055      -0.00126556
Pt       8.42208514       4.86278881      26.91304180        1      -0.00719579      -0.00726184       0.01611482
N        5.61437796       3.24158507      30.74535260        0       0.00003288      -0.00008287      -0.04114925
H        5.02083090       3.98403270      30.35081888        0       0.01491612      -0.01603295       0.01860444
H        6.55437375       3.38401554      30.35126996        0      -0.02127560      -0.00459628       0.01859616
H        5.26800178       2.35595951      30.35182482        0       0.00632396       0.02070512       0.01856605
