40
Lattice="8.421641763931781 0.0 0.0 4.2108208819658905 7.293355709136913 0.0 0.0 0.0 46.87624170604845" Properties=species:S:1:pos:R:3:tags:I:1:forces:R:3 charge=0 spin=0 energy=-206.4291370006478 free_energy=-206.4291370006478 stress="0.010527647100389004 1.7373853467006484e-08 2.076811833617853e-09 1.7373853467006484e-08 0.010527722537517548 1.87060367196068e-09 2.076811833617853e-09 1.87060367196068e-09 -4.105261541553773e-05" pbc="T T T"
Pt      -0.00000005       0.00000022      19.95723419        4      -0.00022814      -0.00019325       0.01804562
Pt       2.80721406      -0.00000018      19.95723436        4       0.00027479      -0.00045838       0.01845150
Pt       5.61442778      -0.00000006      19.95723442        4      -0.00054030      -0.00000553       0.01844874
Pt       1.40360717       2.43111838      19.95723425        4       0.00028154      -0.00010099       0.01804628
Pt       4.21082080       2.43111835      19.95723435        4       0.00003156      -0.00012498       0.01864840
Pt       7.01803478       2.43111843      19.95723423        4      -0.00005182       0.00029636       0.01804639
Pt       2.80721408       4.86223724      19.95723395        4      -0.00012306       0.00003685       0.01865044
Pt       5.61442803       4.86223730      19.95723413        4       0.00009200       0.00008789       0.01864477
Pt       8.42164138       4.86223726      19.95723427        4       0.00026240       0.00047221       0.01845387
Pt       1.40360728       0.81037260      22.29206790        3       0.00081759      -0.00013341      -0.04940604
Pt       4.21082128       0.81037250      22.29206784        3       0.00048333       0.00086771      -0.05179271
Pt       7.01803477       0.81037260      22.29206779        3      -0.00053569      -0.00063460      -0.04939331
Pt       2.80721450       3.24149125      22.29206775        3       0.00099199       0.00016550      -0.05391758
Pt       5.61442762       3.24149123      22.29206790        3      -0.00062713       0.00079324      -0.05393171
Pt       8.42164156       3.24149116      22.29206805        3      -0.00028364       0.00079749      -0.04942995
Pt       4.21082094       5.67260998      22.29206797        3      -0.00036844      -0.00093828      -0.05390928
Pt       7.01803488       5.67261038      22.29206774        3      -0.00098605      -0.00000263      -0.05181977
Pt       9.82524823       5.67261061      22.29206804        3       0.00050254      -0.00085418      -0.05179648
Pt      -0.00000056       1.62074572      24.58417389        2       0.00000604      -0.00006800       0.03556398
Pt       2.80721443       1.62074548      24.58417398        2      -0.00358279      -0.00716057       0.04336287
Pt       5.61442779       1.62074532      24.58417370        2       0.00508534      -0.00734753       0.04283815
Pt       1.40360636       4.05186439      24.58417390        2      -0.00883761      -0.00073287       0.04278706
Pt       4.21082088       4.05186401      24.58417381        2      -0.00002401       0.00000717       0.02144259
Pt       7.01803503       4.05186407      24.58417407        2       0.00795035       0.00046362       0.04336392
Pt       2.80721279       6.48298345      24.58417372        2      -0.00437011       0.00665320       0.04347334
Pt       5.61442797       6.48298324      24.58417392        2       0.00375770       0.00804836       0.04285784
Pt       8.42164222       6.48298343      24.58417383        2       0.00001984       0.00000680       0.05850979
Pt       0.00032789      -0.00010308      26.91715574        1       0.00014996       0.00211471      -0.00867122
Pt       2.80801070      -0.00044813      26.92127438        1      -0.00240924       0.00096441      -0.02347131
Pt       5.61366121      -0.00049144      26.92129953        1       0.00203421       0.00159293      -0.02361469
Pt       1.40351013       2.43142248      26.91710579        1      -0.00192503      -0.00093069      -0.00856353
Pt       4.21048757       2.43113462      26.91429321        1      -0.00002810      -0.00832341       0.00823689
Pt       7.01781265       2.43083945      26.91711213        1       0.00176105      -0.00113556      -0.00862423
Pt       2.80739612       4.86250824      26.91431604        1      -0.00720963       0.00412526       0.00802527
Pt       5.61456606       4.86190394      26.91429869        1       0.00724248       0.00418423       0.00810768
Pt       8.42160775       4.86311947      26.92125784        1       0.00038893      -0.00253167      -0.02364996
N        4.21082056       4.05186147      31.00750983        0      -0.00004254       0.00006697      -0.00524795
H        4.19146322       3.10169409      30.61335704        0       0.00052914       0.01932921       0.00105920
H        3.39763006       4.54371127      30.61335632        0       0.01654003      -0.01016284       0.00109711
H        5.04336999       4.51018250      30.61335999        0      -0.01702947      -0.00923475       0.00107780
