40
Lattice="8.421641763931781 0.0 0.0 4.2108208819658905 7.293355709136913 0.0 0.0 0.0 46.87624170604845" Properties=species:S:1:pos:R:3:tags:I:1:forces:R:3 charge=0 spin=0 energy=-206.41990161856774 free_energy=-206.41990161856774 stress="0.010420175269246101 -5.425856215879321e-05 -8.693078598298598e-06 -5.425856215879321e-05 0.010377271100878716 6.2536978475691285e-06 -8.693078598298598e-06 6.2536978475691285e-06 -0.0002602928434498608" pbc="T T T"
Pt      -0.00000005       0.00000022      19.95723419        4       0.00191530      -0.00103996       0.01844049
Pt       2.80721406      -0.00000018      19.95723436        4       0.00213152      -0.00060408       0.01723905
Pt       5.61442778      -0.00000006      19.95723442        4       0.00273385      -0.00143869       0.01825947
Pt       1.40360717       2.43111838      19.95723425        4       0.00212898      -0.00053382       0.01819270
Pt       4.21082080       2.43111835      19.95723435        4       0.00222871      -0.00102238       0.01732022
Pt       7.01803478       2.43111843      19.95723423        4       0.00261980      -0.00066081       0.01874950
Pt       2.80721408       4.86223724      19.95723395        4       0.00271533      -0.00041057       0.01850890
Pt       5.61442803       4.86223730      19.95723413        4       0.00224837      -0.00070330       0.01860767
Pt       8.42164138       4.86223726      19.95723427        4       0.00226175      -0.00132298       0.01866477
Pt       1.40360728       0.81037260      22.29206790        3       0.00825123      -0.00396754      -0.05167015
Pt       4.21082128       0.81037250      22.29206784        3       0.01048908      -0.00580072      -0.05011343
Pt       7.01803477       0.81037260      22.29206779        3       0.00828235      -0.00412800      -0.05384881
Pt       2.80721450       3.24149125      22.29206775        3       0.00724104      -0.00426890      -0.05112858
Pt       5.61442762       3.24149123      22.29206790        3       0.00962691      -0.00595744      -0.05149058
Pt       8.42164156       3.24149116      22.29206805        3       0.00856148      -0.00428643      -0.04907849
Pt       4.21082094       5.67260998      22.29206797        3       0.00846089      -0.00494944      -0.04930807
Pt       7.01803488       5.67261038      22.29206774        3       0.00915836      -0.00458000      -0.05137227
Pt       9.82524823       5.67261061      22.29206804        3       0.00768818      -0.00371439      -0.05414000
Pt      -0.00000056       1.62074572      24.58417389        2      -0.02361836       0.01331556       0.01772744
Pt       2.80721443       1.62074548      24.58417398        2      -0.02599235       0.01303225       0.01434725
Pt       5.61442779       1.62074532      24.58417370        2      -0.02480369       0.01890952       0.00654870
Pt       1.40360636       4.05186439      24.58417390        2      -0.02460291       0.01346125       0.01839583
Pt       4.21082088       4.05186401      24.58417381        2      -0.02442045       0.01890811       0.01874326
Pt       7.01803503       4.05186407      24.58417407        2      -0.02599807       0.01162665       0.00703812
Pt       2.80721279       6.48298345      24.58417372        2      -0.01640781       0.00799799       0.02260219
Pt       5.61442797       6.48298324      24.58417392        2      -0.03202485       0.00683466       0.01724648
Pt       8.42164222       6.48298343      24.58417383        2      -0.02988438       0.00934429       0.00597904
Pt      -0.03300125       0.01934406      26.91365142        1       0.01187913      -0.02568286       0.01227287
Pt       2.77111225       0.01438484      26.90963639        1       0.02419125       0.01746009       0.02762068
Pt       5.58084161       0.01730268      26.90626349        1       0.01482667      -0.00672588       0.04137295
Pt       1.36885413       2.44865832      26.91423482        1       0.02792767      -0.01510137       0.00726412
Pt       4.17812185       2.45253379      26.91038224        1      -0.00081796      -0.02742383       0.02517618
Pt       6.98307027       2.44711507      26.91352736        1       0.01884721      -0.00910951       0.01416637
Pt       2.77278173       4.87757343      26.91385430        1       0.02812553       0.00394030       0.01083021
Pt       5.58504892       4.87788287      26.91566297        1      -0.01731684       0.00920158       0.00214442
Pt       8.38891599       4.88080522      26.91315743        1       0.01962107      -0.01008081       0.01510846
N        7.61761895       3.70554555      30.73417785        0       0.00689357      -0.00352330       0.02503140
H        7.55048708       4.69658483      30.47053810        0      -0.01073953       0.01598422      -0.00659554
H        8.34164341       3.29312966      30.13253634        0       0.02385994      -0.01417367       0.00153344
H        6.72885022       3.26755308      30.46145877        0      -0.01828803       0.00119429      -0.00638646
