40
Lattice="8.421641763931781 0.0 0.0 4.2108208819658905 7.293355709136913 0.0 0.0 0.0 46.87624170604845" Properties=species:S:1:pos:R:3:tags:I:1:forces:R:3 charge=0 spin=0 energy=-206.42405200919274 free_energy=-206.42405200919274 stress="0.010434756055474281 1.815691419437826e-08 -1.4139996729056747e-08 1.815691419437826e-08 0.010434789583086967 -7.972158933000628e-09 -1.4139996729056747e-08 -7.972158933000628e-09 -0.00020305614452809095" pbc="T T T"
Pt      -0.00000005       0.00000022      19.95723419        4       0.00011251      -0.00011219       0.01883903
Pt       2.80721406      -0.00000018      19.95723436        4       0.00003897       0.00015070       0.01883506
Pt       5.61442778      -0.00000006      19.95723442        4       0.00025677      -0.00002342       0.01772830
Pt       1.40360717       2.43111838      19.95723425        4      -0.00015020      -0.00003670       0.01883720
Pt       4.21082080       2.43111835      19.95723435        4       0.00057302       0.00019833       0.01843050
Pt       7.01803478       2.43111843      19.95723423        4      -0.00045658       0.00039990       0.01843585
Pt       2.80721408       4.86223724      19.95723395        4      -0.00015059      -0.00021210       0.01773865
Pt       5.61442803       4.86223730      19.95723413        4      -0.00011816      -0.00059710       0.01843509
Pt       8.42164138       4.86223726      19.95723427        4      -0.00010432       0.00023154       0.01773886
Pt       1.40360728       0.81037260      22.29206790        3      -0.00000100       0.00000034      -0.05179877
Pt       4.21082128       0.81037250      22.29206784        3      -0.00160914       0.00028527      -0.05258747
Pt       7.01803477       0.81037260      22.29206779        3       0.00139463      -0.00046260      -0.05328678
Pt       2.80721450       3.24149125      22.29206775        3      -0.00111015      -0.00097467      -0.05328916
Pt       5.61442762       3.24149123      22.29206790        3       0.00000499       0.00000099      -0.04970377
Pt       8.42164156       3.24149116      22.29206805        3       0.00056081      -0.00153593      -0.05256284
Pt       4.21082094       5.67260998      22.29206797        3       0.00104621       0.00126110      -0.05256410
Pt       7.01803488       5.67261038      22.29206774        3      -0.00029100       0.00143654      -0.05327867
Pt       9.82524823       5.67261061      22.29206804        3       0.00000602      -0.00000978      -0.04357292
Pt      -0.00000056       1.62074572      24.58417389        2      -0.00195460      -0.00060138       0.01832070
Pt       2.80721443       1.62074548      24.58417398        2       0.00044869       0.00201287       0.01831761
Pt       5.61442779       1.62074532      24.58417370        2      -0.00121923      -0.00154871       0.02242270
Pt       1.40360636       4.05186439      24.58417390        2      -0.00008983       0.00737800       0.02220823
Pt       4.21082088       4.05186401      24.58417381        2      -0.00076553       0.00185344       0.02245448
Pt       7.01803503       4.05186407      24.58417407        2       0.00197279      -0.00026128       0.02245938
Pt       2.80721279       6.48298345      24.58417372        2      -0.00634073      -0.00380452       0.02219197
Pt       5.61442797       6.48298324      24.58417392        2       0.00149353      -0.00140566       0.01833871
Pt       8.42164222       6.48298343      24.58417383        2       0.00644722      -0.00362220       0.02219525
Pt      -0.00347844      -0.00157446      26.91129694        1       0.01504914       0.00904319       0.01537000
Pt       2.81031755      -0.00221901      26.91129105        1      -0.01535367       0.00851632       0.01536978
Pt       5.61437182       0.00330278      26.91416402        1      -0.00037234      -0.02126698       0.00551540
Pt       1.40397639       2.43491416      26.91130390        1       0.00030420      -0.01757564       0.01541130
Pt       4.21122526       2.43101211      26.91387358        1      -0.00219414      -0.00133680       0.01199689
Pt       7.01792341       2.43152397      26.91387104        1       0.00224032      -0.00124783       0.01197681
Pt       2.81009644       4.86063397      26.91418568        1      -0.01820900       0.01095746       0.00563459
Pt       5.61413052       4.86193892      26.91387970        1      -0.00005718       0.00261495       0.01206604
Pt       8.41881124       4.86053822      26.91417807        1       0.01859533       0.01029234       0.00561739
N        1.40360955       0.81037142      30.78468558        0       0.00009857      -0.00001835       0.00159766
H        2.22484872       1.29095926      30.39392374        0      -0.01756764      -0.01015582       0.00274002
H        1.40919085      -0.14113705      30.39392644        0      -0.00001603       0.02026301       0.00272658
H        0.57678815       1.28129074      30.39392764        0       0.01748693      -0.01008663       0.00269436
