40
Lattice="8.421641763931781 0.0 0.0 4.2108208819658905 7.293355709136913 0.0 0.0 0.0 46.87624170604845" Properties=species:S:1:pos:R:3:tags:I:1:forces:R:3 charge=0 spin=0 energy=-206.4244563671029 free_energy=-206.4244563671029 stress="0.010490475222468376 -6.448151346205577e-09 -1.4802807868363743e-08 -6.448151346205577e-09 0.010490452870726585 1.6238901778820036e-08 -1.4802807868363743e-08 1.6238901778820036e-08 -5.012013207306154e-05" pbc="T T T"
Pt      -0.00000005       0.00000022      19.95723419        4      -0.00069155      -0.00012904       0.01858375
Pt       2.80721406      -0.00000018      19.95723436        4      -0.00022253       0.00003882       0.01788757
Pt       5.61442778      -0.00000006      19.95723442        4       0.00045517      -0.00053559       0.01857037
Pt       1.40360717       2.43111838      19.95723425        4       0.00014203       0.00017186       0.01789223
Pt       4.21082080       2.43111835      19.95723435        4       0.00008008      -0.00020672       0.01789270
Pt       7.01803478       2.43111843      19.95723423        4      -0.00002894       0.00020544       0.01871507
Pt       2.80721408       4.86223724      19.95723395        4       0.00023965       0.00066429       0.01857995
Pt       5.61442803       4.86223730      19.95723413        4       0.00019115      -0.00007977       0.01871117
Pt       8.42164138       4.86223726      19.95723427        4      -0.00016382      -0.00012981       0.01870476
Pt       1.40360728       0.81037260      22.29206790        3      -0.00051169      -0.00054579      -0.05067989
Pt       4.21082128       0.81037250      22.29206784        3       0.00072038      -0.00016843      -0.05068756
Pt       7.01803477       0.81037260      22.29206779        3       0.00054540       0.00056614      -0.05207844
Pt       2.80721450       3.24149125      22.29206775        3      -0.00021975       0.00072051      -0.05070112
Pt       5.61442762       3.24149123      22.29206790        3       0.00060288      -0.00008697      -0.05196371
Pt       8.42164156       3.24149116      22.29206805        3      -0.00021391       0.00056902      -0.05196736
Pt       4.21082094       5.67260998      22.29206797        3       0.00021658      -0.00074878      -0.05209341
Pt       7.01803488       5.67261038      22.29206774        3      -0.00038322      -0.00047772      -0.05196775
Pt       9.82524823       5.67261061      22.29206804        3      -0.00075716       0.00017817      -0.05210592
Pt      -0.00000056       1.62074572      24.58417389        2       0.00020062      -0.00246312       0.03949431
Pt       2.80721443       1.62074548      24.58417398        2      -0.00000511      -0.00001247       0.03810025
Pt       5.61442779       1.62074532      24.58417370        2       0.00146552      -0.00272724       0.04056871
Pt       1.40360636       4.05186439      24.58417390        2       0.00162902       0.00262216       0.04052727
Pt       4.21082088       4.05186401      24.58417381        2      -0.00222230       0.00105407       0.03942106
Pt       7.01803503       4.05186407      24.58417407        2      -0.00000323      -0.00001303       0.03619166
Pt       2.80721279       6.48298345      24.58417372        2       0.00000746       0.00002214       0.05781319
Pt       5.61442797       6.48298324      24.58417392        2      -0.00309385       0.00010113       0.04057823
Pt       8.42164222       6.48298343      24.58417383        2       0.00201852       0.00140346       0.03949249
Pt       0.00171397       0.00119968      26.91879511        1      -0.01205357      -0.00769831      -0.01561187
Pt       2.80778198      -0.00262796      26.91604173        1      -0.00140844       0.01774055      -0.00221000
Pt       5.61253277       0.00088711      26.91879642        1       0.01268698      -0.00657518      -0.01556480
Pt       1.40104450       2.43193321      26.91602853        1       0.01610587      -0.00765210      -0.00231214
Pt       4.21281165       2.43292425      26.91602970        1      -0.01467572      -0.01010720      -0.00226950
Pt       7.01776081       2.42985365      26.91800314        1      -0.00086795      -0.00115229      -0.00941728
Pt       2.80739253       4.86014676      26.91876286        1      -0.00063366       0.01429945      -0.01565536
Pt       5.61346661       4.86310950      26.91798706        1      -0.00059091       0.00131127      -0.00941942
Pt       8.42287649       4.86262988      26.91798795        1       0.00144028      -0.00016098      -0.00940964
N        7.01803457       4.05185973      30.85117790        0       0.00010109      -0.00011404      -0.02998779
H        7.00615638       4.99904043      30.45120948        0      -0.00067435       0.03703959       0.01275917
H        7.84425464       3.58856180      30.45118924        0       0.03227731      -0.01786467       0.01283432
H        6.20369486       3.56798732      30.45119297        0      -0.03170432      -0.01905890       0.01278480
