40
Lattice="8.421641763931781 0.0 0.0 4.2108208819658905 7.293355709136913 0.0 0.0 0.0 46.87624170604845" Properties=species:S:1:pos:R:3:tags:I:1:forces:R:3 charge=0 spin=0 energy=-206.9932353588021 free_energy=-206.9932353588021 stress="0.009999641217291355 -8.120739636297003e-08 -1.038405983422308e-08 -8.120739636297003e-08 0.009999697096645832 -3.192177899791204e-08 -1.038405983422308e-08 -3.192177899791204e-08 -0.0002704709186218679" pbc="T T T"
Pt      -0.00000005       0.00000022      19.95723419        4       0.00524208       0.00132844       0.02212269
Pt       2.80721406      -0.00000018      19.95723436        4      -0.00000190       0.00000315      -0.04378826
Pt       5.61442778      -0.00000006      19.95723442        4      -0.00515084       0.00004561       0.02150064
Pt       1.40360717       2.43111838      19.95723425        4       0.00254263      -0.00448162       0.02148372
Pt       4.21082080       2.43111835      19.95723435        4      -0.00147324      -0.00520287       0.02214551
Pt       7.01803478       2.43111843      19.95723423        4      -0.00000176       0.00000183       0.01853076
Pt       2.80721408       4.86223724      19.95723395        4       0.00000125      -0.00000418       0.02421514
Pt       5.61442803       4.86223730      19.95723413        4       0.00260595       0.00443824       0.02149292
Pt       8.42164138       4.86223726      19.95723427        4      -0.00376385       0.00387128       0.02209154
Pt       1.40360728       0.81037260      22.29206790        3       0.02409463      -0.01215343      -0.08496106
Pt       4.21082128       0.81037250      22.29206784        3      -0.02256596      -0.01474686      -0.08497719
Pt       7.01803477       0.81037260      22.29206779        3      -0.00224215       0.00200265      -0.04518457
Pt       2.80721450       3.24149125      22.29206775        3       0.00208501      -0.00073215      -0.07487294
Pt       5.61442762       3.24149123      22.29206790        3       0.00286275       0.00099877      -0.04523670
Pt       8.42164156       3.24149116      22.29206805        3      -0.00061344      -0.00300062      -0.04527362
Pt       4.21082094       5.67260998      22.29206797        3      -0.00038052       0.00221169      -0.07472243
Pt       7.01803488       5.67261038      22.29206774        3      -0.00153540       0.02690578      -0.08491337
Pt       9.82524823       5.67261061      22.29206804        3      -0.00170646      -0.00148036      -0.07477526
Pt      -0.00000056       1.62074572      24.58417389        2      -0.13535754       0.08388281       0.24303988
Pt       2.80721443       1.62074548      24.58417398        2       0.00229693      -0.04796259      -0.07143006
Pt       5.61442779       1.62074532      24.58417370        2       0.14030881       0.07535776       0.24308351
Pt       1.40360636       4.05186439      24.58417390        2       0.00292909       0.00596976       0.00729051
Pt       4.21082088       4.05186401      24.58417381        2      -0.00671004      -0.00045736       0.00723472
Pt       7.01803503       4.05186407      24.58417407        2      -0.00494834      -0.15919861       0.24306004
Pt       2.80721279       6.48298345      24.58417372        2       0.00380022      -0.00555848       0.00704187
Pt       5.61442797       6.48298324      24.58417392        2       0.04041270       0.02601562      -0.07171027
Pt       8.42164222       6.48298343      24.58417383        2      -0.04273051       0.02192513      -0.07160220
Pt       0.00996343      -0.01609803      26.90621788        1       0.00048599      -0.01412101      -0.00948007
Pt       2.80721273      -0.00000433      26.92575788        1      -0.00000097       0.00000762      -0.00864832
Pt       5.60376353      -0.01633758      26.90737569        1      -0.00058463      -0.01261232      -0.01069812
Pt       1.42308926       2.43005883      26.90739901        1       0.01120206       0.00581049      -0.01079085
Pt       4.19189294       2.43053794      26.90624239        1      -0.01245883       0.00661964      -0.00950856
Pt       7.01803646       2.43111636      26.99497049        1      -0.00000420       0.00000674      -0.02648900
Pt       2.80721541       4.86223814      26.92363193        1       0.00000681      -0.00000937       0.00345228
Pt       5.60560903       4.87962831      26.90738416        1      -0.01060263       0.00681930      -0.01075964
Pt       8.43061180       4.87890946      26.90623120        1       0.01195818       0.00750549      -0.00941195
N        7.01803638       2.43111878      29.14531283        0      -0.00009389      -0.00007239       0.04823294
H        7.85845630       2.91573876      29.48569474        0      -0.01494362      -0.00864038      -0.00223728
H        7.01751865       1.46098076      29.48569535        0      -0.00000299       0.01737268      -0.00227379
H        6.17813006       2.91663389      29.48569519        0       0.01503867      -0.00866593      -0.00227302
