40
Lattice="8.421641763931781 0.0 0.0 4.2108208819658905 7.293355709136913 0.0 0.0 0.0 46.87624170604845" Properties=species:S:1:pos:R:3:tags:I:1:forces:R:3 charge=0 spin=0 energy=-206.99403263053063 free_energy=-206.99403263053063 stress="0.010009867139160633 -1.3355668215808691e-07 -2.7101658695016795e-09 -1.3355668215808691e-07 0.010009837336838245 2.0143038170772343e-07 -2.7101658695016795e-09 2.0143038170772343e-07 -0.00023379943741019815" pbc="T T T"
Pt      -0.00000005       0.00000022      19.95723419        4       0.00000269      -0.00000323       0.01878638
Pt       2.80721406      -0.00000018      19.95723436        4       0.00256707      -0.00467230       0.02159568
Pt       5.61442778      -0.00000006      19.95723442        4      -0.00141569      -0.00535343       0.02180248
Pt       1.40360717       2.43111838      19.95723425        4      -0.00392348       0.00389582       0.02175795
Pt       4.21082080       2.43111835      19.95723435        4       0.00000136       0.00000021       0.02411081
Pt       7.01803478       2.43111843      19.95723423        4       0.00275666       0.00455573       0.02160707
Pt       2.80721408       4.86223724      19.95723395        4      -0.00532573       0.00011097       0.02162301
Pt       5.61442803       4.86223730      19.95723413        4       0.00533721       0.00145483       0.02178804
Pt       8.42164138       4.86223726      19.95723427        4       0.00000113      -0.00000067      -0.04329363
Pt       1.40360728       0.81037260      22.29206790        3      -0.00079820      -0.00246448      -0.04598338
Pt       4.21082128       0.81037250      22.29206784        3       0.00299779      -0.00093784      -0.07526051
Pt       7.01803477       0.81037260      22.29206779        3       0.00247793       0.00056785      -0.04593698
Pt       2.80721450       3.24149125      22.29206775        3      -0.00235717      -0.00216081      -0.07516289
Pt       5.61442762       3.24149123      22.29206790        3      -0.00065037       0.00309594      -0.07511155
Pt       8.42164156       3.24149116      22.29206805        3      -0.00030916       0.02655866      -0.08283899
Pt       4.21082094       5.67260998      22.29206797        3      -0.00168376       0.00188344      -0.04589446
Pt       7.01803488       5.67261038      22.29206774        3       0.02318207      -0.01305444      -0.08287738
Pt       9.82524823       5.67261061      22.29206804        3      -0.02286736      -0.01353835      -0.08288720
Pt      -0.00000056       1.62074572      24.58417389        2      -0.00444726      -0.16014522       0.24903925
Pt       2.80721443       1.62074548      24.58417398        2       0.00618317       0.00707791       0.00712871
Pt       5.61442779       1.62074532      24.58417370        2      -0.00928196       0.00186189       0.00707171
Pt       1.40360636       4.05186439      24.58417390        2      -0.04206564       0.02426462      -0.07998339
Pt       4.21082088       4.05186401      24.58417381        2       0.00306939      -0.00890660       0.00687089
Pt       7.01803503       4.05186407      24.58417407        2       0.04207754       0.02435036      -0.08009896
Pt       2.80721279       6.48298345      24.58417372        2       0.14092080       0.07625492       0.24901737
Pt       5.61442797       6.48298324      24.58417392        2      -0.13644820       0.08394876       0.24896888
Pt       8.42164222       6.48298343      24.58417383        2      -0.00000681      -0.04854681      -0.07984143
Pt       0.00000138       0.00009487      26.99527951        1       0.00000767      -0.00005874       0.00441589
Pt       2.82977571      -0.00077354      26.90621968        1      -0.01893941       0.00548981      -0.00734440
Pt       5.59206955       0.00047553      26.90575911        1       0.01277739       0.00496049      -0.00329751
Pt       1.41521235       2.45029613      26.90575928        1      -0.00216071      -0.01360461      -0.00323907
Pt       4.21082152       2.43112821      26.92895394        1       0.00000182       0.00002633      -0.01201914
Pt       7.00742724       2.45108006      26.90621932        1       0.00478286      -0.01911957      -0.00733929
Pt       2.79526323       4.84312136      26.90622368        1       0.01416047       0.01370297      -0.00735244
Pt       5.62517649       4.84265408      26.90573986        1      -0.01062362       0.00870231      -0.00328282
Pt       8.42163868       4.86225544      26.92403175        1      -0.00000482       0.00002926       0.00425531
N       -0.00000140      -0.00000612      29.15362855        0       0.00007444      -0.00001125      -0.01625881
H        0.48776685       0.84036124      29.49083053        0      -0.02126816      -0.03793611       0.00145905
H        0.48396657      -0.84273532      29.49040151        0      -0.02226060       0.03744161       0.00216635
H       -0.97173819       0.00213590      29.49061257        0       0.04345836       0.00027980       0.00183940
