40
Lattice="8.421641763931781 0.0 0.0 4.2108208819658905 7.293355709136913 0.0 0.0 0.0 46.87624170604845" Properties=species:S:1:pos:R:3:tags:I:1:forces:R:3 charge=0 spin=0 energy=-206.42587734183434 free_energy=-206.42587734183434 stress="0.01052666362375021 1.2469824639538274e-07 -3.1017627861729125e-06 1.2469824639538274e-07 0.010519661009311676 -1.7502627542853588e-06 -3.1017627861729125e-06 -1.7502627542853588e-06 -3.08346061501652e-05" pbc="T T T"
Pt      -0.00000005       0.00000022      19.95723419        4       0.00022485       0.00005721       0.01765971
Pt       2.80721406      -0.00000018      19.95723436        4       0.00000389      -0.00037924       0.01839808
Pt       5.61442778      -0.00000006      19.95723442        4      -0.00002627      -0.00028971       0.01886426
Pt       1.40360717       2.43111838      19.95723425        4       0.00016919       0.00048501       0.01865188
Pt       4.21082080       2.43111835      19.95723435        4      -0.00033895       0.00000660       0.01892766
Pt       7.01803478       2.43111843      19.95723423        4       0.00016250      -0.00004473       0.01850003
Pt       2.80721408       4.86223724      19.95723395        4      -0.00048959       0.00000821       0.01830133
Pt       5.61442803       4.86223730      19.95723413        4      -0.00013662      -0.00031125       0.01762264
Pt       8.42164138       4.86223726      19.95723427        4       0.00024898      -0.00048524       0.01856505
Pt       1.40360728       0.81037260      22.29206790        3       0.00012137       0.00003724      -0.05093236
Pt       4.21082128       0.81037250      22.29206784        3       0.00014455      -0.00029289      -0.05302539
Pt       7.01803477       0.81037260      22.29206779        3      -0.00141158       0.00044971      -0.05362466
Pt       2.80721450       3.24149125      22.29206775        3       0.00030326      -0.00154144      -0.05146717
Pt       5.61442762       3.24149123      22.29206790        3      -0.00112287      -0.00169030      -0.05403242
Pt       8.42164156       3.24149116      22.29206805        3      -0.00118106      -0.00066673      -0.05324818
Pt       4.21082094       5.67260998      22.29206797        3      -0.00102480      -0.00095441      -0.04593608
Pt       7.01803488       5.67261038      22.29206774        3       0.00125021      -0.00010768      -0.05028878
Pt       9.82524823       5.67261061      22.29206804        3      -0.00004895       0.00049870      -0.05164983
Pt      -0.00000056       1.62074572      24.58417389        2       0.01017211      -0.00545500       0.04365212
Pt       2.80721443       1.62074548      24.58417398        2      -0.00300769       0.00710418       0.03734801
Pt       5.61442779       1.62074532      24.58417370        2      -0.00139926       0.00198756       0.02559937
Pt       1.40360636       4.05186439      24.58417390        2       0.00349482       0.00238291       0.05767668
Pt       4.21082088       4.05186401      24.58417381        2      -0.00100982       0.00543541       0.05212916
Pt       7.01803503       4.05186407      24.58417407        2      -0.00053262       0.01589971       0.04479749
Pt       2.80721279       6.48298345      24.58417372        2       0.00435968      -0.00333231       0.05020605
Pt       5.61442797       6.48298324      24.58417392        2      -0.00957712      -0.00553849       0.03737921
Pt       8.42164222       6.48298343      24.58417383        2       0.00555974      -0.00662057       0.03798991
Pt      -0.00093646       0.00035918      26.92029322        1       0.00838308       0.00421190      -0.02108771
Pt       2.80585823       0.00069214      26.91118726        1       0.00097140       0.00107284       0.01649020
Pt       5.61501564       0.00206353      26.91631855        1       0.00434098      -0.01103376      -0.00152686
Pt       1.40612975       2.43384211      26.92063527        1      -0.00841249      -0.00444605      -0.01985864
Pt       4.21268057       2.43268198      26.91701244        1      -0.00751276       0.00796269      -0.00336774
Pt       7.02209624       2.43437144      26.91113147        1      -0.00536401      -0.00472385       0.01797866
Pt       2.80789658       4.86351196      26.92259053        1       0.00036287       0.00019770      -0.02795631
Pt       5.61391587       4.86292532      26.92127067        1       0.00808372       0.00393295      -0.02418106
Pt       8.42401278       4.86444796      26.92142035        1      -0.00831033      -0.00513702      -0.02253117
N        4.90100380       1.20246544      30.84410087        0       0.00751407       0.00364940       0.00907580
H        4.92311156       0.27024980      30.41058194        0      -0.01217891       0.00599120      -0.00444551
H        4.09855365       1.69790663      30.43410819        0       0.00272896      -0.01309299      -0.00573434
H        5.74324550       1.69380210      30.51827169        0       0.00448544       0.00477227      -0.00091926
