40
Lattice="8.421641763931781 0.0 0.0 4.2108208819658905 7.293355709136913 0.0 0.0 0.0 46.87624170604845" Properties=species:S:1:pos:R:3:tags:I:1:forces:R:3 charge=0 spin=0 energy=-206.42297054251793 free_energy=-206.42297054251793 stress="0.010540529154241085 1.8084425619235844e-06 -3.784037119203276e-07 1.8084425619235844e-06 0.01055817399173975 -6.160040356917307e-06 -3.784037119203276e-07 -6.160040356917307e-06 -1.4561323951056693e-06" pbc="T T T"
Pt      -0.00000005       0.00000022      19.95723419        4       0.00033552       0.00050156       0.01854422
Pt       2.80721406      -0.00000018      19.95723436        4       0.00020032       0.00028857       0.01845364
Pt       5.61442778      -0.00000006      19.95723442        4      -0.00011155       0.00039848       0.01854193
Pt       1.40360717       2.43111838      19.95723425        4      -0.00054942       0.00048031       0.01834605
Pt       4.21082080       2.43111835      19.95723435        4      -0.00018994      -0.00004261       0.01890323
Pt       7.01803478       2.43111843      19.95723423        4       0.00046549       0.00014288       0.01845627
Pt       2.80721408       4.86223724      19.95723395        4      -0.00053302       0.00049528       0.01779088
Pt       5.61442803       4.86223730      19.95723413        4       0.00018387       0.00007557       0.01780027
Pt       8.42164138       4.86223726      19.95723427        4      -0.00026204       0.00047891       0.01861379
Pt       1.40360728       0.81037260      22.29206790        3       0.00065270       0.00123458      -0.05238737
Pt       4.21082128       0.81037250      22.29206784        3      -0.00031203       0.00181431      -0.05125987
Pt       7.01803477       0.81037260      22.29206779        3      -0.00083831       0.00173506      -0.05164809
Pt       2.80721450       3.24149125      22.29206775        3       0.00035898       0.00036711      -0.05395687
Pt       5.61442762       3.24149123      22.29206790        3      -0.00095207       0.00051395      -0.05391366
Pt       8.42164156       3.24149116      22.29206805        3       0.00011376       0.00224404      -0.05219024
Pt       4.21082094       5.67260998      22.29206797        3       0.00011736       0.00076724      -0.04714138
Pt       7.01803488       5.67261038      22.29206774        3       0.00068929       0.00201349      -0.05117168
Pt       9.82524823       5.67261061      22.29206804        3       0.00002584       0.00244741      -0.05137466
Pt      -0.00000056       1.62074572      24.58417389        2      -0.00181354      -0.01719690       0.04881338
Pt       2.80721443       1.62074548      24.58417398        2       0.00267038      -0.00383093       0.03183028
Pt       5.61442779       1.62074532      24.58417370        2      -0.00321190      -0.00128289       0.03299637
Pt       1.40360636       4.05186439      24.58417390        2      -0.00250413       0.00123018       0.05271392
Pt       4.21082088       4.05186401      24.58417381        2       0.00064906       0.00416662       0.05464145
Pt       7.01803503       4.05186407      24.58417407        2       0.00389396       0.00345486       0.05479532
Pt       2.80721279       6.48298345      24.58417372        2       0.00646447      -0.00328107       0.05026367
Pt       5.61442797       6.48298324      24.58417392        2      -0.00729165      -0.00554893       0.05025092
Pt       8.42164222       6.48298343      24.58417383        2       0.00205467      -0.01546567       0.03740763
Pt       0.00012468      -0.01017767      26.92457945        1       0.00019854       0.01821660      -0.04392316
Pt       2.80956820      -0.00507658      26.91555623        1      -0.01951434      -0.00011491       0.00695013
Pt       5.61203220      -0.00414360      26.91601925        1       0.01869748      -0.00583887       0.00453222
Pt       1.40474089       2.42270789      26.91310883        1      -0.01034805       0.01938740       0.00814635
Pt       4.21068327       2.42843094      26.91835980        1       0.00271218       0.00660474      -0.01286932
Pt       7.01732163       2.42278601      26.91374476        1       0.01038812       0.01760184       0.00566502
Pt       2.80314819       4.85894363      26.91938324        1       0.02088998      -0.01242860      -0.01620604
Pt       5.61883468       4.85822770      26.92036570        1      -0.02124035      -0.00937621      -0.01975372
Pt       8.42196193       4.85761511      26.92590898        1      -0.00228605      -0.01303140      -0.04068515
N        4.21316263       0.35726228      30.99187269        0      -0.00176559       0.01877633      -0.01821339
H        3.39459800       0.89352530      30.67300498        0       0.03312934      -0.00722884       0.00495959
H        5.04191802       0.88700536      30.68881258        0      -0.03247413      -0.00805019       0.00332299
H        4.21468055      -0.51324236      30.44385782        0       0.00130671      -0.00271920       0.00395514
