40
Lattice="8.421641763931781 0.0 0.0 4.2108208819658905 7.293355709136913 0.0 0.0 0.0 46.87624170604845" Properties=species:S:1:pos:R:3:tags:I:1:forces:R:3 charge=0 spin=0 energy=-206.4255969615853 free_energy=-206.4255969615853 stress="0.010524597018957138 -1.1137575711472891e-05 -3.700267598105711e-06 -1.1137575711472891e-05 0.01052104588598013 1.839193686237195e-07 -3.700267598105711e-06 1.839193686237195e-07 -3.270186061854474e-05" pbc="T T T"
Pt      -0.00000005       0.00000022      19.95723419        4       0.00050988      -0.00045373       0.01885141
Pt       2.80721406      -0.00000018      19.95723436        4       0.00057681      -0.00003161       0.01843561
Pt       5.61442778      -0.00000006      19.95723442        4       0.00071282      -0.00023135       0.01766431
Pt       1.40360717       2.43111838      19.95723425        4       0.00053784      -0.00004648       0.01890648
Pt       4.21082080       2.43111835      19.95723435        4       0.00053260       0.00022852       0.01861946
Pt       7.01803478       2.43111843      19.95723423        4       0.00036895      -0.00005308       0.01849333
Pt       2.80721408       4.86223724      19.95723395        4       0.00044260      -0.00066105       0.01828284
Pt       5.61442803       4.86223730      19.95723413        4      -0.00014057      -0.00019478       0.01868012
Pt       8.42164138       4.86223726      19.95723427        4       0.00024585       0.00000500       0.01755243
Pt       1.40360728       0.81037260      22.29206790        3       0.00118419      -0.00058467      -0.05208687
Pt       4.21082128       0.81037250      22.29206784        3       0.00053608       0.00045616      -0.05085260
Pt       7.01803477       0.81037260      22.29206779        3       0.00309209      -0.00091843      -0.05344389
Pt       2.80721450       3.24149125      22.29206775        3       0.00089479      -0.00102128      -0.05183733
Pt       5.61442762       3.24149123      22.29206790        3       0.00215597      -0.00164745      -0.05400613
Pt       8.42164156       3.24149116      22.29206805        3       0.00109700      -0.00196977      -0.05359574
Pt       4.21082094       5.67260998      22.29206797        3       0.00211969      -0.00003068      -0.05176915
Pt       7.01803488       5.67261038      22.29206774        3       0.00125727      -0.00109527      -0.05090458
Pt       9.82524823       5.67261061      22.29206804        3       0.00247461      -0.00150410      -0.04572701
Pt      -0.00000056       1.62074572      24.58417389        2      -0.00252154       0.00161831       0.02404715
Pt       2.80721443       1.62074548      24.58417398        2      -0.00178168       0.01000554       0.03773343
Pt       5.61442779       1.62074532      24.58417370        2      -0.01601085      -0.00718854       0.04380442
Pt       1.40360636       4.05186439      24.58417390        2      -0.00280827       0.00712020       0.05211886
Pt       4.21082088       4.05186401      24.58417381        2      -0.00780818       0.00523769       0.05732010
Pt       7.01803503       4.05186407      24.58417407        2      -0.00307889       0.01476726       0.04362637
Pt       2.80721279       6.48298345      24.58417372        2      -0.00879787      -0.00230104       0.05161526
Pt       5.61442797       6.48298324      24.58417392        2      -0.00652486      -0.00382076       0.03575536
Pt       8.42164222       6.48298343      24.58417383        2       0.00589886      -0.00282585       0.03987531
Pt      -0.00684927       0.00405802      26.91578438        1      -0.00168063      -0.01265067       0.00158997
Pt       2.80268349       0.00196430      26.91183445        1       0.00195944      -0.00268842       0.01460017
Pt       5.60935326       0.00260515      26.92193147        1      -0.00598953       0.00297558      -0.02611246
Pt       1.39705224       2.43372648      26.91732361        1       0.00967551       0.00936061      -0.00470385
Pt       4.20325085       2.43529882      26.92006207        1       0.00990579      -0.00466829      -0.01908264
Pt       7.00950799       2.43632346      26.91081940        1       0.00463021      -0.00323500       0.01869301
Pt       2.80066529       4.86502354      26.92305918        1       0.00293927       0.00035803      -0.02898887
Pt       5.60659709       4.86684785      26.92030722        1       0.00867305      -0.00750050      -0.01861619
Pt       8.41740588       4.86476026      26.92079294        1      -0.00571600       0.00454968      -0.02294883
N        0.69122388       1.21148567      30.84000914        0       0.00688708       0.00581541       0.01389962
H        1.64746268       1.21857304      30.46255803        0       0.00480419      -0.00630726      -0.00412525
H        0.21890764       0.39879913      30.42318008        0      -0.00155197       0.00836800      -0.00575976
H        0.22470469       2.04688125      30.46380348        0      -0.00970173      -0.00723594      -0.00560377
