40
Lattice="8.421641763931781 0.0 0.0 4.2108208819658905 7.293355709136913 0.0 0.0 0.0 46.87624170604845" Properties=species:S:1:pos:R:3:tags:I:1:forces:R:3 charge=0 spin=0 energy=-206.99281955680016 free_energy=-206.99281955680016 stress="0.010041461326181889 -8.39976550537358e-08 -1.1150651957336777e-08 -8.39976550537358e-08 0.01004148367792368 -3.2551450424023187e-09 -1.1150651957336777e-08 -3.2551450424023187e-09 -0.00017480109818279743" pbc="T T T"
Pt      -0.00000005       0.00000022      19.95723419        4       0.00000289      -0.00000089       0.01857310
Pt       2.80721406      -0.00000018      19.95723436        4       0.00248893      -0.00435767       0.02149856
Pt       5.61442778      -0.00000006      19.95723442        4      -0.00140852      -0.00510514       0.02216815
Pt       1.40360717       2.43111838      19.95723425        4      -0.00371514       0.00377080       0.02212367
Pt       4.21082080       2.43111835      19.95723435        4       0.00000119       0.00000150       0.02436751
Pt       7.01803478       2.43111843      19.95723423        4       0.00252460       0.00433729       0.02150779
Pt       2.80721408       4.86223724      19.95723395        4      -0.00501582       0.00002026       0.02152515
Pt       5.61442803       4.86223730      19.95723413        4       0.00512024       0.00133637       0.02215386
Pt       8.42164138       4.86223726      19.95723427        4       0.00000093      -0.00000362      -0.04318867
Pt       1.40360728       0.81037260      22.29206790        3      -0.00073173      -0.00308307      -0.04528708
Pt       4.21082128       0.81037250      22.29206784        3       0.00199638      -0.00068506      -0.07438386
Pt       7.01803477       0.81037260      22.29206779        3       0.00299117       0.00094598      -0.04524801
Pt       2.80721450       3.24149125      22.29206775        3      -0.00164058      -0.00141129      -0.07428464
Pt       5.61442762       3.24149123      22.29206790        3      -0.00036507       0.00210725      -0.07423396
Pt       8.42164156       3.24149116      22.29206805        3      -0.00149247       0.02584566      -0.08390129
Pt       4.21082094       5.67260998      22.29206797        3      -0.00226292       0.00214657      -0.04519173
Pt       7.01803488       5.67261038      22.29206774        3       0.02315294      -0.01165802      -0.08393741
Pt       9.82524823       5.67261061      22.29206804        3      -0.02165271      -0.01419763      -0.08395248
Pt      -0.00000056       1.62074572      24.58417389        2      -0.00462842      -0.15921333       0.24151957
Pt       2.80721443       1.62074548      24.58417398        2       0.00705600       0.00868698       0.01800003
Pt       5.61442779       1.62074532      24.58417370        2      -0.01110445       0.00180296       0.01794199
Pt       1.40360636       4.05186439      24.58417390        2      -0.03956375       0.01976277      -0.06712280
Pt       4.21082088       4.05186401      24.58417381        2       0.00405082      -0.01047038       0.01776771
Pt       7.01803503       4.05186407      24.58417407        2       0.03694658       0.02438355      -0.06721308
Pt       2.80721279       6.48298345      24.58417372        2       0.14019312       0.07560398       0.24152350
Pt       5.61442797       6.48298324      24.58417392        2      -0.13554691       0.08360609       0.24149336
Pt       8.42164222       6.48298343      24.58417383        2       0.00260154      -0.04415897      -0.06696878
Pt       0.00000085      -0.00000125      26.99524092        1      -0.00000094       0.00000082       0.03443223
Pt       2.82492167      -0.00203798      26.90784094        1       0.02422608       0.01461987      -0.01244244
Pt       5.59722294      -0.00148373      26.90707848        1      -0.02551171       0.01521161      -0.01262714
Pt       1.41092972       2.44675985      26.90707966        1       0.02594319       0.01448344      -0.01257495
Pt       4.21082451       2.43111987      26.92918779        1       0.00000132      -0.00000459      -0.01948203
Pt       7.01095661       2.44747243      26.90784329        1      -0.02477416       0.01367349      -0.01245909
Pt       2.79658507       4.84792159      26.90783737        1       0.00054604      -0.02828948      -0.01242470
Pt       5.62431231       4.84807978      26.90707501        1      -0.00043476      -0.02970755      -0.01268420
Pt       8.42163878       4.86223716      26.92455814        1       0.00000463       0.00000186      -0.00622740
N       -0.00000040      -0.00000050      29.15768964        0      -0.00003845       0.00002750      -0.03577482
H       -0.84113618       0.48657467      29.49438102        0       0.03813021      -0.02206256       0.00165749
H        0.84195475       0.48515688      29.49437968        0      -0.03813110      -0.02197371       0.00167672
H       -0.00081786      -0.97173337      29.49437898        0       0.00004069       0.04400659       0.00168016
