40
Lattice="8.421641763931781 0.0 0.0 4.2108208819658905 7.293355709136913 0.0 0.0 0.0 46.87624170604845" Properties=species:S:1:pos:R:3:tags:I:1:forces:R:3 charge=0 spin=0 energy=-206.42591358145836 free_energy=-206.42591358145836 stress="0.01047236006706953 -6.707441713160733e-08 -1.076770850261255e-08 -6.707441713160733e-08 0.01047244481742382 -3.857015329344904e-08 -1.076770850261255e-08 -3.857015329344904e-08 -0.00011251984687987715" pbc="T T T"
Pt      -0.00000005       0.00000022      19.95723419        4       0.00033797       0.00063498       0.01853116
Pt       2.80721406      -0.00000018      19.95723436        4       0.00014662      -0.00010800       0.01872968
Pt       5.61442778      -0.00000006      19.95723442        4      -0.00017499      -0.00006570       0.01871524
Pt       1.40360717       2.43111838      19.95723425        4      -0.00071501      -0.00002557       0.01853791
Pt       4.21082080       2.43111835      19.95723435        4      -0.00023311       0.00014186       0.01782722
Pt       7.01803478       2.43111843      19.95723423        4       0.00037874      -0.00060395       0.01853326
Pt       2.80721408       4.86223724      19.95723395        4       0.00023900       0.00013035       0.01782995
Pt       5.61442803       4.86223730      19.95723413        4      -0.00000534      -0.00027195       0.01783119
Pt       8.42164138       4.86223726      19.95723427        4       0.00002608       0.00018234       0.01873305
Pt       1.40360728       0.81037260      22.29206790        3       0.00026534      -0.00077581      -0.05213674
Pt       4.21082128       0.81037250      22.29206784        3      -0.00039158      -0.00051091      -0.05214839
Pt       7.01803477       0.81037260      22.29206779        3      -0.00081266       0.00017001      -0.05214734
Pt       2.80721450       3.24149125      22.29206775        3      -0.00068742      -0.00033695      -0.05024425
Pt       5.61442762       3.24149123      22.29206790        3       0.00063775      -0.00041676      -0.05025208
Pt       8.42164156       3.24149116      22.29206805        3       0.00055246       0.00063355      -0.05212753
Pt       4.21082094       5.67260998      22.29206797        3       0.00004344       0.00077704      -0.05025537
Pt       7.01803488       5.67261038      22.29206774        3       0.00064586      -0.00006708      -0.05214540
Pt       9.82524823       5.67261061      22.29206804        3      -0.00024878       0.00059273      -0.05215203
Pt      -0.00000056       1.62074572      24.58417389        2      -0.00000214      -0.00000835       0.04672281
Pt       2.80721443       1.62074548      24.58417398        2      -0.00178643      -0.00117054       0.02929770
Pt       5.61442779       1.62074532      24.58417370        2       0.00072746       0.00158167       0.03292202
Pt       1.40360636       4.05186439      24.58417390        2       0.00104071      -0.00146949       0.03289824
Pt       4.21082088       4.05186401      24.58417381        2       0.00000294      -0.00003132       0.02686413
Pt       7.01803503       4.05186407      24.58417407        2       0.00185906      -0.00100745       0.02924618
Pt       2.80721279       6.48298345      24.58417372        2      -0.00008507       0.00210502       0.02926404
Pt       5.61442797       6.48298324      24.58417392        2      -0.00175336      -0.00018129       0.03288254
Pt       8.42164222       6.48298343      24.58417383        2      -0.00001247      -0.00001912       0.03404097
Pt      -0.00162191      -0.00204241      26.91641109        1       0.00696497       0.01373798      -0.00423593
Pt       2.80473813       0.00133401      26.91630946        1       0.01011771      -0.00691002      -0.00375588
Pt       5.61684327       0.00143416      26.91630635        1      -0.01104132      -0.00532277      -0.00372544
Pt       1.40616037       2.43069330      26.91642464        1      -0.01537473      -0.00083430      -0.00412505
Pt       4.20983524       2.42940829      26.91423142        1       0.00692391       0.00911748       0.00654150
Pt       7.01709878       2.43349923      26.91642518        1       0.00841925      -0.01284848      -0.00408373
Pt       2.80624757       4.86390149      26.91421701        1       0.00446213      -0.01056098       0.00645679
Pt       5.61637413       4.86219782      26.91421993        1      -0.01137665       0.00146012       0.00646917
Pt       8.42169738       4.85938099      26.91629845        1       0.00091089       0.01227962      -0.00366237
N        8.42170456       6.48279429      30.84166896        0       0.00006714       0.00012216      -0.03300424
H        7.48460869       6.33215905      30.44469468        0      -0.00155458       0.00114977       0.01375316
H        8.75936936       7.37020965      30.44555621        0       0.00203753       0.00066777       0.01377816
H        9.02099655       5.74719546      30.44394969        0      -0.00055097      -0.00193744       0.01379553
