40
Lattice="8.421641763931781 0.0 0.0 4.2108208819658905 7.293355709136913 0.0 0.0 0.0 46.87624170604845" Properties=species:S:1:pos:R:3:tags:I:1:forces:R:3 charge=0 spin=0 energy=-206.42799831351402 free_energy=-206.42799831351402 stress="0.010533954948186874 -1.0738364863982497e-08 -6.5102900848046374e-09 -1.0738364863982497e-08 0.010534022003412247 2.6387295903873564e-08 -6.5102900848046374e-09 2.6387295903873564e-08 1.73656389961252e-05" pbc="T T T"
Pt      -0.00000005       0.00000022      19.95723419        4       0.00046168      -0.00051995       0.01852054
Pt       2.80721406      -0.00000018      19.95723436        4      -0.00068043      -0.00013753       0.01852416
Pt       5.61442778      -0.00000006      19.95723442        4      -0.00014934      -0.00012754       0.01793025
Pt       1.40360717       2.43111838      19.95723425        4      -0.00002343       0.00007730       0.01880919
Pt       4.21082080       2.43111835      19.95723435        4      -0.00003935       0.00019367       0.01794437
Pt       7.01803478       2.43111843      19.95723423        4       0.00018669      -0.00005991       0.01794554
Pt       2.80721408       4.86223724      19.95723395        4      -0.00005662      -0.00006218       0.01879785
Pt       5.61442803       4.86223730      19.95723413        4       0.00021693       0.00065718       0.01851922
Pt       8.42164138       4.86223726      19.95723427        4       0.00008172      -0.00002035       0.01880154
Pt       1.40360728       0.81037260      22.29206790        3       0.00035819       0.00098986      -0.05069692
Pt       4.21082128       0.81037250      22.29206784        3       0.00012080      -0.00007260      -0.05149990
Pt       7.01803477       0.81037260      22.29206779        3       0.00000278       0.00015167      -0.05150567
Pt       2.80721450       3.24149125      22.29206775        3       0.00000179       0.00047636      -0.05289057
Pt       5.61442762       3.24149123      22.29206790        3      -0.00012755      -0.00006196      -0.05152347
Pt       8.42164156       3.24149116      22.29206805        3       0.00040435      -0.00022902      -0.05288742
Pt       4.21082094       5.67260998      22.29206797        3      -0.00103906      -0.00017278      -0.05072498
Pt       7.01803488       5.67261038      22.29206774        3       0.00066693      -0.00080567      -0.05071288
Pt       9.82524823       5.67261061      22.29206804        3      -0.00040647      -0.00023639      -0.05289235
Pt      -0.00000056       1.62074572      24.58417389        2       0.00570928      -0.00074543       0.05139193
Pt       2.80721443       1.62074548      24.58417398        2      -0.00397650      -0.00126346       0.05010550
Pt       5.61442779       1.62074532      24.58417370        2       0.00000464      -0.00000439       0.03818795
Pt       1.40360636       4.05186439      24.58417390        2       0.00000557      -0.00001538       0.05889585
Pt       4.21082088       4.05186401      24.58417381        2      -0.00220888       0.00532170       0.05138919
Pt       7.01803503       4.05186407      24.58417407        2       0.00089431       0.00408605       0.05005099
Pt       2.80721279       6.48298345      24.58417372        2       0.00308772      -0.00281950       0.05008625
Pt       5.61442797       6.48298324      24.58417392        2       0.00000058       0.00002573       0.05526668
Pt       8.42164222       6.48298343      24.58417383        2      -0.00350054      -0.00457194       0.05141508
Pt       0.00025449      -0.00008881      26.92004301        1      -0.00157724       0.00021509      -0.02000821
Pt       2.80701233      -0.00018139      26.92005028        1       0.00096313       0.00127989      -0.02008404
Pt       5.61476072      -0.00209752      26.91590171        1       0.00009829       0.00950858      -0.00464706
Pt       1.40357718       2.42959352      26.92323483        1      -0.00140883       0.00737809      -0.03104516
Pt       4.20884075       2.43186838      26.91588952        1       0.00819664      -0.00483061      -0.00470495
Pt       7.01968108       2.43244858      26.91588730        1      -0.00829303      -0.00466611      -0.00466595
Pt       2.80854712       4.86297227      26.92322145        1      -0.00567349      -0.00494433      -0.03110386
Pt       5.61437356       4.86249585      26.92002243        1       0.00062124      -0.00148163      -0.02015711
Pt       8.42033711       4.86302739      26.92322422        1       0.00707937      -0.00251622      -0.03113155
N        9.82524892       4.05186576      30.88831186        0      -0.00008815      -0.00003000      -0.04654181
H       10.65598587       4.50694680      30.48719965        0       0.02460303       0.01342278       0.01892194
H        9.80399234       3.10488414      30.48719820        0      -0.00067456      -0.02793987       0.01895474
H        9.01576680       4.54376444      30.48719665        0      -0.02384217       0.01455062       0.01896496
