40
Lattice="8.421641763931781 0.0 0.0 4.2108208819658905 7.293355709136913 0.0 0.0 0.0 46.87624170604845" Properties=species:S:1:pos:R:3:tags:I:1:forces:R:3 charge=0 spin=0 energy=-206.41990352591637 free_energy=-206.41990352591637 stress="0.010436447337269783 4.501915827859193e-05 9.11309507500846e-06 4.501915827859193e-05 0.010360965505242348 5.449326181405922e-06 9.11309507500846e-06 5.449326181405922e-06 -0.0002603427565190941" pbc="T T T"
Pt      -0.00000005       0.00000022      19.95723419        4      -0.00187931      -0.00193644       0.01874119
Pt       2.80721406      -0.00000018      19.95723436        4      -0.00173584      -0.00159304       0.01860001
Pt       5.61442778      -0.00000006      19.95723442        4      -0.00185332      -0.00113086       0.01842486
Pt       1.40360717       2.43111838      19.95723425        4      -0.00200025      -0.00141526       0.01731405
Pt       4.21082080       2.43111835      19.95723435        4      -0.00171154      -0.00214743       0.01851261
Pt       7.01803478       2.43111843      19.95723423        4      -0.00261821      -0.00164819       0.01827328
Pt       2.80721408       4.86223724      19.95723395        4      -0.00152368      -0.00158055       0.01819516
Pt       5.61442803       4.86223730      19.95723413        4      -0.00227722      -0.00130298       0.01867902
Pt       8.42164138       4.86223726      19.95723427        4      -0.00158935      -0.00155042       0.01724268
Pt       1.40360728       0.81037260      22.29206790        3      -0.00997619      -0.00535266      -0.05149641
Pt       4.21082128       0.81037250      22.29206784        3      -0.00852789      -0.00484699      -0.04931738
Pt       7.01803477       0.81037260      22.29206779        3      -0.00771505      -0.00510440      -0.05386037
Pt       2.80721450       3.24149125      22.29206775        3      -0.00733162      -0.00413781      -0.05111104
Pt       5.61442762       3.24149123      22.29206790        3      -0.00704691      -0.00480565      -0.05411748
Pt       8.42164156       3.24149116      22.29206805        3      -0.01026714      -0.00618983      -0.05010873
Pt       4.21082094       5.67260998      22.29206797        3      -0.00799544      -0.00525555      -0.04907125
Pt       7.01803488       5.67261038      22.29206774        3      -0.00854270      -0.00565413      -0.05137935
Pt       9.82524823       5.67261061      22.29206804        3      -0.00754928      -0.00517027      -0.05168549
Pt      -0.00000056       1.62074572      24.58417389        2       0.02878192       0.01201772       0.00656098
Pt       2.80721443       1.62074548      24.58417398        2       0.02855965       0.01169880       0.01876652
Pt       5.61442779       1.62074532      24.58417370        2       0.01513450       0.01023333       0.02260957
Pt       1.40360636       4.05186439      24.58417390        2       0.02427415       0.01598012       0.01433073
Pt       4.21082088       4.05186401      24.58417381        2       0.02395837       0.01458780       0.01837953
Pt       7.01803503       4.05186407      24.58417407        2       0.02305901       0.02120399       0.00599144
Pt       2.80721279       6.48298345      24.58417372        2       0.02334327       0.01379456       0.01766527
Pt       5.61442797       6.48298324      24.58417392        2       0.02307312       0.01669078       0.00702931
Pt       8.42164222       6.48298343      24.58417383        2       0.02192762       0.02432258       0.01723024
Pt       0.03133144       0.02228193      26.91351909        1      -0.01729899      -0.01175826       0.01418847
Pt       2.83544864       0.01762067      26.91566119        1       0.01663412       0.01044894       0.00214658
Pt       5.64767997       0.01890235      26.91364188        1      -0.02821774       0.00255732       0.01219121
Pt       1.43850396       2.44873404      26.91039249        1      -0.02335436       0.01440800       0.02528999
Pt       4.24132151       2.45327116      26.91386356        1      -0.01064304      -0.02632888       0.01095962
Pt       7.04980980       2.45155449      26.90626060        1      -0.01322567      -0.00947113       0.04138042
Pt       2.83978159       4.88356183      26.91423015        1      -0.02705278      -0.01668208       0.00728904
Pt       5.64686929       4.88129214      26.91315329        1      -0.01851228      -0.01192741       0.01508342
Pt       8.45214841       4.88631250      26.90962903        1       0.00301095      -0.02971836       0.02749100
N        5.01471766       6.13688363      30.73419383        0      -0.00649777      -0.00411054       0.02503759
H        5.07979095       7.12557645      30.46146807        0       0.01016492       0.01516459      -0.00637119
H        5.90654718       5.69950080      30.47055327        0       0.01922815       0.00129151      -0.00660608
H        4.29553939       5.71606694      30.13255731        0      -0.02420625      -0.01358077       0.00152099
