40
Lattice="8.421641763931781 0.0 0.0 4.2108208819658905 7.293355709136913 0.0 0.0 0.0 46.87624170604845" Properties=species:S:1:pos:R:3:tags:I:1:forces:R:3 charge=0 spin=0 energy=-206.4241778942025 free_energy=-206.4241778942025 stress="0.010423627682030201 -4.541714204719938e-08 -3.234708145782861e-08 -4.541714204719938e-08 0.010423826053738594 1.0226457192175076e-07 -3.234708145782861e-08 1.0226457192175076e-07 -0.0002329715498490259" pbc="T T T"
Pt      -0.00000005       0.00000022      19.95723419        4       0.00034955      -0.00043595       0.01767760
Pt       2.80721406      -0.00000018      19.95723436        4      -0.00010443      -0.00026742       0.01850926
Pt       5.61442778      -0.00000006      19.95723442        4      -0.00055169      -0.00008029       0.01767169
Pt       1.40360717       2.43111838      19.95723425        4       0.00014111      -0.00012427       0.01865996
Pt       4.21082080       2.43111835      19.95723435        4       0.00003869       0.00018332       0.01865695
Pt       7.01803478       2.43111843      19.95723423        4       0.00020217       0.00051880       0.01768231
Pt       2.80721408       4.86223724      19.95723395        4      -0.00017802      -0.00006017       0.01865570
Pt       5.61442803       4.86223730      19.95723413        4       0.00028081       0.00004489       0.01850627
Pt       8.42164138       4.86223726      19.95723427        4      -0.00018027       0.00021909       0.01851144
Pt       1.40360728       0.81037260      22.29206790        3       0.00094011       0.00151225      -0.05151745
Pt       4.21082128       0.81037250      22.29206784        3      -0.00017594       0.00151045      -0.05228556
Pt       7.01803477       0.81037260      22.29206779        3      -0.00000169       0.00000385      -0.04671115
Pt       2.80721450       3.24149125      22.29206775        3      -0.00000843       0.00000537      -0.05368146
Pt       5.61442762       3.24149123      22.29206790        3      -0.00176960       0.00007125      -0.05153359
Pt       8.42164156       3.24149116      22.29206805        3       0.00138930      -0.00059320      -0.05229304
Pt       4.21082094       5.67260998      22.29206797        3      -0.00122344      -0.00089365      -0.05229818
Pt       7.01803488       5.67261038      22.29206774        3      -0.00000499       0.00000041      -0.05010985
Pt       9.82524823       5.67261061      22.29206804        3       0.00083319      -0.00158014      -0.05151309
Pt      -0.00000056       1.62074572      24.58417389        2      -0.00285702      -0.00242970       0.01122148
Pt       2.80721443       1.62074548      24.58417398        2       0.00022521      -0.01391299       0.00257901
Pt       5.61442779       1.62074532      24.58417370        2       0.00354979      -0.00123714       0.01124797
Pt       1.40360636       4.05186439      24.58417390        2      -0.01216156       0.00676266       0.00255690
Pt       4.21082088       4.05186401      24.58417381        2       0.01194107       0.00717227       0.00256003
Pt       7.01803503       4.05186407      24.58417407        2      -0.00147856       0.00331406       0.03535084
Pt       2.80721279       6.48298345      24.58417372        2      -0.00067090       0.00368381       0.01124062
Pt       5.61442797       6.48298324      24.58417392        2       0.00358362      -0.00035954       0.03536079
Pt       8.42164222       6.48298343      24.58417383        2      -0.00211688      -0.00292809       0.03538562
Pt      -0.00108535       0.00010681      26.91184677        1       0.01292947      -0.00449982       0.01343024
Pt       2.80694787       0.00090628      26.91714093        1      -0.00175359      -0.01816307      -0.00539148
Pt       5.61505945       0.00088928      26.91184507        1      -0.01034046      -0.00897713       0.01339029
Pt       1.40472116       2.43345773      26.90747976        1      -0.02173044      -0.01882912       0.03888976
Pt       4.20823833       2.43091903      26.90747877        1       0.02717744      -0.00939468       0.03886416
Pt       7.01848522       2.43012852      26.91184042        1      -0.00257606       0.01344101       0.01320652
Pt       2.80867807       4.86010396      26.90748290        1      -0.00544631       0.02819883       0.03897964
Pt       5.61377558       4.86155791      26.91713519        1       0.01661268       0.00755521      -0.00546485
Pt       8.42255636       4.86201867      26.91713671        1      -0.01486222       0.01056988      -0.00548762
N        2.80717508       3.24144736      30.80470572        0       0.00004761      -0.00000152      -0.02125919
H        2.07429742       3.84828768      30.41250781        0       0.02821985      -0.02172127       0.01024685
H        3.69918700       3.57273407      30.41260682        0      -0.03270775      -0.01365453       0.01026044
H        2.64812917       2.30329368      30.41258770        0       0.00443888       0.03537607       0.01024407
