40
Lattice="8.421641763931781 0.0 0.0 4.2108208819658905 7.293355709136913 0.0 0.0 0.0 46.87624170604845" Properties=species:S:1:pos:R:3:tags:I:1:forces:R:3 charge=0 spin=0 energy=-206.42383075675133 free_energy=-206.42383075675133 stress="0.010450134985148907 6.127640517661348e-06 -2.2108126813691342e-06 6.127640517661348e-06 0.01052574347704649 -1.376334603264695e-05 -2.2108126813691342e-06 -1.376334603264695e-05 -0.00010025990923168138" pbc="T T T"
Pt      -0.00000005       0.00000022      19.95723419        4       0.00014911       0.00232175       0.01718409
Pt       2.80721406      -0.00000018      19.95723436        4      -0.00074736       0.00186187       0.01718025
Pt       5.61442778      -0.00000006      19.95723442        4      -0.00039274       0.00203511       0.01874993
Pt       1.40360717       2.43111838      19.95723425        4       0.00011344       0.00222056       0.01844846
Pt       4.21082080       2.43111835      19.95723435        4      -0.00001545       0.00207580       0.01882800
Pt       7.01803478       2.43111843      19.95723423        4      -0.00037482       0.00214419       0.01887684
Pt       2.80721408       4.86223724      19.95723395        4      -0.00076818       0.00193841       0.01854609
Pt       5.61442803       4.86223730      19.95723413        4      -0.00045829       0.00204228       0.01860493
Pt       8.42164138       4.86223726      19.95723427        4       0.00015473       0.00164832       0.01855525
Pt       1.40360728       0.81037260      22.29206790        3       0.00017001       0.00942727      -0.04582274
Pt       4.21082128       0.81037250      22.29206784        3       0.00074584       0.00815840      -0.05257380
Pt       7.01803477       0.81037260      22.29206779        3       0.00011595       0.00906990      -0.05299506
Pt       2.80721450       3.24149125      22.29206775        3      -0.00006192       0.00731709      -0.05350748
Pt       5.61442762       3.24149123      22.29206790        3      -0.00010617       0.00762935      -0.04893194
Pt       8.42164156       3.24149116      22.29206805        3      -0.00048308       0.00802411      -0.05313313
Pt       4.21082094       5.67260998      22.29206797        3      -0.00023921       0.00702513      -0.05207466
Pt       7.01803488       5.67261038      22.29206774        3      -0.00002046       0.00777098      -0.05253240
Pt       9.82524823       5.67261061      22.29206804        3       0.00053081       0.00850082      -0.05233778
Pt      -0.00000056       1.62074572      24.58417389        2       0.00205437      -0.02153626       0.03738505
Pt       2.80721443       1.62074548      24.58417398        2      -0.00154279      -0.02179601       0.03644712
Pt       5.61442779       1.62074532      24.58417370        2       0.00086082      -0.02106671       0.03505610
Pt       1.40360636       4.05186439      24.58417390        2      -0.00037198      -0.02695410       0.04231381
Pt       4.21082088       4.05186401      24.58417381        2       0.00271609      -0.02685206       0.03437042
Pt       7.01803503       4.05186407      24.58417407        2      -0.00380160      -0.02505651       0.03328238
Pt       2.80721279       6.48298345      24.58417372        2       0.00238240      -0.02287132       0.02963853
Pt       5.61442797       6.48298324      24.58417392        2       0.00054779      -0.01953561       0.03196607
Pt       8.42164222       6.48298343      24.58417383        2       0.00035470      -0.02278059       0.02952352
Pt      -0.00250817      -0.03188610      26.91586953        1       0.01672838       0.01083216       0.00301040
Pt       2.80995539      -0.03102336      26.91538255        1      -0.01711622       0.00854450       0.00429358
Pt       5.61425316      -0.03328234      26.91647911        1      -0.00045809       0.01706447      -0.00572666
Pt       1.40385295       2.39886152      26.91930228        1      -0.00098201       0.01505604      -0.01461160
Pt       4.20738602       2.39906418      26.91747692        1       0.01753793       0.01920744      -0.00558841
Pt       7.02176181       2.39883858      26.91721334        1      -0.01760268       0.01630114      -0.00542250
Pt       2.80969436       4.83062993      26.91482442        1      -0.01166989       0.01208925       0.00567653
Pt       5.61511344       4.83325460      26.91681193        1      -0.00034835       0.00304505      -0.00754391
Pt       8.41978740       4.83012049      26.91474620        1       0.01234144       0.01240305       0.00620051
N        5.61870995       2.43573379      30.73449694        0       0.00010749       0.01076650      -0.03852326
H        6.44140451       1.96521450      30.33384311        0      -0.02619734      -0.01664656       0.01394811
H        4.79148717       1.96315123      30.34578972        0       0.02675103      -0.01538056       0.01269703
H        5.61488155       3.38660401      30.34314497        0      -0.00060369       0.02395540       0.02054222
