40
Lattice="8.421641763931781 0.0 0.0 4.2108208819658905 7.293355709136913 0.0 0.0 0.0 46.87624170604845" Properties=species:S:1:pos:R:3:tags:I:1:forces:R:3 charge=0 spin=0 energy=-206.42467952689293 free_energy=-206.42467952689293 stress="0.010460494086146355 -7.197336060471571e-08 1.0170486675065149e-08 -7.197336060471571e-08 0.01046042051166296 8.771216641889623e-09 1.0170486675065149e-08 8.771216641889623e-09 -0.00015497296408284456" pbc="T T T"
Pt      -0.00000005       0.00000022      19.95723419        4      -0.00029789      -0.00018224       0.01769781
Pt       2.80721406      -0.00000018      19.95723436        4      -0.00015703      -0.00055422       0.01845657
Pt       5.61442778      -0.00000006      19.95723442        4      -0.00000793       0.00035312       0.01769075
Pt       1.40360717       2.43111838      19.95723425        4       0.00005685      -0.00008964       0.01892942
Pt       4.21082080       2.43111835      19.95723435        4       0.00005032       0.00009287       0.01892482
Pt       7.01803478       2.43111843      19.95723423        4       0.00030584      -0.00016869       0.01769571
Pt       2.80721408       4.86223724      19.95723395        4      -0.00010544      -0.00000747       0.01892529
Pt       5.61442803       4.86223730      19.95723413        4       0.00055587       0.00014063       0.01844942
Pt       8.42164138       4.86223726      19.95723427        4      -0.00040250       0.00040802       0.01845430
Pt       1.40360728       0.81037260      22.29206790        3       0.00069970       0.00079627      -0.05300799
Pt       4.21082128       0.81037250      22.29206784        3      -0.00007486       0.00122795      -0.05328038
Pt       7.01803477       0.81037260      22.29206779        3       0.00000088       0.00000332      -0.04381241
Pt       2.80721450       3.24149125      22.29206775        3      -0.00000942      -0.00000074      -0.05023785
Pt       5.61442762       3.24149123      22.29206790        3      -0.00103429       0.00020783      -0.05303144
Pt       8.42164156       3.24149116      22.29206805        3       0.00109730      -0.00054732      -0.05329165
Pt       4.21082094       5.67260998      22.29206797        3      -0.00103066      -0.00067752      -0.05329381
Pt       7.01803488       5.67261038      22.29206774        3      -0.00000342      -0.00000905      -0.05018369
Pt       9.82524823       5.67261061      22.29206804        3       0.00033859      -0.00102324      -0.05300037
Pt      -0.00000056       1.62074572      24.58417389        2      -0.00527500      -0.00359529       0.03447997
Pt       2.80721443       1.62074548      24.58417398        2       0.00154478       0.00357804       0.02715061
Pt       5.61442779       1.62074532      24.58417370        2       0.00576505      -0.00276343       0.03450010
Pt       1.40360636       4.05186439      24.58417390        2       0.00231072      -0.00312011       0.02711503
Pt       4.21082088       4.05186401      24.58417381        2      -0.00384546      -0.00044304       0.02711358
Pt       7.01803503       4.05186407      24.58417407        2      -0.00143819      -0.00426171       0.02119808
Pt       2.80721279       6.48298345      24.58417372        2      -0.00045841       0.00637686       0.03447112
Pt       5.61442797       6.48298324      24.58417392        2      -0.00298749       0.00339901       0.02121692
Pt       8.42164222       6.48298343      24.58417383        2       0.00442500       0.00091139       0.02124164
Pt       0.00375727      -0.00304474      26.91604298        1      -0.02966357       0.02000349      -0.00313907
Pt       2.80746941      -0.00063640      26.91305154        1      -0.00268095       0.00988468       0.01618630
Pt       5.60990906      -0.00170598      26.91604317        1       0.03216283       0.01566360      -0.00319834
Pt       1.40030601       2.42886899      26.91485208        1       0.01510134       0.01094174      -0.00132504
Pt       4.21443812       2.42939828      26.91485343        1      -0.01701552       0.00761536      -0.00137135
Pt       7.01881496       2.43590644      26.91602749        1      -0.00252053      -0.03570729      -0.00330181
Pt       2.80691414       4.86624451      26.91484726        1       0.00191987      -0.01858142      -0.00126662
Pt       5.61487178       4.86278896      26.91304107        1      -0.00720126      -0.00726099       0.01612133
Pt       8.42095789       4.86235522      26.91304062        1       0.00987770      -0.00260631       0.01610850
N        2.80716510       3.24158340      30.74534867        0      -0.00002007      -0.00006252      -0.04113543
H        3.74715971       3.38401916      30.35126840        0      -0.02124248      -0.00459216       0.01857933
H        2.46079142       2.35595775      30.35181919        0       0.00632549       0.02070389       0.01856032
H        2.21361364       3.98403098      30.35081925        0       0.01493416      -0.01605356       0.01861051
