40
Lattice="8.421641763931781 0.0 0.0 4.2108208819658905 7.293355709136913 0.0 0.0 0.0 46.87624170604845" Properties=species:S:1:pos:R:3:tags:I:1:forces:R:3 charge=0 spin=0 energy=-206.9928214641488 free_energy=-206.9928214641488 stress="0.01004144549369812 -6.555973186550546e-08 1.3845412594193363e-09 -6.555973186550546e-08 0.010041511617600918 -1.6990089335422454e-08 1.3845412594193363e-09 -1.6990089335422454e-08 -0.00017479494272265583" pbc="T T T"
Pt      -0.00000005       0.00000022      19.95723419        4       0.00249431      -0.00436158       0.02149922
Pt       2.80721406      -0.00000018      19.95723436        4      -0.00140976      -0.00510626       0.02217636
Pt       5.61442778      -0.00000006      19.95723442        4      -0.00000115       0.00000422       0.01856426
Pt       1.40360717       2.43111838      19.95723425        4      -0.00000001       0.00000087       0.02436796
Pt       4.21082080       2.43111835      19.95723435        4       0.00252755       0.00433725       0.02150770
Pt       7.01803478       2.43111843      19.95723423        4      -0.00371696       0.00377145       0.02212326
Pt       2.80721408       4.86223724      19.95723395        4       0.00512310       0.00133547       0.02215522
Pt       5.61442803       4.86223730      19.95723413        4      -0.00000153      -0.00000283      -0.04318858
Pt       8.42164138       4.86223726      19.95723427        4      -0.00501602       0.00002024       0.02152380
Pt       1.40360728       0.81037260      22.29206790        3       0.00199832      -0.00068882      -0.07438410
Pt       4.21082128       0.81037250      22.29206784        3       0.00298594       0.00094918      -0.04524990
Pt       7.01803477       0.81037260      22.29206779        3      -0.00072926      -0.00308288      -0.04528500
Pt       2.80721450       3.24149125      22.29206775        3      -0.00037476       0.00210821      -0.07423242
Pt       5.61442762       3.24149123      22.29206790        3      -0.00149287       0.02584336      -0.08390046
Pt       8.42164156       3.24149116      22.29206805        3      -0.00163024      -0.00141065      -0.07428620
Pt       4.21082094       5.67260998      22.29206797        3       0.02315224      -0.01165024      -0.08393698
Pt       7.01803488       5.67261038      22.29206774        3      -0.02166170      -0.01419133      -0.08395217
Pt       9.82524823       5.67261061      22.29206804        3      -0.00225393       0.00213238      -0.04519173
Pt      -0.00000056       1.62074572      24.58417389        2       0.00706513       0.00868329       0.01799981
Pt       2.80721443       1.62074548      24.58417398        2      -0.01111095       0.00179939       0.01794283
Pt       5.61442779       1.62074532      24.58417370        2      -0.00463094      -0.15920079       0.24152218
Pt       1.40360636       4.05186439      24.58417390        2       0.00405630      -0.01047762       0.01776319
Pt       4.21082088       4.05186401      24.58417381        2       0.03695093       0.02438355      -0.06720879
Pt       7.01803503       4.05186407      24.58417407        2      -0.03957376       0.01976835      -0.06712197
Pt       2.80721279       6.48298345      24.58417372        2      -0.13552889       0.08360045       0.24149452
Pt       5.61442797       6.48298324      24.58417392        2       0.00260704      -0.04415561      -0.06697059
Pt       8.42164222       6.48298343      24.58417383        2       0.14016944       0.07560468       0.24152485
Pt       0.01770818      -0.00203771      26.90784062        1       0.02422792       0.01461902      -0.01244294
Pt       2.79000935      -0.00148367      26.90707774        1      -0.02551359       0.01521206      -0.01262954
Pt       5.61442833      -0.00000161      26.99524201        1      -0.00000249       0.00000774       0.03443716
Pt       1.40361058       2.43111998      26.92918684        1       0.00000337      -0.00000545      -0.01948326
Pt       4.20374263       2.44747266      26.90784363        1      -0.02477060       0.01367374      -0.01246769
Pt       7.02535750       2.44676019      26.90707924        1       0.02593868       0.01448094      -0.01257393
Pt       2.81709824       4.84807962      26.90707558        1      -0.00043047      -0.02970768      -0.01268389
Pt       5.61442529       4.86223692      26.92455775        1       0.00000117       0.00000052      -0.00622825
Pt       8.41101281       4.84792131      26.90783749        1       0.00054601      -0.02828827      -0.01242239
N        5.61442673       0.00000097      29.15769043        0       0.00008783      -0.00011748      -0.03577377
H        5.61360943      -0.97173373      29.49437967        0       0.00003207       0.04408798       0.00165040
H        4.77329231       0.48657418      29.49438178        0       0.03803092      -0.02200416       0.00169671
H        6.45638192       0.48515697      29.49438008        0      -0.03814852      -0.02197266       0.00166516
