40
Lattice="8.421641763931781 0.0 0.0 4.2108208819658905 7.293355709136913 0.0 0.0 0.0 46.87624170604845" Properties=species:S:1:pos:R:3:tags:I:1:forces:R:3 charge=0 spin=0 energy=-206.42404628714684 free_energy=-206.42404628714684 stress="0.010470191016793251 7.0653665140696376e-09 -1.929520321297673e-09 7.0653665140696376e-09 0.010470207780599594 -2.6954365406339775e-09 -1.929520321297673e-09 -2.6954365406339775e-09 -0.00011071485641878098" pbc="T T T"
Pt      -0.00000005       0.00000022      19.95723419        4       0.00037808       0.00007448       0.01775826
Pt       2.80721406      -0.00000018      19.95723436        4      -0.00012255      -0.00036008       0.01775968
Pt       5.61442778      -0.00000006      19.95723442        4      -0.00000826       0.00012114       0.01875506
Pt       1.40360717       2.43111838      19.95723425        4       0.00027017       0.00066365       0.01859331
Pt       4.21082080       2.43111835      19.95723435        4       0.00010846      -0.00005007       0.01876424
Pt       7.01803478       2.43111843      19.95723423        4      -0.00010099      -0.00006399       0.01875807
Pt       2.80721408       4.86223724      19.95723395        4      -0.00070595      -0.00010114       0.01859713
Pt       5.61442803       4.86223730      19.95723413        4      -0.00025615       0.00028247       0.01775731
Pt       8.42164138       4.86223726      19.95723427        4       0.00043762      -0.00056807       0.01859083
Pt       1.40360728       0.81037260      22.29206790        3      -0.00025634       0.00117250      -0.04934252
Pt       4.21082128       0.81037250      22.29206784        3       0.00094442       0.00010159      -0.05254028
Pt       7.01803477       0.81037260      22.29206779        3      -0.00054995       0.00077374      -0.05254221
Pt       2.80721450       3.24149125      22.29206775        3       0.00021234      -0.00081416      -0.05262103
Pt       5.61442762       3.24149123      22.29206790        3      -0.00039260      -0.00086915      -0.05254354
Pt       8.42164156       3.24149116      22.29206805        3      -0.00081536       0.00022326      -0.05263374
Pt       4.21082094       5.67260998      22.29206797        3      -0.00088523      -0.00080736      -0.04932259
Pt       7.01803488       5.67261038      22.29206774        3       0.00113355      -0.00036743      -0.04933085
Pt       9.82524823       5.67261061      22.29206804        3       0.00060669       0.00058701      -0.05261029
Pt      -0.00000056       1.62074572      24.58417389        2       0.00389686       0.00126526       0.03239381
Pt       2.80721443       1.62074548      24.58417398        2      -0.00456405      -0.00052975       0.03158353
Pt       5.61442779       1.62074532      24.58417370        2       0.00000759       0.00000196       0.02676560
Pt       1.40360636       4.05186439      24.58417390        2       0.00000197       0.00001311       0.05511507
Pt       4.21082088       4.05186401      24.58417381        2      -0.00303280       0.00275094       0.03243186
Pt       7.01803503       4.05186407      24.58417407        2       0.00181470       0.00421961       0.03163612
Pt       2.80721279       6.48298345      24.58417372        2       0.00275364      -0.00369220       0.03163540
Pt       5.61442797       6.48298324      24.58417392        2      -0.00000325      -0.00001017       0.02814544
Pt       8.42164222       6.48298343      24.58417383        2      -0.00086982      -0.00401431       0.03241143
Pt      -0.00151355       0.00029863      26.91486016        1       0.00920243      -0.00420513       0.00447651
Pt       2.80822920       0.00116173      26.91486284        1      -0.00823513      -0.00584446       0.00450775
Pt       5.61415621      -0.00326969      26.91440568        1      -0.00060667       0.01023957       0.00215958
Pt       1.40367544       2.42884485      26.91855500        1      -0.00012790       0.01581637      -0.01204895
Pt       4.20812249       2.43299052      26.91439788        1       0.00913036      -0.00458376       0.00212434
Pt       7.02100579       2.43251889      26.91439934        1      -0.00852915      -0.00563363       0.00212637
Pt       2.80914804       4.86343421      26.91857206        1      -0.01363845      -0.00802178      -0.01195686
Pt       5.61492620       4.86077877      26.91487143        1      -0.00095238       0.01002707       0.00458580
Pt       8.41964110       4.86331777      26.91857591        1       0.01375471      -0.00780085      -0.01190892
N        5.61442574       1.62074168      30.77666015        0       0.00002564       0.00001357      -0.02700688
H        5.60658433       2.56979037      30.38036324        0      -0.00022671       0.01232422       0.01299332
H        6.44024538       1.15301343      30.38035467        0       0.01078288      -0.00596913       0.01299778
H        4.79645033       1.13943031      30.38035199        0      -0.01058241      -0.00636476       0.01298517
