40
Lattice="8.421641763931781 0.0 0.0 4.2108208819658905 7.293355709136913 0.0 0.0 0.0 46.87624170604845" Properties=species:S:1:pos:R:3:tags:I:1:forces:R:3 charge=0 spin=0 energy=-206.42616153678063 free_energy=-206.42616153678063 stress="0.010511204600334167 -3.6859731267213647e-07 -2.860403292004321e-08 -3.6859731267213647e-07 0.010511472821235657 -4.285597015041276e-07 -2.860403292004321e-08 -4.285597015041276e-07 -1.717010854918044e-05" pbc="T T T"
Pt      -0.00000005       0.00000022      19.95723419        4      -0.00008645      -0.00009763       0.01876301
Pt       2.80721406      -0.00000018      19.95723436        4       0.00021720       0.00067512       0.01858002
Pt       5.61442778      -0.00000006      19.95723442        4       0.00012594      -0.00001589       0.01875765
Pt       1.40360717       2.43111838      19.95723425        4       0.00047639      -0.00051701       0.01859111
Pt       4.21082080       2.43111835      19.95723435        4      -0.00068915      -0.00014844       0.01858862
Pt       7.01803478       2.43111843      19.95723423        4      -0.00028917      -0.00003330       0.01787287
Pt       2.80721408       4.86223724      19.95723395        4      -0.00004100       0.00012189       0.01876454
Pt       5.61442803       4.86223730      19.95723413        4       0.00010914       0.00026143       0.01787421
Pt       8.42164138       4.86223726      19.95723427        4       0.00017264      -0.00022150       0.01788341
Pt       1.40360728       0.81037260      22.29206790        3      -0.00092956       0.00004340      -0.05149576
Pt       4.21082128       0.81037250      22.29206784        3       0.00041642      -0.00079939      -0.05145600
Pt       7.01803477       0.81037260      22.29206779        3      -0.00045968      -0.00032968      -0.05236097
Pt       2.80721450       3.24149125      22.29206775        3       0.00048703       0.00081558      -0.05145345
Pt       5.61442762       3.24149123      22.29206790        3      -0.00032531      -0.00015508      -0.05111899
Pt       8.42164156       3.24149116      22.29206805        3       0.00029400      -0.00023229      -0.05112777
Pt       4.21082094       5.67260998      22.29206797        3      -0.00008543       0.00059182      -0.05239838
Pt       7.01803488       5.67261038      22.29206774        3       0.00000525       0.00040035      -0.05106258
Pt       9.82524823       5.67261061      22.29206804        3       0.00057198      -0.00021011      -0.05234547
Pt      -0.00000056       1.62074572      24.58417389        2       0.00258818      -0.00028630       0.04523681
Pt       2.80721443       1.62074548      24.58417398        2       0.00000461      -0.00003858       0.05688784
Pt       5.61442779       1.62074532      24.58417370        2      -0.00293404      -0.00280654       0.04585276
Pt       1.40360636       4.05186439      24.58417390        2       0.00369710      -0.00138081       0.04554252
Pt       4.21082088       4.05186401      24.58417381        2      -0.00136681      -0.00233340       0.04507048
Pt       7.01803503       4.05186407      24.58417407        2      -0.00000094      -0.00008664       0.03843011
Pt       2.80721279       6.48298345      24.58417372        2      -0.00003277       0.00009645       0.04547333
Pt       5.61442797       6.48298324      24.58417392        2      -0.00084453       0.00394546       0.04581225
Pt       8.42164222       6.48298343      24.58417383        2      -0.00105223       0.00239473       0.04521459
Pt       0.00076732       0.00113989      26.92049107        1       0.00045135      -0.00372687      -0.02009392
Pt       2.80617072      -0.00093697      26.91948988        1       0.00262503       0.00669837      -0.01765553
Pt       5.61302308       0.00001057      26.92054094        1       0.00295932       0.00221882      -0.02019227
Pt       1.40336876       2.43238463      26.91949815        1       0.00462712      -0.00537031      -0.01749734
Pt       4.21214198       2.43054154      26.91951329        1      -0.00726129      -0.00085410      -0.01754577
Pt       7.01828306       2.42877134      26.91609578        1       0.00033984       0.01352040      -0.00370311
Pt       2.80787249       4.86086085      26.92035270        1      -0.00344810       0.00154506      -0.01971133
Pt       5.61233688       4.86310693      26.91605834        1       0.01159150      -0.00708271      -0.00372096
Pt       8.42350902       4.86353866      26.91605489        1      -0.01191989      -0.00650274      -0.00368977
N       11.22887146       6.47942927      30.84493469        0       0.00003817       0.00134530      -0.03880672
H       10.28157070       6.47973857      30.44465188        0      -0.03455423      -0.00009087       0.01606096
H       11.69831611       7.30711586      30.45487993        0       0.01900423       0.02926251       0.01631485
H       11.70668307       5.66650049      30.43447478        0       0.01551798      -0.03061675       0.01586399
