40
Lattice="8.421641763931781 0.0 0.0 4.2108208819658905 7.293355709136913 0.0 0.0 0.0 46.87624170604845" Properties=species:S:1:pos:R:3:tags:I:1:forces:R:3 charge=0 spin=0 energy=-206.42412067374352 free_energy=-206.42412067374352 stress="0.010515145026147366 -3.4919622748930124e-09 -2.2407659727718965e-08 -3.4919622748930124e-09 0.010515195317566395 6.313655376288807e-08 -2.2407659727718965e-08 6.313655376288807e-08 -1.8654633095138706e-05" pbc="T T T"
Pt      -0.00000005       0.00000022      19.95723419        4       0.00055866      -0.00055628       0.01857198
Pt       2.80721406      -0.00000018      19.95723436        4      -0.00075902      -0.00020539       0.01857503
Pt       5.61442778      -0.00000006      19.95723442        4      -0.00017466       0.00001325       0.01787115
Pt       1.40360717       2.43111838      19.95723425        4      -0.00001999       0.00032192       0.01876521
Pt       4.21082080       2.43111835      19.95723435        4       0.00009607       0.00014521       0.01788615
Pt       7.01803478       2.43111843      19.95723423        4       0.00007678      -0.00015208       0.01788784
Pt       2.80721408       4.86223724      19.95723395        4      -0.00027058      -0.00018207       0.01875205
Pt       5.61442803       4.86223730      19.95723413        4       0.00019873       0.00075876       0.01856967
Pt       8.42164138       4.86223726      19.95723427        4       0.00029182      -0.00014642       0.01875614
Pt       1.40360728       0.81037260      22.29206790        3       0.00047135       0.00076215      -0.05116243
Pt       4.21082128       0.81037250      22.29206784        3      -0.00009812      -0.00015725      -0.05198902
Pt       7.01803477       0.81037260      22.29206779        3       0.00018527       0.00000404      -0.05199232
Pt       2.80721450       3.24149125      22.29206775        3       0.00004993       0.00040786      -0.05171033
Pt       5.61442762       3.24149123      22.29206790        3      -0.00009153       0.00016827      -0.05200748
Pt       8.42164156       3.24149116      22.29206805        3       0.00032217      -0.00024183      -0.05170832
Pt       4.21082094       5.67260998      22.29206797        3      -0.00090106       0.00003795      -0.05118325
Pt       7.01803488       5.67261038      22.29206774        3       0.00041585      -0.00079088      -0.05117337
Pt       9.82524823       5.67261061      22.29206804        3      -0.00037465      -0.00015936      -0.05171137
Pt      -0.00000056       1.62074572      24.58417389        2       0.00760359       0.00013615       0.04398956
Pt       2.80721443       1.62074548      24.58417398        2      -0.00591039      -0.00015167       0.04311266
Pt       5.61442779       1.62074532      24.58417370        2       0.00000801       0.00000933       0.03607913
Pt       1.40360636       4.05186439      24.58417390        2       0.00000594       0.00000463       0.05912186
Pt       4.21082088       4.05186401      24.58417381        2      -0.00390827       0.00655021       0.04401894
Pt       7.01803503       4.05186407      24.58417407        2       0.00280372       0.00522631       0.04310688
Pt       2.80721279       6.48298345      24.58417372        2       0.00311467      -0.00505183       0.04311842
Pt       5.61442797       6.48298324      24.58417392        2      -0.00000515       0.00001207       0.05538441
Pt       8.42164222       6.48298343      24.58417383        2      -0.00369591      -0.00666613       0.04401776
Pt      -0.00162494       0.00116285      26.91818391        1       0.01039250      -0.00698003      -0.01232467
Pt       2.80902933       0.00083065      26.91818346        1      -0.01124753      -0.00551155      -0.01236744
Pt       5.61501764      -0.00373716      26.91430769        1      -0.00133624       0.02057695       0.00394053
Pt       1.40353103       2.42894380      26.92336939        1      -0.00149934       0.00991206      -0.03198787
Pt       4.20728477       2.43248043      26.91430365        1       0.01850859      -0.00914594       0.00385938
Pt       7.02097773       2.43350380      26.91430422        1      -0.01716575      -0.01146034       0.00386725
Pt       2.80913677       4.86326567      26.92336903        1      -0.00781286      -0.00627223      -0.03205844
Pt       5.61423470       4.86025407      26.91817976        1       0.00086167       0.01246476      -0.01251345
Pt       8.41979172       4.86339572      26.92337013        1       0.00930836      -0.00368054      -0.03210188
N        9.82524737       4.05185871      30.84228950        0      -0.00001147      -0.00005089      -0.02901408
H       10.64980180       3.58397011      30.44373820        0       0.02018345      -0.01129569       0.01258801
H        9.00776583       3.57171954      30.44373999        0      -0.01986886      -0.01182259       0.01259231
H        9.81817403       4.99988907      30.44374372        0      -0.00030555       0.02316889       0.01257376
