40
Lattice="8.421641763931781 0.0 0.0 4.2108208819658905 7.293355709136913 0.0 0.0 0.0 46.87624170604845" Properties=species:S:1:pos:R:3:tags:I:1:forces:R:3 charge=0 spin=0 energy=-206.4255664440072 free_energy=-206.4255664440072 stress="0.010531800799071789 6.262703664106084e-06 1.7587502725291415e-06 6.262703664106084e-06 0.010514607653021812 3.5200268939661328e-06 1.7587502725291415e-06 3.5200268939661328e-06 -3.2256288250209764e-05" pbc="T T T"
Pt      -0.00000005       0.00000022      19.95723419        4      -0.00030184      -0.00045199       0.01891284
Pt       2.80721406      -0.00000018      19.95723436        4      -0.00011442      -0.00022307       0.01754510
Pt       5.61442778      -0.00000006      19.95723442        4      -0.00031525      -0.00048505       0.01842980
Pt       1.40360717       2.43111838      19.95723425        4      -0.00023464      -0.00029194       0.01848778
Pt       4.21082080       2.43111835      19.95723435        4      -0.00008983       0.00022009       0.01868031
Pt       7.01803478       2.43111843      19.95723423        4      -0.00064326      -0.00020849       0.01884590
Pt       2.80721408       4.86223724      19.95723395        4      -0.00006714      -0.00057214       0.01862194
Pt       5.61442803       4.86223730      19.95723413        4      -0.00078652      -0.00005711       0.01828797
Pt       8.42164138       4.86223726      19.95723427        4      -0.00056166      -0.00050801       0.01767412
Pt       1.40360728       0.81037260      22.29206790        3      -0.00221543       0.00003088      -0.05362661
Pt       4.21082128       0.81037250      22.29206784        3      -0.00158768      -0.00055156      -0.05096084
Pt       7.01803477       0.81037260      22.29206779        3      -0.00109505      -0.00072090      -0.05208118
Pt       2.80721450       3.24149125      22.29206775        3      -0.00250929      -0.00105543      -0.05405001
Pt       5.61442762       3.24149123      22.29206790        3      -0.00107148      -0.00185686      -0.05177612
Pt       8.42164156       3.24149116      22.29206805        3      -0.00233974      -0.00224403      -0.05347947
Pt       4.21082094       5.67260998      22.29206797        3      -0.00134242      -0.00028467      -0.05175394
Pt       7.01803488       5.67261038      22.29206774        3      -0.00251185      -0.00137957      -0.04570156
Pt       9.82524823       5.67261061      22.29206804        3       0.00013064      -0.00071845      -0.05080942
Pt      -0.00000056       1.62074572      24.58417389        2       0.00266590       0.00114089       0.02428365
Pt       2.80721443       1.62074548      24.58417398        2       0.01422409      -0.00475948       0.04340917
Pt       5.61442779       1.62074532      24.58417370        2      -0.00005958       0.00752108       0.03555861
Pt       1.40360636       4.05186439      24.58417390        2       0.00172777       0.01768830       0.04396527
Pt       4.21082088       4.05186401      24.58417381        2       0.00843325       0.00442330       0.05733149
Pt       7.01803503       4.05186407      24.58417407        2       0.00239503       0.00900552       0.05167098
Pt       2.80721279       6.48298345      24.58417372        2       0.00975589      -0.00343194       0.03807426
Pt       5.61442797       6.48298324      24.58417392        2       0.00732153      -0.00108030       0.05237668
Pt       8.42164222       6.48298343      24.58417383        2      -0.00539875      -0.00379427       0.03976547
Pt       0.00551926       0.00441267      26.91751416        1       0.00317817      -0.01281657      -0.00540543
Pt       2.81148714       0.00238825      26.92073336        1       0.00667038       0.00300774      -0.02286014
Pt       5.61836270       0.00293743      26.91179171        1      -0.00309166      -0.00006780       0.01473762
Pt       1.41236618       2.43599722      26.91077059        1      -0.00539460      -0.00270345       0.01885421
Pt       4.21866069       2.43566923      26.92018960        1      -0.01066962      -0.00396674      -0.01832866
Pt       7.02490468       2.43512632      26.91570383        1      -0.00989500       0.00740393       0.00168392
Pt       2.81462823       4.86673952      26.92016031        1      -0.00918438      -0.00604041      -0.01928498
Pt       5.62007403       4.86658984      26.92314672        1      -0.00112788      -0.00281903      -0.02922939
Pt       8.42638684       4.86542026      26.92203877        1       0.00572932       0.00336986      -0.02629743
N        7.72127030       1.22915661      30.84031799        0       0.00232733      -0.00938473       0.01333554
H        7.25161403       0.39325063      30.46937662        0      -0.00964454      -0.00041357      -0.00412632
H        7.25257031       2.04003599      30.41586127        0       0.00850564      -0.00439795      -0.00538565
H        8.67847406       1.21398879      30.46536953        0      -0.00081132       0.01347347      -0.00537545
