40
Lattice="8.421641763931781 0.0 0.0 4.2108208819658905 7.293355709136913 0.0 0.0 0.0 46.87624170604845" Properties=species:S:1:pos:R:3:tags:I:1:forces:R:3 charge=0 spin=0 energy=-206.42495990714195 free_energy=-206.42495990714195 stress="0.010533737018704414 9.18869602628547e-09 -3.011871996250193e-08 9.18869602628547e-09 0.010533877648413181 1.737047057304153e-07 -3.011871996250193e-08 1.737047057304153e-07 -7.178456144174561e-06" pbc="T T T"
Pt      -0.00000005       0.00000022      19.95723419        4       0.00003219      -0.00012853       0.01861765
Pt       2.80721406      -0.00000018      19.95723436        4       0.00000862       0.00030886       0.01809062
Pt       5.61442778      -0.00000006      19.95723442        4       0.00025955      -0.00015790       0.01808203
Pt       1.40360717       2.43111838      19.95723425        4       0.00009490       0.00008973       0.01861651
Pt       4.21082080       2.43111835      19.95723435        4       0.00026850       0.00038718       0.01854711
Pt       7.01803478       2.43111843      19.95723423        4      -0.00012598       0.00004250       0.01862098
Pt       2.80721408       4.86223724      19.95723395        4       0.00019701      -0.00042458       0.01854690
Pt       5.61442803       4.86223730      19.95723413        4      -0.00046580       0.00003798       0.01855111
Pt       8.42164138       4.86223726      19.95723427        4      -0.00027248      -0.00014946       0.01809314
Pt       1.40360728       0.81037260      22.29206790        3      -0.00067934       0.00080217      -0.05323242
Pt       4.21082128       0.81037250      22.29206784        3      -0.00039563       0.00133059      -0.04923841
Pt       7.01803477       0.81037260      22.29206779        3       0.00102500       0.00020499      -0.05321772
Pt       2.80721450       3.24149125      22.29206775        3      -0.00079644       0.00021789      -0.05283193
Pt       5.61442762       3.24149123      22.29206790        3       0.00021279      -0.00077833      -0.05280638
Pt       8.42164156       3.24149116      22.29206805        3      -0.00034152      -0.00097877      -0.05322038
Pt       4.21082094       5.67260998      22.29206797        3       0.00056681       0.00058700      -0.05279609
Pt       7.01803488       5.67261038      22.29206774        3      -0.00094626      -0.00099336      -0.04920094
Pt       9.82524823       5.67261061      22.29206804        3       0.00133336      -0.00032292      -0.04921780
Pt      -0.00000056       1.62074572      24.58417389        2      -0.00002829       0.00000323       0.01577068
Pt       2.80721443       1.62074548      24.58417398        2       0.01080992      -0.00157456       0.04810284
Pt       5.61442779       1.62074532      24.58417370        2      -0.01101780      -0.00317351       0.04826114
Pt       1.40360636       4.05186439      24.58417390        2       0.00273912       0.01117921       0.04834652
Pt       4.21082088       4.05186401      24.58417381        2       0.00004598       0.00003574       0.06727338
Pt       7.01803503       4.05186407      24.58417407        2      -0.00407706       0.01018466       0.04823511
Pt       2.80721279       6.48298345      24.58417372        2      -0.00672819      -0.00861430       0.04810718
Pt       5.61442797       6.48298324      24.58417392        2       0.00828719      -0.00801613       0.04834677
Pt       8.42164222       6.48298343      24.58417383        2      -0.00001392      -0.00005602       0.04550133
Pt      -0.00067113       0.00094576      26.91332469        1       0.00110921      -0.01744697       0.01202357
Pt       2.80726111      -0.00048525      26.91983691        1       0.00323886      -0.00142975      -0.01894588
Pt       5.61402083       0.00017496      26.91981865        1      -0.00293469      -0.00204582      -0.01884026
Pt       1.40311519       2.43003954      26.91331452        1       0.01455332       0.00973880       0.01206788
Pt       4.21097109       2.43164867      26.92280406        1      -0.00037233      -0.00038764      -0.03105935
Pt       7.01918337       2.43124141      26.91333335        1      -0.01563265       0.00765142       0.01201383
Pt       2.80762287       4.86181021      26.92282605        1      -0.00024735       0.00056095      -0.03102778
Pt       5.61386378       4.86209353      26.92287286        1       0.00061451      -0.00017189      -0.03122199
Pt       8.42201103       4.86249278      26.91987459        1      -0.00032453       0.00348911      -0.01895065
N        8.42164350       1.62074262      31.01118639        0      -0.00001877       0.00003911       0.02773279
H        9.25076651       1.15749374      30.61774186        0       0.00693310      -0.00373135      -0.01059331
H        7.60589202       1.13432544      30.61775058        0      -0.00668531      -0.00413107      -0.01058222
H        8.40826454       2.57041267      30.61774920        0      -0.00022562       0.00782186      -0.01056562
