40
Lattice="8.421641763931781 0.0 0.0 4.2108208819658905 7.293355709136913 0.0 0.0 0.0 46.87624170604845" Properties=species:S:1:pos:R:3:tags:I:1:forces:R:3 charge=0 spin=0 energy=-206.42847515067223 free_energy=-206.42847515067223 stress="0.010261454619467258 -4.1339933432027465e-07 2.8221075254464267e-08 -4.1339933432027465e-07 0.010261371731758118 1.5647066220481065e-07 2.8221075254464267e-08 1.5647066220481065e-07 -0.0002623201871756464" pbc="T T T"
Pt      -0.00000005       0.00000022      19.95723419        4       0.00000331      -0.00000198      -0.00010225
Pt       2.80721406      -0.00000018      19.95723436        4      -0.00156610      -0.00128965       0.02008277
Pt       5.61442778      -0.00000006      19.95723442        4       0.00105951       0.00009798       0.01983328
Pt       1.40360717       2.43111838      19.95723425        4      -0.00044958      -0.00096247       0.01984492
Pt       4.21082080       2.43111835      19.95723435        4       0.00000131       0.00000204       0.02024941
Pt       7.01803478       2.43111843      19.95723423        4       0.00189839      -0.00070900       0.02007166
Pt       2.80721408       4.86223724      19.95723395        4      -0.00033450       0.00199926       0.02008230
Pt       5.61442803       4.86223730      19.95723413        4      -0.00061165       0.00086537       0.01982092
Pt       8.42164138       4.86223726      19.95723427        4       0.00000011      -0.00000380       0.02018705
Pt       1.40360728       0.81037260      22.29206790        3       0.00376962       0.00251281      -0.04495580
Pt       4.21082128       0.81037250      22.29206784        3       0.00006891       0.00110654      -0.05582904
Pt       7.01803477       0.81037260      22.29206779        3      -0.00402728       0.00202272      -0.04496595
Pt       2.80721450       3.24149125      22.29206775        3       0.00090901      -0.00057801      -0.05582841
Pt       5.61442762       3.24149123      22.29206790        3      -0.00098844      -0.00052061      -0.05586993
Pt       8.42164156       3.24149116      22.29206805        3       0.00000103       0.00060062      -0.06012889
Pt       4.21082094       5.67260998      22.29206797        3       0.00025640      -0.00452997      -0.04495187
Pt       7.01803488       5.67261038      22.29206774        3       0.00048910      -0.00031540      -0.06010888
Pt       9.82524823       5.67261061      22.29206804        3      -0.00048166      -0.00029813      -0.06007602
Pt      -0.00000056       1.62074572      24.58417389        2       0.00032728      -0.02668184      -0.01427071
Pt       2.80721443       1.62074548      24.58417398        2       0.03675878       0.01954888       0.07028501
Pt       5.61442779       1.62074532      24.58417370        2      -0.03533914       0.02205484       0.07023865
Pt       1.40360636       4.05186439      24.58417390        2      -0.00921588       0.00072800       0.01383680
Pt       4.21082088       4.05186401      24.58417381        2      -0.00139234      -0.04159025       0.07025246
Pt       7.01803503       4.05186407      24.58417407        2       0.00520175       0.00764599       0.01388739
Pt       2.80721279       6.48298345      24.58417372        2       0.02296513       0.01362714      -0.01432447
Pt       5.61442797       6.48298324      24.58417392        2      -0.02325740       0.01302706      -0.01422032
Pt       8.42164222       6.48298343      24.58417383        2       0.00395376      -0.00834299       0.01383648
Pt       0.00000068       0.00000133      26.91858297        1      -0.00000058      -0.00000324       0.00041573
Pt       2.80330226      -0.00919429      26.90945556        1       0.00195628       0.00570192       0.00547946
Pt       5.61766878      -0.00806570      26.91052085        1      -0.00152873       0.00519904       0.00486050
Pt       1.39500296       2.43233642      26.91052089        1       0.00524453      -0.00125709       0.00490554
Pt       4.21081969       2.43112929      26.93304277        1       0.00000286       0.00000962       0.03856171
Pt       7.02794455       2.43233325      26.90942821        1      -0.00589210      -0.00115314       0.00557238
Pt       2.80121707       4.87021710      26.90943101        1       0.00393515      -0.00453467       0.00552819
Pt       5.61978962       4.86908496      26.91054864        1      -0.00371501      -0.00392780       0.00483559
Pt       8.42164217       4.86223705      26.92142348        1      -0.00000177       0.00000404       0.00081471
N        4.21082419       2.43100680      29.83986820        0      -0.00033094      -0.00119579       0.04936015
H        4.70287629       3.28331337      29.56602774        0       0.01219793       0.02096266      -0.00265590
H        4.70284122       1.57884473      29.56528145        0       0.01111049      -0.01934952      -0.00221167
H        3.22674195       2.43129563      29.56565488        0      -0.02297737      -0.00047109      -0.00234270
