40
Lattice="8.421641763931781 0.0 0.0 4.2108208819658905 7.293355709136913 0.0 0.0 0.0 46.87624170604845" Properties=species:S:1:pos:R:3:tags:I:1:forces:R:3 charge=0 spin=0 energy=-206.42696071585777 free_energy=-206.42696071585777 stress="0.01052648015320301 -7.385975209217577e-07 6.56810215104997e-08 -7.385975209217577e-07 0.010525808669626713 1.1106411648142966e-06 6.56810215104997e-08 1.1106411648142966e-06 -2.2474589059129357e-05" pbc="T T T"
Pt      -0.00000005       0.00000022      19.95723419        4      -0.00009060      -0.00002226       0.01871114
Pt       2.80721406      -0.00000018      19.95723436        4       0.00015450      -0.00009604       0.01847113
Pt       5.61442778      -0.00000006      19.95723442        4       0.00001016       0.00019054       0.01846689
Pt       1.40360717       2.43111838      19.95723425        4       0.00000512      -0.00039926       0.01801185
Pt       4.21082080       2.43111835      19.95723435        4      -0.00015316      -0.00008354       0.01848129
Pt       7.01803478       2.43111843      19.95723423        4      -0.00034908       0.00018461       0.01802205
Pt       2.80721408       4.86223724      19.95723395        4       0.00006764      -0.00006813       0.01873271
Pt       5.61442803       4.86223730      19.95723413        4       0.00002482       0.00008963       0.01872947
Pt       8.42164138       4.86223726      19.95723427        4       0.00034236       0.00020624       0.01800252
Pt       1.40360728       0.81037260      22.29206790        3      -0.00041492      -0.00051415      -0.05217721
Pt       4.21082128       0.81037250      22.29206784        3      -0.00001262      -0.00000235      -0.05452321
Pt       7.01803477       0.81037260      22.29206779        3      -0.00021348      -0.00104854      -0.05233133
Pt       2.80721450       3.24149125      22.29206775        3       0.00097193       0.00028433      -0.05237919
Pt       5.61442762       3.24149123      22.29206790        3      -0.00025048       0.00060468      -0.05213502
Pt       8.42164156       3.24149116      22.29206805        3       0.00003299       0.00003428      -0.04622063
Pt       4.21082094       5.67260998      22.29206797        3       0.00001316       0.00002246      -0.05150649
Pt       7.01803488       5.67261038      22.29206774        3      -0.00073003       0.00068470      -0.05237526
Pt       9.82524823       5.67261061      22.29206804        3       0.00064186      -0.00012905      -0.05213484
Pt      -0.00000056       1.62074572      24.58417389        2      -0.00072179       0.01023251       0.05266576
Pt       2.80721443       1.62074548      24.58417398        2      -0.00784061       0.00582184       0.05035773
Pt       5.61442779       1.62074532      24.58417370        2       0.00893668       0.00408998       0.05044239
Pt       1.40360636       4.05186439      24.58417390        2      -0.00829157      -0.00543722       0.05308320
Pt       4.21082088       4.05186401      24.58417381        2       0.00092091      -0.00390624       0.02996625
Pt       7.01803503       4.05186407      24.58417407        2       0.00883762      -0.00435987       0.05322637
Pt       2.80721279       6.48298345      24.58417372        2      -0.00405336       0.00112197       0.02956332
Pt       5.61442797       6.48298324      24.58417392        2       0.00317060       0.00247316       0.02963701
Pt       8.42164222       6.48298343      24.58417383        2      -0.00106001      -0.00975976       0.05035268
Pt       0.00018113      -0.00061400      26.91479998        1       0.00048056       0.01451439       0.00639305
Pt       2.80703002      -0.00051137      26.91619113        1       0.00393048       0.00268058      -0.00398426
Pt       5.61491680       0.00015158      26.91618798        1      -0.00420385       0.00204927      -0.00397049
Pt       1.40267749       2.43115214      26.92332118        1       0.00167219       0.00084442      -0.03321378
Pt       4.21043923       2.43157996      26.91623460        1       0.00029839      -0.00476606      -0.00416526
Pt       7.01844724       2.43198795      26.92338191        1      -0.00030517      -0.00146854      -0.03342215
Pt       2.80771940       4.86278984      26.91503241        1      -0.01292677      -0.00691640       0.00556892
Pt       5.61372061       4.86243131      26.91512672        1       0.01245118      -0.00763388       0.00532990
Pt       8.42209151       4.86147679      26.92336769        1      -0.00130266       0.00102712      -0.03321905
N        4.21085134       5.67790137      31.01054198        0       0.00017689      -0.00172031       0.03016786
H        3.73233387       4.85040884      30.63236542        0      -0.00730015      -0.00751054      -0.01112012
H        3.73946994       6.49533884      30.60264044        0      -0.00198203       0.00834319      -0.01198368
H        5.16067630       5.66634004      30.61752289        0       0.00906236       0.00034228      -0.01152139
