40
Lattice="8.421641763931781 0.0 0.0 4.2108208819658905 7.293355709136913 0.0 0.0 0.0 46.87624170604845" Properties=species:S:1:pos:R:3:tags:I:1:forces:R:3 charge=0 spin=0 energy=-206.42858005484703 free_energy=-206.42858005484703 stress="0.010264148935675621 -6.566490640125267e-08 -2.4026947542665766e-08 -6.566490640125267e-08 0.010264108888804913 -4.363514438665561e-09 -2.4026947542665766e-08 -4.363514438665561e-09 -0.0002610931405797601" pbc="T T T"
Pt      -0.00000005       0.00000022      19.95723419        4      -0.00032067       0.00181689       0.01995137
Pt       2.80721406      -0.00000018      19.95723436        4      -0.00077063       0.00085579       0.01999227
Pt       5.61442778      -0.00000006      19.95723442        4      -0.00000161       0.00000372       0.02028817
Pt       1.40360717       2.43111838      19.95723425        4       0.00000070       0.00000061      -0.00013113
Pt       4.21082080       2.43111835      19.95723435        4      -0.00140907      -0.00118816       0.01995586
Pt       7.01803478       2.43111843      19.95723423        4       0.00112476       0.00024028       0.02001561
Pt       2.80721408       4.86223724      19.95723395        4      -0.00035646      -0.00109569       0.02001824
Pt       5.61442803       4.86223730      19.95723413        4      -0.00000182      -0.00000234       0.02017450
Pt       8.42164138       4.86223726      19.95723427        4       0.00173483      -0.00063236       0.01994180
Pt       1.40360728       0.81037260      22.29206790        3      -0.00138034      -0.00405286      -0.04471424
Pt       4.21082128       0.81037250      22.29206784        3       0.00087216       0.00094640      -0.06093888
Pt       7.01803477       0.81037260      22.29206779        3       0.00040701      -0.00124326      -0.06091124
Pt       2.80721450       3.24149125      22.29206775        3       0.00416658       0.00085850      -0.04472344
Pt       5.61442762       3.24149123      22.29206790        3      -0.00066221       0.00111663      -0.05527566
Pt       8.42164156       3.24149116      22.29206805        3      -0.00279344       0.00320309      -0.04473369
Pt       4.21082094       5.67260998      22.29206797        3       0.00129544       0.00005538      -0.05527797
Pt       7.01803488       5.67261038      22.29206774        3      -0.00063870      -0.00116983      -0.05531453
Pt       9.82524823       5.67261061      22.29206804        3      -0.00126977       0.00029154      -0.06096039
Pt      -0.00000056       1.62074572      24.58417389        2       0.02255649       0.01272106      -0.01358145
Pt       2.80721443       1.62074548      24.58417398        2      -0.02226859       0.01314275      -0.01347646
Pt       5.61442779       1.62074532      24.58417370        2       0.00342730      -0.00872999       0.01364759
Pt       1.40360636       4.05186439      24.58417390        2      -0.00025807      -0.02588145      -0.01352102
Pt       4.21082088       4.05186401      24.58417381        2       0.03732145       0.01898350       0.07019520
Pt       7.01803503       4.05186407      24.58417407        2      -0.03513322       0.02282278       0.07014646
Pt       2.80721279       6.48298345      24.58417372        2      -0.00928494       0.00138381       0.01364793
Pt       5.61442797       6.48298324      24.58417392        2      -0.00216645      -0.04181574       0.07018463
Pt       8.42164222       6.48298343      24.58417383        2       0.00581032       0.00737690       0.01370460
Pt      -0.00558871       0.00752545      26.91021850        1       0.00360705      -0.00422693       0.00503317
Pt       2.81274173       0.00735438      26.91002312        1      -0.00381503      -0.00428876       0.00498792
Pt       5.61442833      -0.00000057      26.92112105        1      -0.00000611       0.00000206       0.00085473
Pt       1.40360780       2.43111948      26.91866718        1      -0.00000025      -0.00000294       0.00054296
Pt       4.20709817       2.42250545      26.91024176        1       0.00184523       0.00525251       0.00501038
Pt       7.02163172       2.42265493      26.90999011        1      -0.00178176       0.00545911       0.00501356
Pt       2.79808787       4.86334676      26.90999372        1       0.00560087      -0.00117149       0.00504880
Pt       5.61442669       4.86223639      26.93320373        1       0.00000399      -0.00000250       0.03794362
Pt       8.43095398       4.86332560      26.91021355        1      -0.00545536      -0.00102745       0.00509286
N        5.61442583       4.86223887      29.84016582        0       0.00021005      -0.00015141       0.04954562
H        5.61438331       5.84616558      29.56531906        0      -0.00011544       0.02325833      -0.00248685
H        6.46655914       4.37031094      29.56531842        0       0.01998319      -0.01141292      -0.00241222
H        4.76234364       4.37023423      29.56531876        0      -0.02007713      -0.01169541      -0.00247860
