40
Lattice="8.421641763931781 0.0 0.0 4.2108208819658905 7.293355709136913 0.0 0.0 0.0 46.87624170604845" Properties=species:S:1:pos:R:3:tags:I:1:forces:R:3 charge=0 spin=0 energy=-206.42911983451012 free_energy=-206.42911983451012 stress="0.010478176176548004 -7.52545137316929e-09 -2.1843348463335133e-08 -7.52545137316929e-09 0.010478184558451176 1.4287288019332323e-09 -2.1843348463335133e-08 1.4287288019332323e-09 -7.633101631654426e-05" pbc="T T T"
Pt      -0.00000005       0.00000022      19.95723419        4      -0.00014910       0.00020827       0.01786653
Pt       2.80721406      -0.00000018      19.95723436        4      -0.00010976      -0.00023561       0.01786397
Pt       5.61442778      -0.00000006      19.95723442        4      -0.00011938      -0.00018419       0.01850322
Pt       1.40360717       2.43111838      19.95723425        4       0.00026014       0.00002882       0.01786509
Pt       4.21082080       2.43111835      19.95723435        4       0.00023484       0.00000345       0.01876000
Pt       7.01803478       2.43111843      19.95723423        4      -0.00011903       0.00020177       0.01875705
Pt       2.80721408       4.86223724      19.95723395        4      -0.00009993       0.00019283       0.01851240
Pt       5.61442803       4.86223730      19.95723413        4      -0.00011750      -0.00020559       0.01875652
Pt       8.42164138       4.86223726      19.95723427        4       0.00022018      -0.00001276       0.01850593
Pt       1.40360728       0.81037260      22.29206790        3      -0.00000205       0.00000217      -0.04675517
Pt       4.21082128       0.81037250      22.29206784        3       0.00054174       0.00053050      -0.05241545
Pt       7.01803477       0.81037260      22.29206779        3       0.00022342       0.00085948      -0.05271443
Pt       2.80721450       3.24149125      22.29206775        3       0.00062846      -0.00061644      -0.05272716
Pt       5.61442762       3.24149123      22.29206790        3       0.00000305      -0.00000112      -0.05015505
Pt       8.42164156       3.24149116      22.29206805        3      -0.00071958       0.00021234      -0.05244368
Pt       4.21082094       5.67260998      22.29206797        3       0.00017525      -0.00073426      -0.05241911
Pt       7.01803488       5.67261038      22.29206774        3      -0.00085956      -0.00024641      -0.05272282
Pt       9.82524823       5.67261061      22.29206804        3       0.00000749      -0.00001169      -0.05190857
Pt      -0.00000056       1.62074572      24.58417389        2       0.00387349      -0.00223442       0.03635056
Pt       2.80721443       1.62074548      24.58417398        2      -0.00386266      -0.00224444       0.03634527
Pt       5.61442779       1.62074532      24.58417370        2       0.00037347      -0.00154488       0.03540174
Pt       1.40360636       4.05186439      24.58417390        2      -0.00095262      -0.00162334       0.04178211
Pt       4.21082088       4.05186401      24.58417381        2      -0.00153165       0.00046505       0.03540571
Pt       7.01803503       4.05186407      24.58417407        2       0.00114976       0.00111817       0.03540474
Pt       2.80721279       6.48298345      24.58417372        2       0.00190803      -0.00001505       0.04182696
Pt       5.61442797       6.48298324      24.58417392        2      -0.00000859       0.00444565       0.03638868
Pt       8.42164222       6.48298343      24.58417383        2      -0.00094786       0.00165349       0.04182661
Pt      -0.00051413      -0.00061072      26.91724897        1       0.00310086       0.00203889      -0.00932351
Pt       2.80800137      -0.00013658      26.91725439        1      -0.00332745       0.00165650      -0.00928846
Pt       5.61393372       0.00049584      26.91711943        1       0.00004157      -0.00212326      -0.00687846
Pt       1.40333435       2.43187217      26.91723311        1       0.00021853      -0.00372695      -0.00944357
Pt       4.20856645       2.43075738      26.91578347        1       0.01038766       0.00449467       0.00055104
Pt       7.01948108       2.42935570      26.91577757        1      -0.00906214       0.00677158       0.00055034
Pt       2.80787710       4.86242706      26.91711338        1      -0.00186372       0.00101769      -0.00695700
Pt       5.61523580       4.86436783      26.91579490        1      -0.00132725      -0.01123862       0.00062122
Pt       8.42147259       4.86156862      26.91711249        1       0.00181736       0.00110591      -0.00691671
N        5.61442921       3.24148474      30.95662345        0       0.00001141       0.00005174      -0.00114864
H        4.78804828       2.77787714      30.55806779        0      -0.03482594      -0.01952719       0.00212058
H        5.62612128       4.18895805      30.55807081        0       0.00050485       0.03987788       0.00214457
H        6.42911607       2.75762584      30.55806482        0       0.03432446      -0.02041048       0.00210691
