40
Lattice="8.421641763931781 0.0 0.0 4.2108208819658905 7.293355709136913 0.0 0.0 0.0 46.87624170604845" Properties=species:S:1:pos:R:3:tags:I:1:forces:R:3 charge=0 spin=0 energy=-206.42411304434899 free_energy=-206.42411304434899 stress="0.0105151841416955 -3.1747673379101116e-09 -2.9222658071148544e-08 -3.1747673379101116e-09 0.010515225119888783 5.5013423150285234e-08 -2.9222658071148544e-08 5.5013423150285234e-08 -1.859895564848557e-05" pbc="T T T"
Pt      -0.00000005       0.00000022      19.95723419        4      -0.00075385      -0.00020945       0.01857580
Pt       2.80721406      -0.00000018      19.95723436        4      -0.00017589       0.00001211       0.01787923
Pt       5.61442778      -0.00000006      19.95723442        4       0.00055467      -0.00055107       0.01856324
Pt       1.40360717       2.43111838      19.95723425        4       0.00009485       0.00014463       0.01788680
Pt       4.21082080       2.43111835      19.95723435        4       0.00007954      -0.00015243       0.01788767
Pt       7.01803478       2.43111843      19.95723423        4      -0.00002167       0.00032260       0.01876458
Pt       2.80721408       4.86223724      19.95723395        4       0.00020138       0.00075795       0.01857088
Pt       5.61442803       4.86223730      19.95723413        4       0.00028952      -0.00014536       0.01875646
Pt       8.42164138       4.86223726      19.95723427        4      -0.00027094      -0.00018195       0.01875075
Pt       1.40360728       0.81037260      22.29206790        3      -0.00009591      -0.00016047      -0.05198894
Pt       4.21082128       0.81037250      22.29206784        3       0.00017991       0.00000789      -0.05199502
Pt       7.01803477       0.81037260      22.29206779        3       0.00047422       0.00076241      -0.05116024
Pt       2.80721450       3.24149125      22.29206775        3      -0.00010106       0.00016976      -0.05200624
Pt       5.61442762       3.24149123      22.29206790        3       0.00032184      -0.00024335      -0.05170815
Pt       8.42164156       3.24149116      22.29206805        3       0.00006022       0.00040921      -0.05171214
Pt       4.21082094       5.67260998      22.29206797        3       0.00041610      -0.00078287      -0.05117266
Pt       7.01803488       5.67261038      22.29206774        3      -0.00038403      -0.00015283      -0.05171242
Pt       9.82524823       5.67261061      22.29206804        3      -0.00089198       0.00002390      -0.05118209
Pt      -0.00000056       1.62074572      24.58417389        2      -0.00590295      -0.00015712       0.04311933
Pt       2.80721443       1.62074548      24.58417398        2      -0.00000061       0.00000602       0.03607704
Pt       5.61442779       1.62074532      24.58417370        2       0.00760557       0.00014214       0.04399755
Pt       1.40360636       4.05186439      24.58417390        2      -0.00390480       0.00654359       0.04401951
Pt       4.21082088       4.05186401      24.58417381        2       0.00280775       0.00522726       0.04310884
Pt       7.01803503       4.05186407      24.58417407        2      -0.00000212       0.00000807       0.05912682
Pt       2.80721279       6.48298345      24.58417372        2       0.00000854       0.00000933       0.05538807
Pt       5.61442797       6.48298324      24.58417392        2      -0.00369299      -0.00666345       0.04401812
Pt       8.42164222       6.48298343      24.58417383        2       0.00309814      -0.00505261       0.04312285
Pt       0.00181489       0.00082925      26.91818547        1      -0.01124064      -0.00550678      -0.01237295
Pt       2.80780438      -0.00373770      26.91430718        1      -0.00134337       0.02057642       0.00394638
Pt       5.61280312       0.00116177      26.91818767        1       0.01038920      -0.00698104      -0.01232210
Pt       1.40007112       2.43247984      26.91430334        1       0.01850843      -0.00914863       0.00385603
Pt       4.21376414       2.43350296      26.91430475        1      -0.01716705      -0.01145662       0.00386833
Pt       7.01795902       2.42894337      26.92337088        1      -0.00150148       0.00990683      -0.03199476
Pt       2.80702101       4.86025427      26.91818131        1       0.00086455       0.01246024      -0.01251023
Pt       5.61257834       4.86339464      26.92337022        1       0.00930629      -0.00367766      -0.03210413
Pt       8.42356422       4.86326507      26.92337037        1      -0.00780871      -0.00627208      -0.03206323
N        7.01803302       4.05185930      30.84224314        0       0.00003474      -0.00004667      -0.02905853
H        7.01096073       4.99988986      30.44369824        0      -0.00030672       0.02314998       0.01258133
H        7.84258828       3.58396958      30.44369443        0       0.02014469      -0.01127385       0.01260732
H        6.20055157       3.57171972      30.44369538        0      -0.01987344      -0.01182401       0.01259100
