40
Lattice="8.421641763931781 0.0 0.0 4.2108208819658905 7.293355709136913 0.0 0.0 0.0 46.87624170604845" Properties=species:S:1:pos:R:3:tags:I:1:forces:R:3 charge=0 spin=0 energy=-206.42115856131676 free_energy=-206.42115856131676 stress="0.010491106659173965 -7.339927105931565e-05 -1.1506613191158976e-05 -7.339927105931565e-05 0.010427047498524189 9.876924195850734e-06 -1.1506613191158976e-05 9.876924195850734e-06 -0.00017747498350217938" pbc="T T T"
Pt      -0.00000005       0.00000022      19.95723419        4       0.00260788      -0.00123722       0.01841142
Pt       2.80721406      -0.00000018      19.95723436        4       0.00259034      -0.00092483       0.01725402
Pt       5.61442778      -0.00000006      19.95723442        4       0.00300289      -0.00164323       0.01845052
Pt       1.40360717       2.43111838      19.95723425        4       0.00288436      -0.00091537       0.01839225
Pt       4.21082080       2.43111835      19.95723435        4       0.00285493      -0.00122196       0.01730903
Pt       7.01803478       2.43111843      19.95723423        4       0.00292012      -0.00109046       0.01882510
Pt       2.80721408       4.86223724      19.95723395        4       0.00318264      -0.00086947       0.01842353
Pt       5.61442803       4.86223730      19.95723413        4       0.00277922      -0.00097750       0.01862300
Pt       8.42164138       4.86223726      19.95723427        4       0.00274428      -0.00129688       0.01875767
Pt       1.40360728       0.81037260      22.29206790        3       0.00993954      -0.00529946      -0.05145194
Pt       4.21082128       0.81037250      22.29206784        3       0.01226807      -0.00704655      -0.04806700
Pt       7.01803477       0.81037260      22.29206779        3       0.01034656      -0.00549120      -0.05402863
Pt       2.80721450       3.24149125      22.29206775        3       0.00901651      -0.00519472      -0.05102077
Pt       5.61442762       3.24149123      22.29206790        3       0.01161443      -0.00703333      -0.05139523
Pt       8.42164156       3.24149116      22.29206805        3       0.01037206      -0.00557395      -0.05050618
Pt       4.21082094       5.67260998      22.29206797        3       0.01024123      -0.00626649      -0.05110177
Pt       7.01803488       5.67261038      22.29206774        3       0.01082186      -0.00637591      -0.05106493
Pt       9.82524823       5.67261061      22.29206804        3       0.00976711      -0.00513264      -0.05429019
Pt      -0.00000056       1.62074572      24.58417389        2      -0.02760064       0.01592751       0.02822073
Pt       2.80721443       1.62074548      24.58417398        2      -0.02993130       0.01550875       0.02135272
Pt       5.61442779       1.62074532      24.58417370        2      -0.03098793       0.01756012       0.02631816
Pt       1.40360636       4.05186439      24.58417390        2      -0.02901320       0.01634698       0.02859684
Pt       4.21082088       4.05186401      24.58417381        2      -0.02961535       0.01638993       0.02227173
Pt       7.01803503       4.05186407      24.58417407        2      -0.03319836       0.01726186       0.01381865
Pt       2.80721279       6.48298345      24.58417372        2      -0.02923067       0.01634608       0.03396782
Pt       5.61442797       6.48298324      24.58417392        2      -0.03139624       0.01357201       0.02153580
Pt       8.42164222       6.48298343      24.58417383        2      -0.03192011       0.01578441       0.02650860
Pt      -0.03969749       0.02185824      26.91499456        1       0.00262064      -0.00554658       0.00766503
Pt       2.76338987       0.02169791      26.91347138        1       0.03355771      -0.00087422       0.01413785
Pt       5.57260090       0.02283160      26.91353755        1       0.02045471      -0.01025084       0.00685204
Pt       1.36331353       2.45255398      26.91718412        1       0.01623513      -0.00898390      -0.00436644
Pt       4.16850063       2.45671142      26.91391709        1       0.01964426      -0.02785703       0.01301417
Pt       6.97663607       2.45392023      26.91389287        1       0.01380603      -0.02167893       0.01237651
Pt       2.76767114       4.88303851      26.91506708        1       0.00683157       0.00207227       0.00725225
Pt       5.57404832       4.88495649      26.91646423        1       0.01062346      -0.00635531       0.00149098
Pt       8.38073289       4.88442262      26.91413258        1       0.02642931      -0.00037750       0.01173360
N        7.72374573       3.64463465      30.76954493        0      -0.00165811       0.00048815       0.03978517
H        8.50538266       3.19875180      30.27246960        0      -0.01296345       0.00774765      -0.00450200
H        6.86306126       3.19274501      30.43598805        0       0.00468709      -0.01155442      -0.01445080
H        7.68607566       4.62061155      30.44969280        0       0.01267174       0.00206424      -0.01509910
