40
Lattice="8.421641763931781 0.0 0.0 4.2108208819658905 7.293355709136913 0.0 0.0 0.0 46.87624170604845" Properties=species:S:1:pos:R:3:tags:I:1:forces:R:3 charge=0 spin=0 energy=-206.42076755484703 free_energy=-206.42076755484703 stress="0.010463753715157509 1.988022724219718e-08 -2.0687108914785313e-08 1.988022724219718e-08 0.010463794693350792 8.520820493629344e-09 -2.0687108914785313e-08 8.520820493629344e-09 -0.00010558430949458852" pbc="T T T"
Pt      -0.00000005       0.00000022      19.95723419        4      -0.00051418      -0.00002798       0.01761293
Pt       2.80721406      -0.00000018      19.95723436        4      -0.00018348      -0.00071867       0.01853920
Pt       5.61442778      -0.00000006      19.95723442        4       0.00023378       0.00046511       0.01760559
Pt       1.40360717       2.43111838      19.95723425        4       0.00014475      -0.00005635       0.01899545
Pt       4.21082080       2.43111835      19.95723435        4      -0.00002118       0.00015424       0.01899026
Pt       7.01803478       2.43111843      19.95723423        4       0.00028125      -0.00043231       0.01760973
Pt       2.80721408       4.86223724      19.95723395        4      -0.00012170      -0.00009977       0.01899134
Pt       5.61442803       4.86223730      19.95723413        4       0.00071130       0.00020121       0.01853021
Pt       8.42164138       4.86223726      19.95723427        4      -0.00053166       0.00051342       0.01853587
Pt       1.40360728       0.81037260      22.29206790        3       0.00101832       0.00080564      -0.05337036
Pt       4.21082128       0.81037250      22.29206784        3      -0.00017134       0.00111328      -0.05444368
Pt       7.01803477       0.81037260      22.29206779        3       0.00000029       0.00000549      -0.04151049
Pt       2.80721450       3.24149125      22.29206775        3      -0.00000967       0.00000152      -0.04836331
Pt       5.61442762       3.24149123      22.29206790        3      -0.00119629       0.00048602      -0.05339382
Pt       8.42164156       3.24149116      22.29206805        3       0.00104323      -0.00039842      -0.05445426
Pt       4.21082094       5.67260998      22.29206797        3      -0.00087921      -0.00069702      -0.05445443
Pt       7.01803488       5.67261038      22.29206774        3      -0.00000225      -0.00000423      -0.05033031
Pt       9.82524823       5.67261061      22.29206804        3       0.00018447      -0.00129385      -0.05336176
Pt      -0.00000056       1.62074572      24.58417389        2      -0.00761549      -0.00451058       0.04758511
Pt       2.80721443       1.62074548      24.58417398        2       0.00190956       0.00779282       0.03286760
Pt       5.61442779       1.62074532      24.58417370        2       0.00772878      -0.00432442       0.04759321
Pt       1.40360636       4.05186439      24.58417390        2       0.00577767      -0.00555341       0.03284780
Pt       4.21082088       4.05186401      24.58417381        2      -0.00768911      -0.00221881       0.03284122
Pt       7.01803503       4.05186407      24.58417407        2      -0.00115392      -0.00608454       0.02981089
Pt       2.80721279       6.48298345      24.58417372        2      -0.00008339       0.00882712       0.04757219
Pt       5.61442797       6.48298324      24.58417392        2      -0.00471149       0.00404605       0.02981079
Pt       8.42164222       6.48298343      24.58417383        2       0.00585238       0.00204900       0.02982863
Pt       0.00490581      -0.00301150      26.91986949        1      -0.03647000       0.02229813      -0.01903148
Pt       2.80716493       0.00166730      26.91333153        1      -0.00106751      -0.00792489       0.01381623
Pt       5.60936788      -0.00274436      26.91986688        1       0.03756391       0.02040272      -0.01907734
Pt       1.39867564       2.42825328      26.91723543        1       0.02020637       0.01358124      -0.01468242
Pt       4.21576946       2.42828285      26.91723254        1      -0.02185555       0.01071250      -0.01470108
Pt       7.01819014       2.43687484      26.91986243        1      -0.00109064      -0.04271599      -0.01919537
Pt       2.80719732       4.86794025      26.91724000        1       0.00165593      -0.02431869      -0.01465180
Pt       5.61300835       4.86136183      26.91333137        1       0.00738417       0.00304732       0.01373003
Pt       8.42311184       4.86144621      26.91333179        1      -0.00632579       0.00487894       0.01370410
N        2.80721362       3.24149100      30.63974588        0       0.00007476       0.00003111      -0.02322971
H        3.62811640       3.71721646      30.24403029        0       0.03264626       0.01893529       0.01696807
H        2.80875399       2.29270556      30.24403556        0       0.00007068      -0.03781338       0.01693284
H        1.98477219       3.71454880      30.24403194        0      -0.03279363       0.01884511       0.01693240
