40
Lattice="8.421641763931781 0.0 0.0 4.2108208819658905 7.293355709136913 0.0 0.0 0.0 46.87624170604845" Properties=species:S:1:pos:R:3:tags:I:1:forces:R:3 charge=0 spin=0 energy=-206.4255664440072 free_energy=-206.4255664440072 stress="0.010531813837587833 6.271558049775194e-06 1.757317477313336e-06 6.271558049775194e-06 0.01051462721079588 3.5221921734773787e-06 1.757317477313336e-06 3.5221921734773787e-06 -3.225760883651674e-05" pbc="T T T"
Pt      -0.00000005       0.00000022      19.95723419        4      -0.00010888      -0.00022724       0.01754569
Pt       2.80721406      -0.00000018      19.95723436        4      -0.00031625      -0.00048617       0.01843820
Pt       5.61442778      -0.00000006      19.95723442        4      -0.00030562      -0.00044663       0.01890429
Pt       1.40360717       2.43111838      19.95723425        4      -0.00009087       0.00021948       0.01868095
Pt       4.21082080       2.43111835      19.95723435        4      -0.00064041      -0.00020856       0.01884594
Pt       7.01803478       2.43111843      19.95723423        4      -0.00023621      -0.00029122       0.01848718
Pt       2.80721408       4.86223724      19.95723395        4      -0.00078357      -0.00005793       0.01828941
Pt       5.61442803       4.86223730      19.95723413        4      -0.00056405      -0.00050687       0.01767436
Pt       8.42164138       4.86223726      19.95723427        4      -0.00006739      -0.00057204       0.01862058
Pt       1.40360728       0.81037260      22.29206790        3      -0.00158524      -0.00055523      -0.05096115
Pt       4.21082128       0.81037250      22.29206784        3      -0.00109999      -0.00071729      -0.05208244
Pt       7.01803477       0.81037260      22.29206779        3      -0.00221240       0.00003115      -0.05362428
Pt       2.80721450       3.24149125      22.29206775        3      -0.00108065      -0.00185551      -0.05177442
Pt       5.61442762       3.24149123      22.29206790        3      -0.00234011      -0.00224590      -0.05347945
Pt       8.42164156       3.24149116      22.29206805        3      -0.00249862      -0.00105397      -0.05405093
Pt       4.21082094       5.67260998      22.29206797        3      -0.00251170      -0.00137173      -0.04570170
Pt       7.01803488       5.67261038      22.29206774        3       0.00012195      -0.00071215      -0.05081009
Pt       9.82524823       5.67261061      22.29206804        3      -0.00133262      -0.00029880      -0.05175418
Pt      -0.00000056       1.62074572      24.58417389        2       0.01423060      -0.00476444       0.04340768
Pt       2.80721443       1.62074548      24.58417398        2      -0.00006946       0.00751271       0.03555549
Pt       5.61442779       1.62074532      24.58417370        2       0.00266468       0.00114709       0.02428269
Pt       1.40360636       4.05186439      24.58417390        2       0.00843667       0.00441726       0.05732722
Pt       4.21082088       4.05186401      24.58417381        2       0.00239655       0.00900870       0.05166756
Pt       7.01803503       4.05186407      24.58417407        2       0.00171967       0.01769278       0.04396529
Pt       2.80721279       6.48298345      24.58417372        2       0.00733435      -0.00108564       0.05237559
Pt       5.61442797       6.48298324      24.58417392        2      -0.00539291      -0.00378774       0.03976299
Pt       8.42164222       6.48298343      24.58417383        2       0.00973316      -0.00342969       0.03807981
Pt       0.00427076       0.00238732      26.92073269        1       0.00667676       0.00300999      -0.02285965
Pt       2.81114749       0.00293718      26.91179244        1      -0.00309059      -0.00006843       0.01472691
Pt       5.61994490       0.00441275      26.91751463        1       0.00317550      -0.01281786      -0.00540117
Pt       1.41144450       2.43566780      26.92018686        1      -0.01066753      -0.00396303      -0.01832393
Pt       4.21768887       2.43512646      26.91570315        1      -0.00989557       0.00740054       0.00169147
Pt       7.02679119       2.43599679      26.91077134        1      -0.00538894      -0.00270278       0.01885595
Pt       2.81285817       4.86658958      26.92314794        1      -0.00112825      -0.00282037      -0.02923363
Pt       5.61917196       4.86542019      26.92203785        1       0.00572687       0.00336991      -0.02629121
Pt       8.42905389       4.86673979      26.92015959        1      -0.00918500      -0.00604110      -0.01928453
N        4.91406244       1.22916990      30.84034089        0       0.00233096      -0.00943016       0.01330883
H        4.44439014       0.39325569      30.46943456        0      -0.00961560      -0.00035500      -0.00410875
H        4.44537474       2.04004078      30.41585340        0       0.00850767      -0.00440940      -0.00538631
H        5.87126577       1.21397071      30.46538992        0      -0.00084677       0.01347334      -0.00536630
