40
Lattice="8.421641763931781 0.0 0.0 4.2108208819658905 7.293355709136913 0.0 0.0 0.0 46.87624170604845" Properties=species:S:1:pos:R:3:tags:I:1:forces:R:3 charge=0 spin=0 energy=-206.42115856131676 free_energy=-206.42115856131676 stress="0.010491129010915756 -7.339714647969231e-05 -1.1512533092172816e-05 -7.339714647969231e-05 0.010427076369524002 9.875418072624598e-06 -1.1512533092172816e-05 9.875418072624598e-06 -0.00017746153753250837" pbc="T T T"
Pt      -0.00000005       0.00000022      19.95723419        4       0.00285646      -0.00122510       0.01730822
Pt       2.80721406      -0.00000018      19.95723436        4       0.00291944      -0.00108964       0.01882385
Pt       5.61442778      -0.00000006      19.95723442        4       0.00288337      -0.00091271       0.01838226
Pt       1.40360717       2.43111838      19.95723425        4       0.00278128      -0.00097340       0.01862378
Pt       4.21082080       2.43111835      19.95723435        4       0.00274469      -0.00129130       0.01875854
Pt       7.01803478       2.43111843      19.95723423        4       0.00317992      -0.00086410       0.01842283
Pt       2.80721408       4.86223724      19.95723395        4       0.00259374      -0.00093105       0.01725591
Pt       5.61442803       4.86223730      19.95723413        4       0.00300211      -0.00164967       0.01845970
Pt       8.42164138       4.86223726      19.95723427        4       0.00260571      -0.00123971       0.01841138
Pt       1.40360728       0.81037260      22.29206790        3       0.01161034      -0.00703219      -0.05139371
Pt       4.21082128       0.81037250      22.29206784        3       0.01036547      -0.00557122      -0.05050502
Pt       7.01803477       0.81037260      22.29206779        3       0.00902563      -0.00519453      -0.05101913
Pt       2.80721450       3.24149125      22.29206775        3       0.01081736      -0.00637066      -0.05106520
Pt       5.61442762       3.24149123      22.29206790        3       0.00976313      -0.00512131      -0.05429290
Pt       8.42164156       3.24149116      22.29206805        3       0.01024722      -0.00626708      -0.05110596
Pt       4.21082094       5.67260998      22.29206797        3       0.01226900      -0.00704825      -0.04806481
Pt       7.01803488       5.67261038      22.29206774        3       0.01034246      -0.00549748      -0.05402870
Pt       9.82524823       5.67261061      22.29206804        3       0.00994734      -0.00531168      -0.05145132
Pt      -0.00000056       1.62074572      24.58417389        2      -0.02961227       0.01638411       0.02227061
Pt       2.80721443       1.62074548      24.58417398        2      -0.03320064       0.01726315       0.01382333
Pt       5.61442779       1.62074532      24.58417370        2      -0.02901765       0.01635653       0.02860064
Pt       1.40360636       4.05186439      24.58417390        2      -0.03138465       0.01357334       0.02153695
Pt       4.21082088       4.05186401      24.58417381        2      -0.03191286       0.01579472       0.02650636
Pt       7.01803503       4.05186407      24.58417407        2      -0.02924655       0.01635531       0.03396515
Pt       2.80721279       6.48298345      24.58417372        2      -0.02991285       0.01549597       0.02135389
Pt       5.61442797       6.48298324      24.58417392        2      -0.03099393       0.01755089       0.02631553
Pt       8.42164222       6.48298343      24.58417383        2      -0.02761254       0.01592368       0.02822352
Pt      -0.04232023       0.02559235      26.91391839        1       0.01964526      -0.02785492       0.01301447
Pt       2.76581471       0.02280088      26.91389274        1       0.01381070      -0.02167181       0.01237405
Pt       5.57413569       0.02143496      26.91718468        1       0.01622547      -0.00898336      -0.00436362
Pt       1.36322590       2.45383856      26.91646422        1       0.01063529      -0.00635946       0.00148861
Pt       4.16991258       2.45330523      26.91413234        1       0.02642007      -0.00038645       0.01173243
Pt       6.97849200       2.45191982      26.91506683        1       0.00683388       0.00207179       0.00725435
Pt       2.76338990       4.88393511      26.91347266        1       0.03355056      -0.00087457       0.01412874
Pt       5.57260098       4.88506855      26.91353876        1       0.02045342      -0.01024909       0.00685208
Pt       8.38194415       4.88409585      26.91499456        1       0.00262725      -0.00554519       0.00766718
N        3.51292456       1.21351643      30.76951379        0      -0.00162921       0.00049517       0.03971897
H        3.47525564       2.18949370      30.44965886        0       0.01266659       0.00201547      -0.01507886
H        4.29456343       0.76763251      30.27243914        0      -0.01301175       0.00777207      -0.00446496
H        2.65224071       0.76162526      30.43595526        0       0.00471220      -0.01153602      -0.01443924
