40
Lattice="8.421641763931781 0.0 0.0 4.2108208819658905 7.293355709136913 0.0 0.0 0.0 46.87624170604845" Properties=species:S:1:pos:R:3:tags:I:1:forces:R:3 charge=0 spin=0 energy=-206.4270904155648 free_energy=-206.4270904155648 stress="0.01052516046911478 -5.776259399681294e-07 -8.36469169485099e-08 -5.776259399681294e-07 0.010525391437113285 7.950746976348455e-07 -8.36469169485099e-08 7.950746976348455e-07 -1.9160739611834288e-05" pbc="T T T"
Pt      -0.00000005       0.00000022      19.95723419        4       0.00023763      -0.00005562       0.01809518
Pt       2.80721406      -0.00000018      19.95723436        4       0.00002870      -0.00013934       0.01865684
Pt       5.61442778      -0.00000006      19.95723442        4      -0.00007216       0.00023098       0.01808449
Pt       1.40360717       2.43111838      19.95723425        4      -0.00013870       0.00004589       0.01865171
Pt       4.21082080       2.43111835      19.95723435        4       0.00010299       0.00010148       0.01864895
Pt       7.01803478       2.43111843      19.95723423        4       0.00029392       0.00045181       0.01848933
Pt       2.80721408       4.86223724      19.95723395        4      -0.00016997      -0.00017983       0.01809923
Pt       5.61442803       4.86223730      19.95723413        4       0.00023670      -0.00047601       0.01848536
Pt       8.42164138       4.86223726      19.95723427        4      -0.00052998       0.00003092       0.01849081
Pt       1.40360728       0.81037260      22.29206790        3       0.00096319       0.00020360      -0.05363405
Pt       4.21082128       0.81037250      22.29206784        3      -0.00064041       0.00076433      -0.05366988
Pt       7.01803477       0.81037260      22.29206779        3      -0.00052557       0.00109193      -0.04933674
Pt       2.80721450       3.24149125      22.29206775        3      -0.00032608      -0.00094110      -0.05365866
Pt       5.61442762       3.24149123      22.29206790        3      -0.00087526       0.00006839      -0.05231770
Pt       8.42164156       3.24149116      22.29206805        3       0.00038639      -0.00077440      -0.05227496
Pt       4.21082094       5.67260998      22.29206797        3       0.00119615      -0.00008503      -0.04930200
Pt       7.01803488       5.67261038      22.29206774        3       0.00046336       0.00071089      -0.05227530
Pt       9.82524823       5.67261061      22.29206804        3      -0.00068663      -0.00098181      -0.04927872
Pt      -0.00000056       1.62074572      24.58417389        2      -0.00928770      -0.00191010       0.04677485
Pt       2.80721443       1.62074548      24.58417398        2      -0.00003788      -0.00010553       0.02096220
Pt       5.61442779       1.62074532      24.58417370        2       0.00974668      -0.00037390       0.04716796
Pt       1.40360636       4.05186439      24.58417390        2      -0.00456623       0.00860119       0.04729402
Pt       4.21082088       4.05186401      24.58417381        2       0.00296426       0.00905604       0.04682920
Pt       7.01803503       4.05186407      24.58417407        2       0.00006438       0.00006700       0.06395258
Pt       2.80721279       6.48298345      24.58417372        2       0.00001033      -0.00003066       0.03994795
Pt       5.61442797       6.48298324      24.58417392        2      -0.00501394      -0.00816978       0.04731598
Pt       8.42164222       6.48298343      24.58417383        2       0.00620369      -0.00707832       0.04705523
Pt      -0.00029942       0.00015178      26.91849174        1      -0.00177203      -0.00057920      -0.01384140
Pt       2.80603751       0.00044410      26.91437654        1       0.00276490      -0.01225232       0.00720532
Pt       5.61446230      -0.00037928      26.91852326        1       0.00137741      -0.00113336      -0.01399799
Pt       1.40455380       2.43196344      26.91427132        1      -0.01189634       0.00361766       0.00758327
Pt       4.21108395       2.42986393      26.91424503        1       0.00913750       0.00854876       0.00768327
Pt       7.01912055       2.43193491      26.92237164        1      -0.00313086      -0.00255767      -0.02860611
Pt       2.80750828       4.86243251      26.91854175        1       0.00036976       0.00175664      -0.01394288
Pt       5.61462405       4.86089543      26.92238477        1      -0.00070398       0.00407264      -0.02845174
Pt       8.42038050       4.86277445      26.92243561        1       0.00379693      -0.00133540      -0.02870626
N        2.80716698       1.62339438      31.00007769        0       0.00009776      -0.00096437       0.03340033
H        2.34302490       0.79159504      30.61386980        0      -0.00753431      -0.01559792      -0.01154927
H        2.32195684       2.43600958      30.59913632        0      -0.00880456       0.01272299      -0.01217575
H        3.75664858       1.63175332      30.60648585        0       0.01626989       0.00357840      -0.01185465
