40
Lattice="8.421641763931781 0.0 0.0 4.2108208819658905 7.293355709136913 0.0 0.0 0.0 46.87624170604845" Properties=species:S:1:pos:R:3:tags:I:1:forces:R:3 charge=0 spin=0 energy=-206.42912746390465 free_energy=-206.42912746390465 stress="0.010478166863322258 2.5159827998777473e-08 2.1298369290434493e-08 2.5159827998777473e-08 0.010478184558451176 -1.2578705188559525e-08 2.1298369290434493e-08 -1.2578705188559525e-08 -7.635590009158477e-05" pbc="T T T"
Pt      -0.00000005       0.00000022      19.95723419        4       0.00026323       0.00002596       0.01786331
Pt       2.80721406      -0.00000018      19.95723436        4       0.00023130       0.00000429       0.01875894
Pt       5.61442778      -0.00000006      19.95723442        4      -0.00011832       0.00020360       0.01874776
Pt       1.40360717       2.43111838      19.95723425        4      -0.00010110       0.00019768       0.01851214
Pt       4.21082080       2.43111835      19.95723435        4      -0.00011463      -0.00020097       0.01875709
Pt       7.01803478       2.43111843      19.95723423        4       0.00021816      -0.00000719       0.01850676
Pt       2.80721408       4.86223724      19.95723395        4      -0.00015082       0.00020644       0.01786789
Pt       5.61442803       4.86223730      19.95723413        4      -0.00010933      -0.00024084       0.01786475
Pt       8.42164138       4.86223726      19.95723427        4      -0.00011783      -0.00019178       0.01851223
Pt       1.40360728       0.81037260      22.29206790        3       0.00063381      -0.00061635      -0.05272615
Pt       4.21082128       0.81037250      22.29206784        3      -0.00000368       0.00000353      -0.05015310
Pt       7.01803477       0.81037260      22.29206779        3      -0.00072164       0.00021128      -0.05244013
Pt       2.80721450       3.24149125      22.29206775        3       0.00017034      -0.00073612      -0.05241947
Pt       5.61442762       3.24149123      22.29206790        3      -0.00085438      -0.00024159      -0.05272673
Pt       8.42164156       3.24149116      22.29206805        3       0.00000412       0.00000187      -0.05191158
Pt       4.21082094       5.67260998      22.29206797        3      -0.00000361       0.00000391      -0.04675162
Pt       7.01803488       5.67261038      22.29206774        3       0.00054283       0.00052069      -0.05241589
Pt       9.82524823       5.67261061      22.29206804        3       0.00022873       0.00084694      -0.05271555
Pt      -0.00000056       1.62074572      24.58417389        2      -0.00095508      -0.00162310       0.04178562
Pt       2.80721443       1.62074548      24.58417398        2      -0.00153535       0.00046301       0.03540489
Pt       5.61442779       1.62074532      24.58417370        2       0.00115453       0.00112322       0.03540914
Pt       1.40360636       4.05186439      24.58417390        2       0.00190421      -0.00001245       0.04182064
Pt       4.21082088       4.05186401      24.58417381        2      -0.00000288       0.00445271       0.03639043
Pt       7.01803503       4.05186407      24.58417407        2      -0.00094574       0.00166149       0.04182364
Pt       2.80721279       6.48298345      24.58417372        2       0.00388510      -0.00224022       0.03635189
Pt       5.61442797       6.48298324      24.58417392        2      -0.00386098      -0.00225216       0.03634443
Pt       8.42164222       6.48298343      24.58417383        2       0.00036227      -0.00155338       0.03540311
Pt      -0.00027118       0.00075399      26.91723444        1       0.00022264      -0.00373065      -0.00945714
Pt       2.80495755      -0.00036288      26.91578262        1       0.01040225       0.00450208       0.00054938
Pt       5.61587681      -0.00176396      26.91577777        1      -0.00907610       0.00678459       0.00054692
Pt       1.40427048       2.43130764      26.91711379        1      -0.00186400       0.00102160      -0.00695416
Pt       4.21162869       2.43325133      26.91579513        1      -0.00132296      -0.01124707       0.00062192
Pt       7.01786603       2.43044965      26.91711183        1       0.00181544       0.00110530      -0.00691762
Pt       2.80669936       4.86162673      26.91725006        1       0.00311966       0.00202051      -0.00933081
Pt       5.61521590       4.86210104      26.91725486        1      -0.00333411       0.00164697      -0.00929711
Pt       8.42114795       4.86273328      26.91711798        1       0.00003595      -0.00212526      -0.00687407
N        4.21082161       0.81036849      30.95649821        0      -0.00012555      -0.00002539      -0.00118252
H        5.02550883       0.32650780      30.55794250        0       0.03433981      -0.02040692       0.00212188
H        3.38444011       0.34675770      30.55793890        0      -0.03472696      -0.01946428       0.00218112
H        4.22251313       1.75783947      30.55794262        0       0.00051056       0.03990786       0.00212786
