40
Lattice="8.421641763931781 0.0 0.0 4.2108208819658905 7.293355709136913 0.0 0.0 0.0 46.87624170604845" Properties=species:S:1:pos:R:3:tags:I:1:forces:R:3 charge=0 spin=0 energy=-206.42709423026207 free_energy=-206.42709423026207 stress="0.010525133460760117 -5.78642982418387e-07 -6.898402915567203e-08 -5.78642982418387e-07 0.01052539236843586 7.933421670713869e-07 -6.898402915567203e-08 7.933421670713869e-07 -1.919195165100973e-05" pbc="T T T"
Pt      -0.00000005       0.00000022      19.95723419        4       0.00003390      -0.00014252       0.01865699
Pt       2.80721406      -0.00000018      19.95723436        4      -0.00007410       0.00022999       0.01809278
Pt       5.61442778      -0.00000006      19.95723442        4       0.00023433      -0.00005022       0.01808619
Pt       1.40360717       2.43111838      19.95723425        4       0.00010128       0.00010046       0.01864895
Pt       4.21082080       2.43111835      19.95723435        4       0.00029680       0.00045245       0.01848943
Pt       7.01803478       2.43111843      19.95723423        4      -0.00013962       0.00004653       0.01865073
Pt       2.80721408       4.86223724      19.95723395        4       0.00023979      -0.00047713       0.01848642
Pt       5.61442803       4.86223730      19.95723413        4      -0.00053266       0.00003149       0.01849119
Pt       8.42164138       4.86223726      19.95723427        4      -0.00017013      -0.00018064       0.01809785
Pt       1.40360728       0.81037260      22.29206790        3      -0.00063744       0.00075990      -0.05366800
Pt       4.21082128       0.81037250      22.29206784        3      -0.00053079       0.00109393      -0.04934337
Pt       7.01803477       0.81037260      22.29206779        3       0.00096484       0.00020299      -0.05362955
Pt       2.80721450       3.24149125      22.29206775        3      -0.00088456       0.00006989      -0.05231446
Pt       5.61442762       3.24149123      22.29206790        3       0.00038590      -0.00077631      -0.05227286
Pt       8.42164156       3.24149116      22.29206805        3      -0.00031616      -0.00093915      -0.05365723
Pt       4.21082094       5.67260998      22.29206797        3       0.00046390       0.00071830      -0.05227436
Pt       7.01803488       5.67261038      22.29206774        3      -0.00069513      -0.00097447      -0.04928521
Pt       9.82524823       5.67261061      22.29206804        3       0.00120400      -0.00009902      -0.04930422
Pt      -0.00000056       1.62074572      24.58417389        2      -0.00003314      -0.00010820       0.02095076
Pt       2.80721443       1.62074548      24.58417398        2       0.00973276      -0.00037098       0.04715154
Pt       5.61442779       1.62074532      24.58417370        2      -0.00927937      -0.00189584       0.04677276
Pt       1.40360636       4.05186439      24.58417390        2       0.00297202       0.00904196       0.04681440
Pt       4.21082088       4.05186401      24.58417381        2       0.00006598       0.00006748       0.06395333
Pt       7.01803503       4.05186407      24.58417407        2      -0.00457469       0.00859431       0.04729158
Pt       2.80721279       6.48298345      24.58417372        2      -0.00499286      -0.00817079       0.04730925
Pt       5.61442797       6.48298324      24.58417392        2       0.00619743      -0.00707262       0.04703780
Pt       8.42164222       6.48298343      24.58417383        2      -0.00000471      -0.00002955       0.03996847
Pt      -0.00117710       0.00045044      26.91438180        1       0.00276650      -0.01230300       0.00720161
Pt       2.80724070      -0.00037550      26.91851861        1       0.00143361      -0.00116510      -0.01398185
Pt       5.61413652       0.00015721      26.91849087        1      -0.00183139      -0.00061502      -0.01384108
Pt       1.40386327       2.42986087      26.91424800        1       0.00918417       0.00857377       0.00768656
Pt       4.21190634       2.43192896      26.92236504        1      -0.00312182      -0.00251813      -0.02858654
Pt       7.01898673       2.43195955      26.91427892        1      -0.01194082       0.00364597       0.00756696
Pt       2.80740561       4.86089856      26.92237834        1      -0.00067604       0.00404833      -0.02843771
Pt       5.61317131       4.86277627      26.92242788        1       0.00376817      -0.00134983      -0.02867594
Pt       8.42193662       4.86242374      26.91853930        1       0.00036475       0.00181928      -0.01393883
N        8.42159714       1.62339498      31.00018734        0       0.00001503      -0.00099145       0.03345016
H        7.93637739       2.43600543      30.59924802        0      -0.00881728       0.01272388      -0.01219301
H        9.37107717       1.63176360      30.60659423        0       0.01632765       0.00356147      -0.01189778
H        7.95745922       0.79158810      30.61398799        0      -0.00749992      -0.01555246      -0.01155395
