40
Lattice="8.421641763931781 0.0 0.0 4.2108208819658905 7.293355709136913 0.0 0.0 0.0 46.87624170604845" Properties=species:S:1:pos:R:3:tags:I:1:forces:R:3 charge=0 spin=0 energy=-206.42543483695152 free_energy=-206.42543483695152 stress="0.010535081848502159 1.0525498510105535e-05 4.745520982396556e-06 1.0525498510105535e-05 0.010511559434235096 -1.2852814279540326e-06 4.745520982396556e-06 -1.2852814279540326e-06 -3.320186078781262e-05" pbc="T T T"
Pt      -0.00000005       0.00000022      19.95723419        4      -0.00040924      -0.00072108       0.01839528
Pt       2.80721406      -0.00000018      19.95723436        4      -0.00058348      -0.00056188       0.01881787
Pt       5.61442778      -0.00000006      19.95723442        4      -0.00032214      -0.00035145       0.01765195
Pt       1.40360717       2.43111838      19.95723425        4      -0.00083130      -0.00033692       0.01891886
Pt       4.21082080       2.43111835      19.95723435        4      -0.00040959      -0.00041962       0.01848564
Pt       7.01803478       2.43111843      19.95723423        4      -0.00031552       0.00010881       0.01870423
Pt       2.80721408       4.86223724      19.95723395        4      -0.00078067      -0.00061897       0.01754889
Pt       5.61442803       4.86223730      19.95723413        4      -0.00028111      -0.00073423       0.01861708
Pt       8.42164138       4.86223726      19.95723427        4      -0.00090205      -0.00027613       0.01832722
Pt       1.40360728       0.81037260      22.29206790        3      -0.00189672      -0.00133411      -0.05182673
Pt       4.21082128       0.81037250      22.29206784        3      -0.00352753      -0.00030528      -0.05314239
Pt       7.01803477       0.81037260      22.29206779        3      -0.00200044      -0.00080816      -0.05153656
Pt       2.80721450       3.24149125      22.29206775        3      -0.00303465      -0.00239690      -0.05398042
Pt       5.61442762       3.24149123      22.29206790        3      -0.00336386      -0.00159220      -0.05390947
Pt       8.42164156       3.24149116      22.29206805        3      -0.00210702      -0.00241793      -0.05169107
Pt       4.21082094       5.67260998      22.29206797        3      -0.00104980      -0.00134325      -0.05056296
Pt       7.01803488       5.67261038      22.29206774        3      -0.00191617      -0.00078454      -0.05200398
Pt       9.82524823       5.67261061      22.29206804        3      -0.00315429      -0.00209721      -0.04560219
Pt      -0.00000056       1.62074572      24.58417389        2       0.00419879       0.00964822       0.03687814
Pt       2.80721443       1.62074548      24.58417398        2       0.00417931       0.00511928       0.02422224
Pt       5.61442779       1.62074532      24.58417370        2       0.01592756      -0.00345928       0.04265542
Pt       1.40360636       4.05186439      24.58417390        2       0.00508134       0.00816654       0.05357791
Pt       4.21082088       4.05186401      24.58417381        2       0.00454489       0.01898256       0.04464662
Pt       7.01803503       4.05186407      24.58417407        2       0.01057195       0.00616769       0.05715353
Pt       2.80721279       6.48298345      24.58417372        2      -0.00326950      -0.00195394       0.03976641
Pt       5.61442797       6.48298324      24.58417392        2       0.01079974      -0.00327691       0.03631767
Pt       8.42164222       6.48298343      24.58417383        2       0.01111635      -0.00115275       0.05057868
Pt       0.00715262       0.00487794      26.91172602        1      -0.00365464      -0.00247716       0.01541542
Pt       2.81631231       0.00582548      26.91573063        1       0.00139680      -0.01335321       0.00163475
Pt       5.62200924       0.00442969      26.92092593        1       0.00546358       0.00241907      -0.02261378
Pt       1.41404252       2.43656439      26.91752897        1      -0.01137884       0.00733795      -0.00539345
Pt       4.22258889       2.43814775      26.91091459        1      -0.00484741      -0.00556710       0.01804573
Pt       7.02901940       2.43780195      26.91948928        1      -0.01148685      -0.00441285      -0.01700754
Pt       2.81522347       4.86747127      26.92180015        1       0.00403912       0.00219166      -0.02597851
Pt       5.62502732       4.86900500      26.92081628        1      -0.01070742      -0.00832692      -0.02046631
Pt       8.43129956       4.86687585      26.92319804        1      -0.00466642       0.00026007      -0.02937114
N        2.10716007       1.20373267      30.83612238        0      -0.00230854       0.00930397       0.01349051
H        2.57092192       2.03907548      30.45659062        0       0.00935269       0.00043817      -0.00364573
H        2.57355063       0.39202081      30.41071325        0      -0.00864514       0.00457777      -0.00518900
H        1.14606923       1.21481274      30.47112031        0       0.00117811      -0.01364167      -0.00592881
