40
Lattice="8.421641763931781 0.0 0.0 4.2108208819658905 7.293355709136913 0.0 0.0 0.0 46.87624170604845" Properties=species:S:1:pos:R:3:tags:I:1:forces:R:3 charge=0 spin=0 energy=-206.42854190787438 free_energy=-206.42854190787438 stress="0.010263732634484768 -4.0677804236111115e-08 -1.5286107934997517e-09 -4.0677804236111115e-08 0.010263752192258835 4.188973790064665e-08 -1.5286107934997517e-09 4.188973790064665e-08 -0.00025902624474838376" pbc="T T T"
Pt      -0.00000005       0.00000022      19.95723419        4       0.00000219      -0.00000123       0.02011260
Pt       2.80721406      -0.00000018      19.95723436        4      -0.00061009       0.00202026       0.01991492
Pt       5.61442778      -0.00000006      19.95723442        4      -0.00041371       0.00104692       0.02004714
Pt       1.40360717       2.43111838      19.95723425        4       0.00111180      -0.00016228       0.02007823
Pt       4.21082080       2.43111835      19.95723435        4       0.00000196       0.00000106      -0.00001374
Pt       7.01803478       2.43111843      19.95723423        4      -0.00144104      -0.00153437       0.01991818
Pt       2.80721408       4.86223724      19.95723395        4       0.00204840      -0.00048526       0.01990705
Pt       5.61442803       4.86223730      19.95723413        4      -0.00070021      -0.00088305       0.02007914
Pt       8.42164138       4.86223726      19.95723427        4       0.00000055      -0.00000334       0.02031262
Pt       1.40360728       0.81037260      22.29206790        3       0.00008761      -0.00140847      -0.05886374
Pt       4.21082128       0.81037250      22.29206784        3      -0.00109000      -0.00486512      -0.04542533
Pt       7.01803477       0.81037260      22.29206779        3       0.00117980       0.00075491      -0.05889016
Pt       2.80721450       3.24149125      22.29206775        3      -0.00365676       0.00335674      -0.04544346
Pt       5.61442762       3.24149123      22.29206790        3       0.00473730       0.00151841      -0.04543896
Pt       8.42164156       3.24149116      22.29206805        3      -0.00072512       0.00158395      -0.05646152
Pt       4.21082094       5.67260998      22.29206797        3      -0.00126595       0.00065991      -0.05890987
Pt       7.01803488       5.67261038      22.29206774        3       0.00172715      -0.00013042      -0.05645901
Pt       9.82524823       5.67261061      22.29206804        3      -0.00099791      -0.00146241      -0.05649461
Pt      -0.00000056       1.62074572      24.58417389        2       0.00341157      -0.00894509       0.01469468
Pt       2.80721443       1.62074548      24.58417398        2       0.02269722       0.01369023      -0.01436761
Pt       5.61442779       1.62074532      24.58417370        2      -0.02317324       0.01279646      -0.01426277
Pt       1.40360636       4.05186439      24.58417390        2      -0.03407749       0.02276321       0.07000125
Pt       4.21082088       4.05186401      24.58417381        2       0.00049213      -0.02648936      -0.01430625
Pt       7.01803503       4.05186407      24.58417407        2       0.03675028       0.01810479       0.07004386
Pt       2.80721279       6.48298345      24.58417372        2       0.00601998       0.00746048       0.01476612
Pt       5.61442797       6.48298324      24.58417392        2      -0.00947075       0.00150921       0.01470482
Pt       8.42164222       6.48298343      24.58417383        2      -0.00264651      -0.04088508       0.07005426
Pt       0.00000062      -0.00000098      26.92175492        1      -0.00000183       0.00000084       0.00088607
Pt       2.80139990       0.00756989      26.91013477        1       0.00370032      -0.00410357       0.00504407
Pt       5.62000901       0.00701288      26.91009882        1      -0.00390368      -0.00414748       0.00488974
Pt       1.40688151       2.42278010      26.91006579        1      -0.00161135       0.00546306       0.00491262
Pt       4.21082140       2.43111894      26.91819588        1      -0.00000179      -0.00000079       0.00044298
Pt       7.01438680       2.42228798      26.91015664        1       0.00168949       0.00527449       0.00502041
Pt       2.81667710       4.86349846      26.91013087        1      -0.00539599      -0.00117321       0.00508792
Pt       5.60557086       4.86356294      26.91006920        1       0.00552084      -0.00131889       0.00495874
Pt       8.42164086       4.86223677      26.93298009        1       0.00000466      -0.00000485       0.03796788
N        8.42164162       4.86223685      29.84016531        0      -0.00003248       0.00000675       0.04925224
H        7.56952140       5.35412246      29.56516770        0      -0.02016016       0.01141668      -0.00258078
H        9.27368590       5.35425226      29.56516763        0       0.02000033       0.01176112      -0.00259133
H        8.42171604       3.87833714      29.56516776        0       0.00019254      -0.02318543      -0.00258844
