40
Lattice="8.421641763931781 0.0 0.0 4.2108208819658905 7.293355709136913 0.0 0.0 0.0 46.87624170604845" Properties=species:S:1:pos:R:3:tags:I:1:forces:R:3 charge=0 spin=0 energy=-206.42513919791344 free_energy=-206.42513919791344 stress="0.010473926551640034 4.106331743969349e-06 -1.1149793408549158e-06 4.106331743969349e-06 0.010501503944396973 -2.6603297555993777e-06 -1.1149793408549158e-06 -2.6603297555993777e-06 -9.1345384134911e-05" pbc="T T T"
Pt      -0.00000005       0.00000022      19.95723419        4       0.00039828       0.00060861       0.01854157
Pt       2.80721406      -0.00000018      19.95723436        4      -0.00085267       0.00097692       0.01851180
Pt       5.61442778      -0.00000006      19.95723442        4      -0.00034530       0.00096715       0.01861454
Pt       1.40360717       2.43111838      19.95723425        4      -0.00026663       0.00078360       0.01869077
Pt       4.21082080       2.43111835      19.95723435        4       0.00003895       0.00112408       0.01726904
Pt       7.01803478       2.43111843      19.95723423        4      -0.00044947       0.00071669       0.01733225
Pt       2.80721408       4.86223724      19.95723395        4      -0.00023134       0.00099076       0.01888029
Pt       5.61442803       4.86223730      19.95723413        4       0.00015267       0.00122524       0.01851386
Pt       8.42164138       4.86223726      19.95723427        4       0.00003183       0.00097477       0.01886553
Pt       1.40360728       0.81037260      22.29206790        3       0.00022371       0.00473366      -0.05125041
Pt       4.21082128       0.81037250      22.29206784        3       0.00003294       0.00272042      -0.05187568
Pt       7.01803477       0.81037260      22.29206779        3      -0.00060605       0.00328307      -0.05238640
Pt       2.80721450       3.24149125      22.29206775        3      -0.00023522       0.00528615      -0.05347048
Pt       5.61442762       3.24149123      22.29206790        3      -0.00007949       0.00495554      -0.04569027
Pt       8.42164156       3.24149116      22.29206805        3       0.00073753       0.00452716      -0.05291718
Pt       4.21082094       5.67260998      22.29206797        3      -0.00121276       0.00397254      -0.05255174
Pt       7.01803488       5.67261038      22.29206774        3       0.00044594       0.00336266      -0.05295470
Pt       9.82524823       5.67261061      22.29206804        3      -0.00027068       0.00367474      -0.05081503
Pt      -0.00000056       1.62074572      24.58417389        2       0.00008308      -0.01137331       0.03046600
Pt       2.80721443       1.62074548      24.58417398        2       0.00295707      -0.01258439       0.03034271
Pt       5.61442779       1.62074532      24.58417370        2       0.00053515      -0.00735522       0.03145761
Pt       1.40360636       4.05186439      24.58417390        2       0.00204450      -0.00962776       0.03586033
Pt       4.21082088       4.05186401      24.58417381        2       0.00220663      -0.01003424       0.03868778
Pt       7.01803503       4.05186407      24.58417407        2      -0.00188257      -0.01036387       0.03753178
Pt       2.80721279       6.48298345      24.58417372        2      -0.00298739      -0.01339005       0.03445702
Pt       5.61442797       6.48298324      24.58417392        2      -0.00021766      -0.01488987       0.04295154
Pt       8.42164222       6.48298343      24.58417383        2       0.00205259      -0.01532779       0.03566184
Pt      -0.00120956      -0.01608239      26.91518811        1       0.01172884       0.00881664       0.00422728
Pt       2.80979559      -0.01550821      26.91543502        1      -0.01157141       0.00770897       0.00346869
Pt       5.61546762      -0.01283163      26.91626790        1      -0.00003387      -0.00401363      -0.00686737
Pt       1.40383881       2.41364266      26.91595845        1      -0.00007779       0.01213860      -0.00299891
Pt       4.20846849       2.41573426      26.91538370        1       0.01585992       0.00507730       0.00215199
Pt       7.02130317       2.41630898      26.91507209        1      -0.01669212       0.00411614       0.00326702
Pt       2.81119180       4.84620737      26.91739241        1      -0.01721975       0.00986345      -0.00657100
Pt       5.61496800       4.84670893      26.91922514        1       0.00023110       0.00600658      -0.01555871
Pt       8.41897641       4.84637839      26.91726897        1       0.01555631       0.01282242      -0.00654536
N        9.82119560       4.87202759      30.75551255        0      -0.00012979      -0.01012075      -0.03838505
H        8.99926512       5.34864494      30.36055842        0       0.02634276       0.01657012       0.01297993
H       10.64896352       5.34857252      30.37288421        0      -0.02671002       0.01579968       0.01163137
H        9.82402332       3.92658679      30.35117557        0       0.00041221      -0.02472258       0.02047567
