40
Lattice="8.421641763931781 0.0 0.0 4.2108208819658905 7.293355709136913 0.0 0.0 0.0 46.87624170604845" Properties=species:S:1:pos:R:3:tags:I:1:forces:R:3 charge=0 spin=0 energy=-206.4280440898812 free_energy=-206.4280440898812 stress="0.010447540320456028 -5.030584393495019e-09 1.7365684001902082e-08 -5.030584393495019e-09 0.010447530075907707 -1.7111604577735307e-08 1.7365684001902082e-08 -1.7111604577735307e-08 -0.0001491932780481875" pbc="T T T"
Pt      -0.00000005       0.00000022      19.95723419        4       0.00047185      -0.00058442       0.01848846
Pt       2.80721406      -0.00000018      19.95723436        4      -0.00073965      -0.00011556       0.01849312
Pt       5.61442778      -0.00000006      19.95723442        4      -0.00012556       0.00012606       0.01775139
Pt       1.40360717       2.43111838      19.95723425        4      -0.00003880       0.00043311       0.01876437
Pt       4.21082080       2.43111835      19.95723435        4       0.00016980       0.00004709       0.01776486
Pt       7.01803478       2.43111843      19.95723423        4      -0.00004504      -0.00016609       0.01776615
Pt       2.80721408       4.86223724      19.95723395        4      -0.00035636      -0.00025423       0.01875078
Pt       5.61442803       4.86223730      19.95723413        4       0.00026692       0.00069670       0.01848511
Pt       8.42164138       4.86223726      19.95723427        4       0.00039760      -0.00018468       0.01875553
Pt       1.40360728       0.81037260      22.29206790        3       0.00047931       0.00053912      -0.05165251
Pt       4.21082128       0.81037250      22.29206784        3      -0.00005408      -0.00010893      -0.05117311
Pt       7.01803477       0.81037260      22.29206779        3       0.00012006       0.00000773      -0.05117785
Pt       2.80721450       3.24149125      22.29206775        3       0.00011555       0.00036330      -0.05168733
Pt       5.61442762       3.24149123      22.29206790        3      -0.00006221       0.00010417      -0.05119585
Pt       8.42164156       3.24149116      22.29206805        3       0.00025410      -0.00027396      -0.05168294
Pt       4.21082094       5.67260998      22.29206797        3      -0.00071254       0.00014874      -0.05167745
Pt       7.01803488       5.67261038      22.29206774        3       0.00022439      -0.00069181      -0.05166703
Pt       9.82524823       5.67261061      22.29206804        3      -0.00036488      -0.00008714      -0.05168638
Pt      -0.00000056       1.62074572      24.58417389        2       0.00522182       0.00246455       0.02569972
Pt       2.80721443       1.62074548      24.58417398        2      -0.00378450       0.00227964       0.02510480
Pt       5.61442779       1.62074532      24.58417370        2       0.00000920      -0.00000087       0.02100920
Pt       1.40360636       4.05186439      24.58417390        2       0.00000607      -0.00001585       0.04140433
Pt       4.21082088       4.05186401      24.58417381        2      -0.00474553       0.00330624       0.02568483
Pt       7.01803503       4.05186407      24.58417407        2       0.00385691       0.00214769       0.02505037
Pt       2.80721279       6.48298345      24.58417372        2      -0.00006804      -0.00442934       0.02509774
Pt       5.61442797       6.48298324      24.58417392        2      -0.00000938       0.00002286       0.04170183
Pt       8.42164222       6.48298343      24.58417383        2      -0.00048841      -0.00577485       0.02571038
Pt      -0.00361198       0.00218911      26.91348547        1       0.02405038      -0.01535968       0.00672695
Pt       2.81091419       0.00203548      26.91348500        1      -0.02532694      -0.01315192       0.00667600
Pt       5.61472128      -0.00263361      26.91251626        1       0.00063599       0.01122260       0.01412307
Pt       1.40318592       2.42811007      26.91832620        1       0.00056805       0.01566236      -0.01011462
Pt       4.20839174       2.43218055      26.91250983        1       0.00943711      -0.00617780       0.01402439
Pt       7.02016806       2.43269189      26.91251115        1      -0.01007601      -0.00506444       0.01405745
Pt       2.81003039       4.86337737      26.91831356        1      -0.01382165      -0.00734276      -0.01015071
Pt       5.61433781       4.85801602      26.91346311        1       0.00129341       0.02852182       0.00659949
Pt       8.41924483       4.86410664      26.91831327        1       0.01324824      -0.00831872      -0.01016337
N        9.82524970       4.05185900      30.84811892        0      -0.00005701       0.00003701      -0.01015544
H       10.65485149       4.51300274      30.45232033        0       0.01302320       0.00713073       0.00682263
H        9.80980581       3.10283677      30.45230579        0      -0.00033055      -0.01485458       0.00682526
H        9.01108861       4.53975012      30.45231967        0      -0.01264293       0.00769603       0.00684619
