40
Lattice="8.421641763931781 0.0 0.0 4.2108208819658905 7.293355709136913 0.0 0.0 0.0 46.87624170604845" Properties=species:S:1:pos:R:3:tags:I:1:forces:R:3 charge=0 spin=0 energy=-206.99282337149742 free_energy=-206.99282337149742 stress="0.010041479021310806 -9.754491259172937e-08 -1.9575056242615574e-08 -9.754491259172937e-08 0.010041476227343082 5.302498440329373e-10 -1.9575056242615574e-08 5.302498440329373e-10 -0.0001747974893078208" pbc="T T T"
Pt      -0.00000005       0.00000022      19.95723419        4       0.00249427      -0.00436145       0.02149920
Pt       2.80721406      -0.00000018      19.95723436        4      -0.00140988      -0.00510623       0.02217642
Pt       5.61442778      -0.00000006      19.95723442        4      -0.00000104       0.00000424       0.01856420
Pt       1.40360717       2.43111838      19.95723425        4      -0.00000007       0.00000079       0.02436785
Pt       4.21082080       2.43111835      19.95723435        4       0.00252753       0.00433715       0.02150766
Pt       7.01803478       2.43111843      19.95723423        4      -0.00371676       0.00377154       0.02212316
Pt       2.80721408       4.86223724      19.95723395        4       0.00512297       0.00133548       0.02215509
Pt       5.61442803       4.86223730      19.95723413        4      -0.00000156      -0.00000271      -0.04318864
Pt       8.42164138       4.86223726      19.95723427        4      -0.00501612       0.00002025       0.02152403
Pt       1.40360728       0.81037260      22.29206790        3       0.00199834      -0.00068887      -0.07438374
Pt       4.21082128       0.81037250      22.29206784        3       0.00298602       0.00094920      -0.04525028
Pt       7.01803477       0.81037260      22.29206779        3      -0.00072926      -0.00308304      -0.04528516
Pt       2.80721450       3.24149125      22.29206775        3      -0.00037453       0.00210799      -0.07423358
Pt       5.61442762       3.24149123      22.29206790        3      -0.00149319       0.02584286      -0.08390094
Pt       8.42164156       3.24149116      22.29206805        3      -0.00163030      -0.00141050      -0.07428602
Pt       4.21082094       5.67260998      22.29206797        3       0.02315244      -0.01165076      -0.08393656
Pt       7.01803488       5.67261038      22.29206774        3      -0.02166186      -0.01419146      -0.08395211
Pt       9.82524823       5.67261061      22.29206804        3      -0.00225375       0.00213233      -0.04519150
Pt      -0.00000056       1.62074572      24.58417389        2       0.00706495       0.00868332       0.01799979
Pt       2.80721443       1.62074548      24.58417398        2      -0.01111243       0.00179848       0.01794094
Pt       5.61442779       1.62074532      24.58417370        2      -0.00462947      -0.15920235       0.24152224
Pt       1.40360636       4.05186439      24.58417390        2       0.00405446      -0.01047629       0.01776601
Pt       4.21082088       4.05186401      24.58417381        2       0.03695134       0.02438550      -0.06721084
Pt       7.01803503       4.05186407      24.58417407        2      -0.03957187       0.01976928      -0.06711869
Pt       2.80721279       6.48298345      24.58417372        2      -0.13552791       0.08360002       0.24149273
Pt       5.61442797       6.48298324      24.58417392        2       0.00260713      -0.04415530      -0.06697103
Pt       8.42164222       6.48298343      24.58417383        2       0.14016944       0.07560325       0.24152654
Pt       0.01770810      -0.00203770      26.90784042        1       0.02422708       0.01461905      -0.01244394
Pt       2.79000934      -0.00148352      26.90707807        1      -0.02551281       0.01521177      -0.01262900
Pt       5.61442832      -0.00000136      26.99524197        1      -0.00000063       0.00000127       0.03443534
Pt       1.40361067       2.43111983      26.92918742        1       0.00000177      -0.00000433      -0.01948317
Pt       4.20374246       2.44747257      26.90784341        1      -0.02476982       0.01367384      -0.01246014
Pt       7.02535753       2.44676015      26.90707964        1       0.02593986       0.01448338      -0.01257397
Pt       2.81709810       4.84807965      26.90707515        1      -0.00043144      -0.02970675      -0.01268438
Pt       5.61442507       4.86223735      26.92455797        1       0.00000257      -0.00000074      -0.00622840
Pt       8.41101311       4.84792175      26.90783787        1       0.00054573      -0.02829124      -0.01242898
N        5.61442852      -0.00000147      29.15768924        0      -0.00013308       0.00009638      -0.03578840
H        6.45638154       0.48515682      29.49437815        0      -0.03809474      -0.02195893       0.00169079
H        5.61360938      -0.97173276      29.49437831        0       0.00004339       0.04395971       0.00169758
H        4.77329086       0.48657488      29.49437874        0       0.03818294      -0.02209621       0.00163986
