40
Lattice="8.421641763931781 0.0 0.0 4.2108208819658905 7.293355709136913 0.0 0.0 0.0 46.87624170604845" Properties=species:S:1:pos:R:3:tags:I:1:forces:R:3 charge=0 spin=0 energy=-206.42601085623863 free_energy=-206.42601085623863 stress="0.010491274297237396 -6.22940490302426e-07 2.360348361207798e-08 -6.22940490302426e-07 0.010491007938981056 5.44003228242218e-07 2.360348361207798e-08 5.44003228242218e-07 -4.3534382712095976e-05" pbc="T T T"
Pt      -0.00000005       0.00000022      19.95723419        4       0.00032087      -0.00003323       0.01782675
Pt       2.80721406      -0.00000018      19.95723436        4       0.00029769       0.00015561       0.01881738
Pt       5.61442778      -0.00000006      19.95723442        4      -0.00028266       0.00018638       0.01880531
Pt       1.40360717       2.43111838      19.95723425        4      -0.00013142       0.00028947       0.01852370
Pt       4.21082080       2.43111835      19.95723435        4      -0.00001942      -0.00033207       0.01880192
Pt       7.01803478       2.43111843      19.95723423        4       0.00031316      -0.00002811       0.01852136
Pt       2.80721408       4.86223724      19.95723395        4      -0.00012562       0.00027900       0.01784467
Pt       5.61442803       4.86223730      19.95723413        4      -0.00019193      -0.00026541       0.01783517
Pt       8.42164138       4.86223726      19.95723427        4      -0.00017661      -0.00026610       0.01853318
Pt       1.40360728       0.81037260      22.29206790        3       0.00039367      -0.00072504      -0.05301618
Pt       4.21082128       0.81037250      22.29206784        3       0.00000148       0.00000901      -0.04732249
Pt       7.01803477       0.81037260      22.29206779        3      -0.00025450       0.00007289      -0.05319165
Pt       2.80721450       3.24149125      22.29206775        3       0.00006160      -0.00033575      -0.05312753
Pt       5.61442762       3.24149123      22.29206790        3      -0.00082026      -0.00001020      -0.05301791
Pt       8.42164156       3.24149116      22.29206805        3       0.00000326      -0.00001605      -0.05176569
Pt       4.21082094       5.67260998      22.29206797        3       0.00002292       0.00003808      -0.04714903
Pt       7.01803488       5.67261038      22.29206774        3       0.00021845       0.00018108      -0.05316462
Pt       9.82524823       5.67261061      22.29206804        3       0.00040293       0.00069433      -0.05298766
Pt      -0.00000056       1.62074572      24.58417389        2      -0.00084211      -0.00474368       0.03807124
Pt       2.80721443       1.62074548      24.58417398        2       0.00543063      -0.00475791       0.03784358
Pt       5.61442779       1.62074532      24.58417370        2      -0.00674526      -0.00259548       0.03790973
Pt       1.40360636       4.05186439      24.58417390        2       0.00453706       0.00174301       0.03811690
Pt       4.21082088       4.05186401      24.58417381        2      -0.00021857       0.00304677       0.05155755
Pt       7.01803503       4.05186407      24.58417407        2      -0.00368813       0.00316261       0.03809263
Pt       2.80721279       6.48298345      24.58417372        2       0.00249171      -0.00116523       0.05186563
Pt       5.61442797       6.48298324      24.58417392        2      -0.00234078      -0.00150556       0.05181945
Pt       8.42164222       6.48298343      24.58417383        2       0.00130860       0.00722790       0.03816688
Pt       0.00046118       0.00302902      26.91941483        1      -0.00052065      -0.02401341      -0.02012721
Pt       2.80628508      -0.00076502      26.92032415        1      -0.00168981       0.00190520      -0.01810114
Pt       5.61558090      -0.00035565      26.92037584        1      -0.00075626      -0.00239199      -0.01822043
Pt       1.40628173       2.42988770      26.91404428        1      -0.01400129       0.00826671       0.00674438
Pt       4.21058318       2.43241306      26.92017400        1       0.00247882       0.00045158      -0.01763428
Pt       7.01557992       2.42945340      26.91404919        1       0.01414580       0.00806413       0.00673900
Pt       2.80436246       4.86124022      26.91942051        1       0.02116216       0.01132527      -0.01995539
Pt       5.61678266       4.86040365      26.91941190        1      -0.02063881       0.01220351      -0.01993213
Pt       8.42139154       4.86525150      26.91407969        1      -0.00015646      -0.01620626       0.00672723
N        4.21080789       0.81400786      30.84430148        0      -0.00011408      -0.00142818      -0.02737003
H        3.74068331      -0.01304414      30.45455607        0      -0.02531074      -0.03978908       0.01273774
H        3.73394473       1.62706869      30.43377536        0      -0.02106341       0.04078611       0.01192416
H        5.15781875       0.81257454      30.44414358        0       0.04649788       0.00052003       0.01225781
