40
Lattice="8.421641763931781 0.0 0.0 4.2108208819658905 7.293355709136913 0.0 0.0 0.0 46.87624170604845" Properties=species:S:1:pos:R:3:tags:I:1:forces:R:3 charge=0 spin=0 energy=-206.42412258109215 free_energy=-206.42412258109215 stress="0.010430331341922283 8.368880344278296e-08 -2.1412519757291193e-08 8.368880344278296e-08 0.01043035089969635 -7.854326078415852e-09 -2.1412519757291193e-08 -7.854326078415852e-09 -0.00017858519277069718" pbc="T T T"
Pt      -0.00000005       0.00000022      19.95723419        4       0.00007667      -0.00028300       0.01850254
Pt       2.80721406      -0.00000018      19.95723436        4      -0.00028212       0.00007712       0.01850580
Pt       5.61442778      -0.00000006      19.95723442        4      -0.00024905      -0.00047613       0.01782077
Pt       1.40360717       2.43111838      19.95723425        4      -0.00020304       0.00000597       0.01855413
Pt       4.21082080       2.43111835      19.95723435        4      -0.00028806       0.00045600       0.01782824
Pt       7.01803478       2.43111843      19.95723423        4       0.00053784       0.00002831       0.01783171
Pt       2.80721408       4.86223724      19.95723395        4       0.00009624      -0.00018155       0.01854056
Pt       5.61442803       4.86223730      19.95723413        4       0.00020530       0.00020800       0.01849439
Pt       8.42164138       4.86223726      19.95723427        4       0.00010933       0.00017182       0.01854656
Pt       1.40360728       0.81037260      22.29206790        3       0.00038874      -0.00022623      -0.05292986
Pt       4.21082128       0.81037250      22.29206784        3      -0.00037485      -0.00053517      -0.05219677
Pt       7.01803477       0.81037260      22.29206779        3       0.00065932      -0.00005088      -0.05219890
Pt       2.80721450       3.24149125      22.29206775        3       0.00111716       0.00037825      -0.04910146
Pt       5.61442762       3.24149123      22.29206790        3      -0.00027529       0.00060470      -0.05223148
Pt       8.42164156       3.24149116      22.29206805        3      -0.00023120      -0.00114850      -0.04909677
Pt       4.21082094       5.67260998      22.29206797        3       0.00000272       0.00045245      -0.05296975
Pt       7.01803488       5.67261038      22.29206774        3      -0.00038763      -0.00022228      -0.05295804
Pt       9.82524823       5.67261061      22.29206804        3      -0.00087550       0.00077501      -0.04909662
Pt      -0.00000056       1.62074572      24.58417389        2      -0.00068966       0.00973053       0.03279729
Pt       2.80721443       1.62074548      24.58417398        2       0.00152796       0.00878109       0.02658218
Pt       5.61442779       1.62074532      24.58417370        2       0.00000137      -0.00003764       0.03961910
Pt       1.40360636       4.05186439      24.58417390        2      -0.00000275      -0.00000977       0.00466488
Pt       4.21082088       4.05186401      24.58417381        2      -0.00811931      -0.00545566       0.03278672
Pt       7.01803503       4.05186407      24.58417407        2       0.00683420      -0.00574544       0.02655238
Pt       2.80721279       6.48298345      24.58417372        2      -0.00838735      -0.00306226       0.02661037
Pt       5.61442797       6.48298324      24.58417392        2      -0.00002121       0.00002469      -0.00176025
Pt       8.42164222       6.48298343      24.58417383        2       0.00878364      -0.00429969       0.03282616
Pt       0.00155773      -0.00143750      26.90690196        1      -0.01857834       0.01458965       0.03470249
Pt       2.80518456      -0.00065338      26.90689740        1       0.02192764       0.00880070       0.03472942
Pt       5.61662653      -0.00147343      26.91764731        1      -0.01020671       0.02063947      -0.01099656
Pt       1.40461834       2.43702528      26.91732378        1      -0.00861944      -0.04775838      -0.00144493
Pt       4.20844339       2.42991894      26.91760897        1       0.02298804      -0.00144021      -0.01085811
Pt       7.01818610       2.43374758      26.91761453        1      -0.01278123      -0.01916972      -0.01088958
Pt       2.80156840       4.86015373      26.91732318        1       0.04569782       0.01641364      -0.00142595
Pt       5.61487680       4.86430254      26.90687024        1      -0.00336686      -0.02339653       0.03483809
Pt       8.42624514       4.85838355      26.91732476        1      -0.03701285       0.03136289      -0.00142816
N        9.82530397       4.05191835      30.81914597        0       0.00005984       0.00005840      -0.00112816
H        9.12367803       3.41248657      30.42417722        0      -0.01109212      -0.01203103       0.00376893
H        9.62238244       4.97926363      30.42417584        0      -0.00495594       0.01576611       0.00380434
H       10.72990320       3.76401334      30.42422566        0       0.01598685      -0.00379462       0.00380412
