40
Lattice="8.421641763931781 0.0 0.0 4.2108208819658905 7.293355709136913 0.0 0.0 0.0 46.87624170604845" Properties=species:S:1:pos:R:3:tags:I:1:forces:R:3 charge=0 spin=0 energy=-206.4284103008187 free_energy=-206.4284103008187 stress="0.010261652991175652 -4.3687134620995494e-07 -1.9066900946995702e-08 -4.3687134620995494e-07 0.010261639021337032 -1.5812123876912665e-07 -1.9066900946995702e-08 -1.5812123876912665e-07 -0.0002623471082188189" pbc="T T T"
Pt      -0.00000005       0.00000022      19.95723419        4       0.00123003      -0.00001656       0.02020268
Pt       2.80721406      -0.00000018      19.95723436        4      -0.00000175       0.00000230      -0.00016959
Pt       5.61442778      -0.00000006      19.95723442        4      -0.00133623      -0.00143932       0.01973199
Pt       1.40360717       2.43111838      19.95723425        4       0.00191491      -0.00043658       0.01972849
Pt       4.21082080       2.43111835      19.95723435        4      -0.00062644      -0.00105257       0.02020607
Pt       7.01803478       2.43111843      19.95723423        4      -0.00000162       0.00000247       0.02024659
Pt       2.80721408       4.86223724      19.95723395        4       0.00000042      -0.00000312       0.02019473
Pt       5.61442803       4.86223730      19.95723413        4      -0.00058169       0.00187845       0.01973714
Pt       8.42164138       4.86223726      19.95723427        4      -0.00059857       0.00106467       0.02018154
Pt       1.40360728       0.81037260      22.29206790        3      -0.00251360       0.00459385      -0.04505515
Pt       4.21082128       0.81037250      22.29206784        3       0.00522855      -0.00007892      -0.04504534
Pt       7.01803477       0.81037260      22.29206779        3      -0.00149460       0.00159848      -0.05604356
Pt       2.80721450       3.24149125      22.29206775        3      -0.00256756       0.00038903      -0.05981715
Pt       5.61442762       3.24149123      22.29206790        3       0.00212997       0.00053209      -0.05605238
Pt       8.42164156       3.24149116      22.29206805        3      -0.00063067      -0.00211877      -0.05608659
Pt       4.21082094       5.67260998      22.29206797        3       0.00096576      -0.00239551      -0.05976477
Pt       7.01803488       5.67261038      22.29206774        3      -0.00272366      -0.00450592      -0.04502898
Pt       9.82524823       5.67261061      22.29206804        3       0.00160083       0.00199871      -0.05979407
Pt      -0.00000056       1.62074572      24.58417389        2      -0.03396731       0.02358551       0.07021159
Pt       2.80721443       1.62074548      24.58417398        2      -0.00009624      -0.02641538      -0.01499708
Pt       5.61442779       1.62074532      24.58417370        2       0.03740452       0.01760147       0.07025098
Pt       1.40360636       4.05186439      24.58417390        2       0.00657380       0.00703071       0.01466887
Pt       4.21082088       4.05186401      24.58417381        2      -0.00936671       0.00221971       0.01460854
Pt       7.01803503       4.05186407      24.58417407        2      -0.00340640      -0.04120504       0.07028554
Pt       2.80721279       6.48298345      24.58417372        2       0.00276021      -0.00921994       0.01460025
Pt       5.61442797       6.48298324      24.58417392        2       0.02292727       0.01313945      -0.01506838
Pt       8.42164222       6.48298343      24.58417383        2      -0.02282334       0.01325299      -0.01495287
Pt       0.00369255      -0.00883224      26.90929516        1      -0.00189520       0.00583121       0.00543690
Pt       2.80721452      -0.00000023      26.91840442        1       0.00000000      -0.00000339       0.00046879
Pt       5.61094934      -0.00835440      26.91071331        1       0.00157656       0.00497987       0.00489761
Pt       1.41257359       2.43228921      26.91068657        1      -0.00509600      -0.00112057       0.00497085
Pt       4.20132852       2.43232992      26.90929993        1       0.00598823      -0.00125587       0.00546629
Pt       7.01803457       2.43110625      26.93299185        1       0.00000226      -0.00000935       0.03850577
Pt       2.80721335       4.86223577      26.92159324        1       0.00000451      -0.00000221       0.00070214
Pt       5.60893993       4.86942249      26.91069331        1       0.00350536      -0.00388023       0.00491182
Pt       8.42744111       4.86985899      26.90933039        1      -0.00408701      -0.00459499       0.00539157
N        7.01803418       2.43122888      29.83992003        0       0.00013790       0.00141917       0.04945198
H        8.00209857       2.43086610      29.56563812        0       0.02310761       0.00032644      -0.00236875
H        6.52592126       1.57897389      29.56601590        0      -0.01233122      -0.02096474      -0.00266090
H        6.52608635       3.28341923      29.56525927        0      -0.01091295       0.01927251      -0.00215333
