40
Lattice="8.421641763931781 0.0 0.0 4.2108208819658905 7.293355709136913 0.0 0.0 0.0 46.87624170604845" Properties=species:S:1:pos:R:3:tags:I:1:forces:R:3 charge=0 spin=0 energy=-206.4243991466439 free_energy=-206.4243991466439 stress="0.010484722442924976 -9.314403541793581e-06 -2.0375550775497686e-06 -9.314403541793581e-06 0.010449815541505814 -5.224369488132652e-06 -2.0375550775497686e-06 -5.224369488132652e-06 -0.0001235429081134498" pbc="T T T"
Pt      -0.00000005       0.00000022      19.95723419        4      -0.00032408      -0.00041263       0.01796884
Pt       2.80721406      -0.00000018      19.95723436        4       0.00037276      -0.00076015       0.01828159
Pt       5.61442778      -0.00000006      19.95723442        4       0.00006067      -0.00042346       0.01837149
Pt       1.40360717       2.43111838      19.95723425        4       0.00043215      -0.00019288       0.01775869
Pt       4.21082080       2.43111835      19.95723435        4       0.00025965      -0.00043070       0.01853006
Pt       7.01803478       2.43111843      19.95723423        4      -0.00002507       0.00000935       0.01822609
Pt       2.80721408       4.86223724      19.95723395        4       0.00009905      -0.00013373       0.01836492
Pt       5.61442803       4.86223730      19.95723413        4       0.00008078      -0.00034436       0.01891394
Pt       8.42164138       4.86223726      19.95723427        4       0.00043542      -0.00027477       0.01831259
Pt       1.40360728       0.81037260      22.29206790        3       0.00106675      -0.00275109      -0.04957780
Pt       4.21082128       0.81037250      22.29206784        3       0.00075836      -0.00020698      -0.05275260
Pt       7.01803477       0.81037260      22.29206779        3       0.00043442       0.00002997      -0.05129119
Pt       2.80721450       3.24149125      22.29206775        3       0.00222191      -0.00184285      -0.05164034
Pt       5.61442762       3.24149123      22.29206790        3       0.00019437      -0.00124255      -0.05244062
Pt       8.42164156       3.24149116      22.29206805        3      -0.00137663      -0.00111389      -0.05079092
Pt       4.21082094       5.67260998      22.29206797        3       0.00034426      -0.00170904      -0.05096987
Pt       7.01803488       5.67261038      22.29206774        3      -0.00027087      -0.00136337      -0.05298275
Pt       9.82524823       5.67261061      22.29206804        3       0.00049573      -0.00207067      -0.05137252
Pt      -0.00000056       1.62074572      24.58417389        2       0.00050818       0.00184286       0.02448108
Pt       2.80721443       1.62074548      24.58417398        2      -0.00729999       0.00444092       0.02778082
Pt       5.61442779       1.62074532      24.58417370        2       0.00179367      -0.00264945       0.03317074
Pt       1.40360636       4.05186439      24.58417390        2      -0.00488393       0.00081051       0.03091303
Pt       4.21082088       4.05186401      24.58417381        2       0.00065672       0.00510562       0.02657825
Pt       7.01803503       4.05186407      24.58417407        2      -0.00040464       0.00865174       0.03765996
Pt       2.80721279       6.48298345      24.58417372        2      -0.00017145       0.00594138       0.03082256
Pt       5.61442797       6.48298324      24.58417392        2      -0.00415885       0.00201221       0.03210960
Pt       8.42164222       6.48298343      24.58417383        2      -0.00016312       0.00465275       0.03369929
Pt      -0.00208775       0.00586012      26.91545740        1      -0.00086576      -0.00648778       0.00091800
Pt       2.80468430       0.00447488      26.91251759        1       0.00623860       0.00407617       0.00890986
Pt       5.61337300       0.00115185      26.91676228        1      -0.00185067       0.01757282      -0.00379026
Pt       1.39853408       2.43708040      26.91544113        1       0.01499445      -0.00381213      -0.00018507
Pt       4.20842094       2.43428065      26.91322319        1       0.00028812      -0.00089254       0.00302158
Pt       7.01648446       2.43549928      26.91435456        1      -0.00647740      -0.00093842       0.00579051
Pt       2.80658696       4.86706900      26.91418522        1       0.00017192      -0.00471043       0.01065394
Pt       5.61244911       4.86753061      26.91707695        1       0.00417480      -0.00644867      -0.00014909
Pt       8.42141361       4.86870513      26.91660673        1      -0.00809078      -0.01363506      -0.00268021
N        5.01492148       3.62517615      31.01036380        0       0.00682297      -0.00474175       0.00941240
H        5.53405014       4.51175133      31.04963630        0      -0.00716048       0.02076449       0.00105322
H        5.58167396       2.99037838      30.43316371        0       0.00018668      -0.02105677      -0.00878910
H        4.16072401       3.81536028      30.47007403        0       0.00043121       0.00473539      -0.00229062
