40
Lattice="8.421641763931781 0.0 0.0 4.2108208819658905 7.293355709136913 0.0 0.0 0.0 46.87624170604845" Properties=species:S:1:pos:R:3:tags:I:1:forces:R:3 charge=0 spin=0 energy=-206.42705608328941 free_energy=-206.42705608328941 stress="0.010526328347623348 -5.716328246307967e-07 -7.147694702780427e-08 -5.716328246307967e-07 0.010526124387979507 -9.43535440001142e-07 -7.147694702780427e-08 -9.43535440001142e-07 -1.9386745407246053e-05" pbc="T T T"
Pt      -0.00000005       0.00000022      19.95723419        4       0.00032295      -0.00019098       0.01805898
Pt       2.80721406      -0.00000018      19.95723436        4       0.00001697      -0.00012289       0.01863663
Pt       5.61442778      -0.00000006      19.95723442        4       0.00001268       0.00038106       0.01804119
Pt       1.40360717       2.43111838      19.95723425        4      -0.00012442       0.00005132       0.01865529
Pt       4.21082080       2.43111835      19.95723435        4       0.00009880       0.00008042       0.01865217
Pt       7.01803478       2.43111843      19.95723423        4       0.00023658       0.00044945       0.01852120
Pt       2.80721408       4.86223724      19.95723395        4      -0.00033880      -0.00018613       0.01805052
Pt       5.61442803       4.86223730      19.95723413        4       0.00027006      -0.00042873       0.01853097
Pt       8.42164138       4.86223726      19.95723427        4      -0.00050434      -0.00003081       0.01852535
Pt       1.40360728       0.81037260      22.29206790        3       0.00103987       0.00013090      -0.05343844
Pt       4.21082128       0.81037250      22.29206784        3      -0.00062473       0.00082636      -0.05351269
Pt       7.01803477       0.81037260      22.29206779        3      -0.00018566       0.00103177      -0.04951020
Pt       2.80721450       3.24149125      22.29206775        3      -0.00040603      -0.00091352      -0.05342181
Pt       5.61442762       3.24149123      22.29206790        3      -0.00092254       0.00012436      -0.05226495
Pt       8.42164156       3.24149116      22.29206805        3       0.00033702      -0.00085043      -0.05220615
Pt       4.21082094       5.67260998      22.29206797        3       0.00093018      -0.00038773      -0.04953955
Pt       7.01803488       5.67261038      22.29206774        3       0.00056610       0.00077299      -0.05221855
Pt       9.82524823       5.67261061      22.29206804        3      -0.00077700      -0.00064394      -0.04951738
Pt      -0.00000056       1.62074572      24.58417389        2      -0.00982717      -0.00130172       0.04687154
Pt       2.80721443       1.62074548      24.58417398        2      -0.00009709       0.00022379       0.02003794
Pt       5.61442779       1.62074532      24.58417370        2       0.00821291      -0.00018426       0.04684791
Pt       1.40360636       4.05186439      24.58417390        2      -0.00386646       0.00715023       0.04701325
Pt       4.21082088       4.05186401      24.58417381        2       0.00373673       0.00930500       0.04692051
Pt       7.01803503       4.05186407      24.58417407        2       0.00004520      -0.00004975       0.06382895
Pt       2.80721279       6.48298345      24.58417372        2       0.00001716      -0.00013871       0.04119457
Pt       5.61442797       6.48298324      24.58417392        2      -0.00453179      -0.00711786       0.04643990
Pt       8.42164222       6.48298343      24.58417383        2       0.00638786      -0.00815134       0.04659038
Pt      -0.00028999       0.00043904      26.91845696        1      -0.00221901      -0.00242204      -0.01389873
Pt       2.80739830       0.00055637      26.91420847        1      -0.00157276      -0.01369019       0.00800023
Pt       5.61420446      -0.00054221      26.91846522        1       0.00316692      -0.00069729      -0.01394114
Pt       1.40409633       2.43063325      26.91451918        1      -0.01119468       0.00812927       0.00702521
Pt       4.21015913       2.43090798      26.91443092        1       0.01275479       0.00556494       0.00722761
Pt       7.01691445       2.43188132      26.92214008        1       0.00346700      -0.00129557      -0.02770902
Pt       2.80777542       4.86222097      26.91854002        1      -0.00094782       0.00309492      -0.01410255
Pt       5.61569827       4.86276170      26.92214842        1      -0.00301926      -0.00248971      -0.02773928
Pt       8.42155048       4.86078491      26.92220458        1      -0.00049555       0.00347603      -0.02796065
N        2.80718025       1.61552196      31.00059836        0      -0.00020231       0.00152087       0.03139130
H        3.27776921       0.79771404      30.59266260        0       0.00377228      -0.01129098      -0.01185463
H        1.85749733       1.62780733      30.60739335        0      -0.01237104      -0.00014643      -0.01133281
H        3.28635721       2.44240475      30.62206632        0       0.00883630       0.01041710      -0.01089294
