40
Lattice="8.421641763931781 0.0 0.0 4.2108208819658905 7.293355709136913 0.0 0.0 0.0 46.87624170604845" Properties=species:S:1:pos:R:3:tags:I:1:forces:R:3 charge=0 spin=0 energy=-206.4243991466439 free_energy=-206.4243991466439 stress="0.010484720580279827 -9.318539014202543e-06 -2.047032239715918e-06 -9.318539014202543e-06 0.010449829511344433 -5.206648438615957e-06 -2.047032239715918e-06 -5.206648438615957e-06 -0.0001235395611729473" pbc="T T T"
Pt      -0.00000005       0.00000022      19.95723419        4       0.00043503      -0.00019513       0.01775731
Pt       2.80721406      -0.00000018      19.95723436        4       0.00025594      -0.00042963       0.01852881
Pt       5.61442778      -0.00000006      19.95723442        4      -0.00002454       0.00001127       0.01821645
Pt       1.40360717       2.43111838      19.95723425        4       0.00009823      -0.00012895       0.01836471
Pt       4.21082080       2.43111835      19.95723435        4       0.00008366      -0.00033961       0.01891420
Pt       7.01803478       2.43111843      19.95723423        4       0.00043342      -0.00026934       0.01831333
Pt       2.80721408       4.86223724      19.95723395        4      -0.00032587      -0.00041479       0.01797031
Pt       5.61442803       4.86223730      19.95723413        4       0.00037338      -0.00076558       0.01828250
Pt       8.42164138       4.86223726      19.95723427        4       0.00006254      -0.00043074       0.01838008
Pt       1.40360728       0.81037260      22.29206790        3       0.00222732      -0.00184282      -0.05163854
Pt       4.21082128       0.81037250      22.29206784        3       0.00018840      -0.00123786      -0.05243992
Pt       7.01803477       0.81037260      22.29206779        3      -0.00137825      -0.00111412      -0.05078819
Pt       2.80721450       3.24149125      22.29206775        3       0.00034061      -0.00171077      -0.05097237
Pt       5.61442762       3.24149123      22.29206790        3      -0.00026501      -0.00135839      -0.05298508
Pt       8.42164156       3.24149116      22.29206805        3       0.00049264      -0.00205710      -0.05137615
Pt       4.21082094       5.67260998      22.29206797        3       0.00106573      -0.00274973      -0.04957590
Pt       7.01803488       5.67261038      22.29206774        3       0.00075998      -0.00021698      -0.05275119
Pt       9.82524823       5.67261061      22.29206804        3       0.00044019       0.00001698      -0.05129285
Pt      -0.00000056       1.62074572      24.58417389        2      -0.00487862       0.00080879       0.03091533
Pt       2.80721443       1.62074548      24.58417398        2       0.00064424       0.00510238       0.02658203
Pt       5.61442779       1.62074532      24.58417370        2      -0.00039808       0.00865101       0.03765758
Pt       1.40360636       4.05186439      24.58417390        2      -0.00017701       0.00594239       0.03082611
Pt       4.21082088       4.05186401      24.58417381        2      -0.00415607       0.00202408       0.03211603
Pt       7.01803503       4.05186407      24.58417407        2      -0.00016418       0.00466602       0.03370060
Pt       2.80721279       6.48298345      24.58417372        2       0.00051777       0.00183786       0.02448351
Pt       5.61442797       6.48298324      24.58417392        2      -0.00729782       0.00443418       0.02778416
Pt       8.42164222       6.48298343      24.58417383        2       0.00178140      -0.00266076       0.03317650
Pt      -0.00507228       0.00596014      26.91544308        1       0.01499211      -0.00380694      -0.00018889
Pt       2.80481259       0.00316050      26.91322540        1       0.00029440      -0.00088284       0.00301483
Pt       5.61287800       0.00437892      26.91435693        1      -0.00648589      -0.00093013       0.00578599
Pt       1.40297945       2.43595017      26.91418869        1       0.00017873      -0.00471266       0.01063776
Pt       4.20884210       2.43641064      26.91707236        1       0.00417288      -0.00644213      -0.00013556
Pt       7.01780988       2.43758463      26.91660388        1      -0.00811149      -0.01362425      -0.00266545
Pt       2.80512318       4.86809912      26.91545866        1      -0.00085577      -0.00650304       0.00091143
Pt       5.61189515       4.86671298      26.91251986        1       0.00624908       0.00406134       0.00888776
Pt       8.42058491       4.86338897      26.91676076        1      -0.00184733       0.01757112      -0.00379212
N        3.61131907       1.19405932      31.01043251        0       0.00689542      -0.00477416       0.00942521
H        2.75712398       1.38424635      30.47014210        0       0.00037409       0.00475091      -0.00232029
H        4.13044673       2.08063540      31.04970960        0      -0.00716391       0.02073811       0.00104810
H        4.17807119       0.55926430      30.43322668        0       0.00017267      -0.02101814      -0.00875784
