40
Lattice="8.421641763931781 0.0 0.0 4.2108208819658905 7.293355709136913 0.0 0.0 0.0 46.87624170604845" Properties=species:S:1:pos:R:3:tags:I:1:forces:R:3 charge=0 spin=0 energy=-206.42434192618492 free_energy=-206.42434192618492 stress="0.010479115881025791 9.192206107400125e-09 -8.837497955660467e-10 9.192206107400125e-09 0.010479124262928963 -3.560775008182304e-09 -8.837497955660467e-10 -3.560775008182304e-09 -6.819055852247402e-05" pbc="T T T"
Pt      -0.00000005       0.00000022      19.95723419        4      -0.00009637      -0.00024662       0.01792141
Pt       2.80721406      -0.00000018      19.95723436        4      -0.00017737      -0.00050054       0.01846161
Pt       5.61442778      -0.00000006      19.95723442        4      -0.00016365       0.00021039       0.01791433
Pt       1.40360717       2.43111838      19.95723425        4       0.00032962       0.00010528       0.01878125
Pt       4.21082080       2.43111835      19.95723435        4      -0.00025362       0.00023215       0.01877734
Pt       7.01803478       2.43111843      19.95723423        4       0.00026081       0.00004016       0.01791698
Pt       2.80721408       4.86223724      19.95723395        4      -0.00007325      -0.00033952       0.01877809
Pt       5.61442803       4.86223730      19.95723413        4       0.00051859       0.00009699       0.01845222
Pt       8.42164138       4.86223726      19.95723427        4      -0.00034393       0.00039986       0.01845659
Pt       1.40360728       0.81037260      22.29206790        3       0.00055449       0.00065337      -0.05288648
Pt       4.21082128       0.81037250      22.29206784        3       0.00013045       0.00105299      -0.05338922
Pt       7.01803477       0.81037260      22.29206779        3       0.00000282       0.00000474      -0.04616950
Pt       2.80721450       3.24149125      22.29206775        3      -0.00000776       0.00000094      -0.04872474
Pt       5.61442762       3.24149123      22.29206790        3      -0.00083452       0.00015789      -0.05291705
Pt       8.42164156       3.24149116      22.29206805        3       0.00084531      -0.00063455      -0.05340729
Pt       4.21082094       5.67260998      22.29206797        3      -0.00097641      -0.00040773      -0.05340468
Pt       7.01803488       5.67261038      22.29206774        3      -0.00000159      -0.00000835      -0.05050350
Pt       9.82524823       5.67261061      22.29206804        3       0.00029019      -0.00082047      -0.05288509
Pt      -0.00000056       1.62074572      24.58417389        2      -0.00498726      -0.00282542       0.04804160
Pt       2.80721443       1.62074548      24.58417398        2       0.00145827       0.00502551       0.03288427
Pt       5.61442779       1.62074532      24.58417370        2       0.00493000      -0.00292890       0.04804816
Pt       1.40360636       4.05186439      24.58417390        2       0.00361772      -0.00378741       0.03283949
Pt       4.21082088       4.05186401      24.58417381        2      -0.00509157      -0.00122929       0.03285913
Pt       7.01803503       4.05186407      24.58417407        2      -0.00108047      -0.00372057       0.03620895
Pt       2.80721279       6.48298345      24.58417372        2       0.00007970       0.00570976       0.04806285
Pt       5.61442797       6.48298324      24.58417392        2      -0.00270355       0.00281603       0.03626316
Pt       8.42164222       6.48298343      24.58417383        2       0.00376809       0.00094772       0.03625680
Pt       0.00354615      -0.00186213      26.91893032        1      -0.02600926       0.01458178      -0.01865304
Pt       2.80690525       0.00283815      26.91427544        1       0.00021430      -0.01690955       0.00761915
Pt       5.61103714      -0.00214444      26.91892932        1       0.02565947       0.01523487      -0.01868536
Pt       1.40206233       2.43041912      26.91806274        1       0.00068217       0.00195203      -0.00923534
Pt       4.21220425       2.43013559      26.91806300        1      -0.00205356      -0.00038964      -0.00925805
Pt       7.01787107       2.43512937      26.91890591        1       0.00039226      -0.02985453      -0.01875790
Pt       2.80736926       4.86392392      26.91807107        1       0.00139752      -0.00158414      -0.00920913
Pt       5.61212639       4.86054850      26.91426338        1       0.01453736       0.00871436       0.00756425
Pt       8.42425362       4.86109263      26.91426015        1      -0.01481193       0.00824759       0.00755874
N        2.80721403       3.24149090      30.85931789        0       0.00003885      -0.00003031      -0.02282441
H        3.62178657       3.72496918      30.45964775        0       0.03427535       0.02058402       0.01042109
H        2.81863365       2.29431077      30.45964878        0       0.00068157      -0.03996024       0.01042340
H        1.98122372       3.70519166      30.45964813        0      -0.03499897       0.01940923       0.01039989
