40
Lattice="8.421641763931781 0.0 0.0 4.2108208819658905 7.293355709136913 0.0 0.0 0.0 46.87624170604845" Properties=species:S:1:pos:R:3:tags:I:1:forces:R:3 charge=0 spin=0 energy=-206.4284961315072 free_energy=-206.4284961315072 stress="0.010476953350007534 -1.4282224292117007e-08 -3.150567806642357e-08 -1.4282224292117007e-08 0.010476998053491116 -2.7341007680092844e-08 -3.150567806642357e-08 -2.7341007680092844e-08 -0.00015316814824473113" pbc="T T T"
Pt      -0.00000005       0.00000022      19.95723419        4      -0.00039317       0.00000629       0.01775508
Pt       2.80721406      -0.00000018      19.95723436        4       0.00018617      -0.00034519       0.01775343
Pt       5.61442778      -0.00000006      19.95723442        4      -0.00010564       0.00002634       0.01853248
Pt       1.40360717       2.43111838      19.95723425        4       0.00020729       0.00034049       0.01775508
Pt       4.21082080       2.43111835      19.95723435        4       0.00034864       0.00015934       0.01872136
Pt       7.01803478       2.43111843      19.95723423        4      -0.00031179       0.00022180       0.01871837
Pt       2.80721408       4.86223724      19.95723395        4       0.00007637       0.00007519       0.01853617
Pt       5.61442803       4.86223730      19.95723413        4      -0.00003929      -0.00038049       0.01871138
Pt       8.42164138       4.86223726      19.95723427        4       0.00002888      -0.00010557       0.01853059
Pt       1.40360728       0.81037260      22.29206790        3      -0.00000251       0.00000343      -0.05127211
Pt       4.21082128       0.81037250      22.29206784        3      -0.00027481       0.00053927      -0.05208183
Pt       7.01803477       0.81037260      22.29206779        3       0.00091939       0.00092081      -0.05235154
Pt       2.80721450       3.24149125      22.29206775        3       0.00032935      -0.00124488      -0.05236908
Pt       5.61442762       3.24149123      22.29206790        3       0.00000115       0.00000709      -0.04837050
Pt       8.42164156       3.24149116      22.29206805        3      -0.00032037      -0.00049057      -0.05210879
Pt       4.21082094       5.67260998      22.29206797        3       0.00058628      -0.00002709      -0.05209494
Pt       7.01803488       5.67261038      22.29206774        3      -0.00126155       0.00033250      -0.05237360
Pt       9.82524823       5.67261061      22.29206804        3       0.00000395      -0.00000784      -0.05060316
Pt      -0.00000056       1.62074572      24.58417389        2      -0.00717857       0.00391504       0.02444245
Pt       2.80721443       1.62074548      24.58417398        2       0.00697593       0.00426858       0.02442290
Pt       5.61442779       1.62074532      24.58417370        2       0.00043172       0.00050939       0.02983532
Pt       1.40360636       4.05186439      24.58417390        2      -0.00080178       0.00338837       0.02890290
Pt       4.21082088       4.05186401      24.58417381        2       0.00021790      -0.00061444       0.02982139
Pt       7.01803503       4.05186407      24.58417407        2      -0.00064141       0.00012917       0.02983928
Pt       2.80721279       6.48298345      24.58417372        2      -0.00251229      -0.00237828       0.02893853
Pt       5.61442797       6.48298324      24.58417392        2       0.00020948      -0.00818545       0.02445727
Pt       8.42164222       6.48298343      24.58417383        2       0.00331606      -0.00098827       0.02894171
Pt      -0.00011686      -0.00038298      26.91032536        1      -0.00133753      -0.00037399       0.01742270
Pt       2.80760819       0.00009900      26.91032946        1       0.00096947      -0.00102246       0.01744213
Pt       5.61385049       0.00147065      26.91507540        1       0.00045647      -0.00925251       0.00155697
Pt       1.40332912       2.43140332      26.91031229        1       0.00037221       0.00133047       0.01744314
Pt       4.21243889       2.43279516      26.91818792        1      -0.01548780      -0.00946533      -0.00549456
Pt       7.01577393       2.43168241      26.91818770        1       0.01594847      -0.00866392      -0.00550032
Pt       2.80876461       4.86200368      26.91505984        1      -0.00823006       0.00422528       0.00152003
Pt       5.61507001       4.86000101      26.91818946        1      -0.00046445       0.01812952      -0.00553410
Pt       8.42066590       4.86100503      26.91506344        1       0.00777996       0.00501383       0.00153352
N        5.61442856       3.24148954      30.88558703        0       0.00008218      -0.00006968      -0.00756406
H        4.78274522       2.77771562      30.49476690        0       0.04274488       0.02390254       0.00538334
H        5.62862978       4.19363485      30.49476641        0      -0.00068274      -0.04895767       0.00537723
H        6.43191021       2.75311677      30.49476111        0      -0.04214645       0.02512902       0.00542381
