40
Lattice="8.421641763931781 0.0 0.0 4.2108208819658905 7.293355709136913 0.0 0.0 0.0 46.87624170604845" Properties=species:S:1:pos:R:3:tags:I:1:forces:R:3 charge=0 spin=0 energy=-206.994030723182 free_energy=-206.994030723182 stress="0.010009774006903172 -1.2969488238923077e-07 -2.120999376131749e-09 -1.2969488238923077e-07 0.01000989694148302 -2.7572991712077055e-07 -2.120999376131749e-09 -2.7572991712077055e-07 -0.00023343264183495194" pbc="T T T"
Pt      -0.00000005       0.00000022      19.95723419        4      -0.00400053       0.00406526       0.02228194
Pt       2.80721406      -0.00000018      19.95723436        4      -0.00000239       0.00000436       0.02418024
Pt       5.61442778      -0.00000006      19.95723442        4       0.00261921       0.00439366       0.02111703
Pt       1.40360717       2.43111838      19.95723425        4      -0.00510566       0.00008362       0.02114784
Pt       4.21082080       2.43111835      19.95723435        4       0.00552139       0.00144375       0.02231332
Pt       7.01803478       2.43111843      19.95723423        4      -0.00000168      -0.00000204      -0.04340851
Pt       2.80721408       4.86223724      19.95723395        4       0.00000077       0.00000005       0.01863795
Pt       5.61442803       4.86223730      19.95723413        4       0.00248372      -0.00446754       0.02112104
Pt       8.42164138       4.86223726      19.95723427        4      -0.00151716      -0.00550678       0.02234014
Pt       1.40360728       0.81037260      22.29206790        3      -0.00120361      -0.00038256      -0.07485016
Pt       4.21082128       0.81037250      22.29206784        3       0.00029800       0.00123674      -0.07479970
Pt       7.01803477       0.81037260      22.29206779        3      -0.00285976       0.02655730      -0.08294045
Pt       2.80721450       3.24149125      22.29206775        3      -0.00284112       0.00245041      -0.04600518
Pt       5.61442762       3.24149123      22.29206790        3       0.02445559      -0.01081117      -0.08299410
Pt       8.42164156       3.24149116      22.29206805        3      -0.02158419      -0.01571010      -0.08301237
Pt       4.21082094       5.67260998      22.29206797        3      -0.00069954      -0.00371786      -0.04609636
Pt       7.01803488       5.67261038      22.29206774        3       0.00089798      -0.00083158      -0.07494792
Pt       9.82524823       5.67261061      22.29206804        3       0.00353848       0.00129569      -0.04606731
Pt      -0.00000056       1.62074572      24.58417389        2      -0.04492236       0.02057313      -0.08044013
Pt       2.80721443       1.62074548      24.58417398        2       0.00520190      -0.00923614       0.00729646
Pt       5.61442779       1.62074532      24.58417370        2       0.04038027       0.02857125      -0.08056622
Pt       1.40360636       4.05186439      24.58417390        2       0.14076693       0.07639150       0.24922951
Pt       4.21082088       4.05186401      24.58417381        2      -0.13653657       0.08368445       0.24918714
Pt       7.01803503       4.05186407      24.58417407        2       0.00453354      -0.04922109      -0.08028360
Pt       2.80721279       6.48298345      24.58417372        2      -0.00419920      -0.16014253       0.24918179
Pt       5.61442797       6.48298324      24.58417392        2       0.00536835       0.00903817       0.00754987
Pt       8.42164222       6.48298343      24.58417383        2      -0.01059435       0.00014465       0.00746820
Pt       0.01112146       0.01967100      26.90568630        1      -0.00471082      -0.01863061      -0.00742708
Pt       2.80721494      -0.00002347      26.92827583        1       0.00001373      -0.00004434      -0.01175671
Pt       5.60387289       0.01950295      26.90627878        1       0.00263219      -0.01360814      -0.00276735
Pt       1.39195931       2.41213597      26.90627558        1       0.01040344       0.00913623      -0.00273576
Pt       4.22233647       2.41158342      26.90566609        1      -0.01377887       0.01339838      -0.00745197
Pt       7.01803296       2.43110054      26.92480069        1       0.00000343      -0.00003318       0.00275419
Pt       2.80721155       4.86212163      26.99539390        1      -0.00000794       0.00007149       0.00341660
Pt       5.63662469       4.86162131      26.90628507        1      -0.01302642       0.00439864      -0.00279092
Pt       8.39900456       4.86200648      26.90567352        1       0.01848116       0.00514394      -0.00744900
N        2.80721523       4.86225240      29.15363898        0      -0.00005657       0.00002884      -0.01608193
H        3.77892431       4.86081139      29.49067798        0      -0.04279447      -0.00012786       0.00189127
H        2.32005516       4.02158577      29.49094633        0       0.02100879       0.03728529       0.00145001
H        2.32266546       5.70463545      29.49041271        0       0.02183421      -0.03692322       0.00230779
