40
Lattice="8.421641763931781 0.0 0.0 4.2108208819658905 7.293355709136913 0.0 0.0 0.0 46.87624170604845" Properties=species:S:1:pos:R:3:tags:I:1:forces:R:3 charge=0 spin=0 energy=-206.41990352591637 free_energy=-206.41990352591637 stress="0.010420187376439571 -5.4251588153420016e-05 -8.688070010975935e-06 -5.4251588153420016e-05 0.010377271100878716 6.258610483200755e-06 -8.688070010975935e-06 6.258610483200755e-06 -0.00026029208675026894" pbc="T T T"
Pt      -0.00000005       0.00000022      19.95723419        4       0.00225340      -0.00070154       0.01860739
Pt       2.80721406      -0.00000018      19.95723436        4       0.00225847      -0.00131625       0.01866428
Pt       5.61442778      -0.00000006      19.95723442        4       0.00271331      -0.00040301       0.01849857
Pt       1.40360717       2.43111838      19.95723425        4       0.00213414      -0.00060560       0.01724096
Pt       4.21082080       2.43111835      19.95723435        4       0.00273600      -0.00144084       0.01826895
Pt       7.01803478       2.43111843      19.95723423        4       0.00191081      -0.00103678       0.01844115
Pt       2.80721408       4.86223724      19.95723395        4       0.00222841      -0.00102766       0.01732090
Pt       5.61442803       4.86223730      19.95723413        4       0.00261979      -0.00066526       0.01874921
Pt       8.42164138       4.86223726      19.95723427        4       0.00212963      -0.00053856       0.01819147
Pt       1.40360728       0.81037260      22.29206790        3       0.00915892      -0.00457413      -0.05137434
Pt       4.21082128       0.81037250      22.29206784        3       0.00767755      -0.00369868      -0.05414141
Pt       7.01803477       0.81037260      22.29206779        3       0.00846451      -0.00495112      -0.04930794
Pt       2.80721450       3.24149125      22.29206775        3       0.01048517      -0.00580447      -0.05011360
Pt       5.61442762       3.24149123      22.29206790        3       0.00828384      -0.00412907      -0.05385178
Pt       8.42164156       3.24149116      22.29206805        3       0.00825592      -0.00396658      -0.05167112
Pt       4.21082094       5.67260998      22.29206797        3       0.00962157      -0.00595474      -0.05148724
Pt       7.01803488       5.67261038      22.29206774        3       0.00855551      -0.00429369      -0.04907586
Pt       9.82524823       5.67261061      22.29206804        3       0.00725442      -0.00428143      -0.05112682
Pt      -0.00000056       1.62074572      24.58417389        2      -0.03201943       0.00683636       0.01725133
Pt       2.80721443       1.62074548      24.58417398        2      -0.02988143       0.00935369       0.00597595
Pt       5.61442779       1.62074532      24.58417370        2      -0.01641497       0.00801255       0.02260471
Pt       1.40360636       4.05186439      24.58417390        2      -0.02598064       0.01302573       0.01434499
Pt       4.21082088       4.05186401      24.58417381        2      -0.02480601       0.01890598       0.00654760
Pt       7.01803503       4.05186407      24.58417407        2      -0.02362491       0.01331747       0.01772949
Pt       2.80721279       6.48298345      24.58417372        2      -0.02440793       0.01889783       0.01874373
Pt       5.61442797       6.48298324      24.58417392        2      -0.02599685       0.01162114       0.00704167
Pt       8.42164222       6.48298343      24.58417383        2      -0.02461725       0.01345795       0.01839988
Pt      -0.02937865       0.01564496      26.91566259        1      -0.01731667       0.00920495       0.00214268
Pt       2.77448923       0.01856795      26.91315620        1       0.01961629      -0.01008518       0.01510723
Pt       5.57999605       0.01533599      26.91385523        1       0.02812965       0.00394203       0.01083424
Pt       1.36750553       2.44550322      26.90963579        1       0.02418726       0.01745853       0.02761829
Pt       4.17723532       2.44842096      26.90626315        1       0.01482681      -0.00672399       0.04137050
Pt       6.98503359       2.45046250      26.91365211        1       0.01188236      -0.02568515       0.01226513
Pt       2.77451453       4.88365224      26.91038183        1      -0.00081675      -0.02742415       0.02517455
Pt       5.57946351       4.87823263      26.91352574        1       0.01884989      -0.00910265       0.01416572
Pt       8.38688936       4.87977682      26.91423408        1       0.02792422      -0.01510394       0.00726516
N        6.21401265       6.13666420      30.73417700        0       0.00684262      -0.00358444       0.02505349
H        6.14688015       7.12770318      30.47053840        0      -0.01073668       0.01602260      -0.00661405
H        6.93803795       5.72424830      30.13253637        0       0.02386257      -0.01417083       0.00152302
H        5.32524299       5.69867126      30.46145633        0      -0.01824342       0.00121331      -0.00637791
