40
Lattice="8.421641763931781 0.0 0.0 4.2108208819658905 7.293355709136913 0.0 0.0 0.0 46.87624170604845" Properties=species:S:1:pos:R:3:tags:I:1:forces:R:3 charge=0 spin=0 energy=-206.42585636099938 free_energy=-206.42585636099938 stress="0.010472874157130718 1.2739805654859993e-08 1.7665789942000742e-09 1.2739805654859993e-08 0.010472897440195084 -4.5614374499791666e-09 1.7665789942000742e-09 -4.5614374499791666e-09 -0.00011294974683551118" pbc="T T T"
Pt      -0.00000005       0.00000022      19.95723419        4      -0.00064639      -0.00015496       0.01850989
Pt       2.80721406      -0.00000018      19.95723436        4      -0.00018917       0.00015413       0.01784840
Pt       5.61442778      -0.00000006      19.95723442        4       0.00045482      -0.00048299       0.01849634
Pt       1.40360717       2.43111838      19.95723425        4       0.00022480       0.00008690       0.01785232
Pt       4.21082080       2.43111835      19.95723435        4      -0.00003580      -0.00023472       0.01785264
Pt       7.01803478       2.43111843      19.95723423        4      -0.00005851       0.00018520       0.01875796
Pt       2.80721408       4.86223724      19.95723395        4       0.00019401       0.00063748       0.01850555
Pt       5.61442803       4.86223730      19.95723413        4       0.00018729      -0.00004340       0.01875480
Pt       8.42164138       4.86223726      19.95723427        4      -0.00013125      -0.00014446       0.01874846
Pt       1.40360728       0.81037260      22.29206790        3      -0.00045456      -0.00073606      -0.05008250
Pt       4.21082128       0.81037250      22.29206784        3       0.00085727      -0.00001919      -0.05008889
Pt       7.01803477       0.81037260      22.29206779        3       0.00052752       0.00055074      -0.05213290
Pt       2.80721450       3.24149125      22.29206775        3      -0.00041417       0.00076804      -0.05010101
Pt       5.61442762       3.24149123      22.29206790        3       0.00068177      -0.00006634      -0.05231521
Pt       8.42164156       3.24149116      22.29206805        3      -0.00026982       0.00062836      -0.05232038
Pt       4.21082094       5.67260998      22.29206797        3       0.00020893      -0.00072200      -0.05214280
Pt       7.01803488       5.67261038      22.29206774        3      -0.00040728      -0.00055448      -0.05231372
Pt       9.82524823       5.67261061      22.29206804        3      -0.00073069       0.00017237      -0.05215508
Pt      -0.00000056       1.62074572      24.58417389        2       0.00018815      -0.00128603       0.02883537
Pt       2.80721443       1.62074548      24.58417398        2      -0.00000224      -0.00001646       0.02591065
Pt       5.61442779       1.62074532      24.58417370        2       0.00041263      -0.00187256       0.03339560
Pt       1.40360636       4.05186439      24.58417390        2       0.00141009       0.00130129       0.03339326
Pt       4.21082088       4.05186401      24.58417381        2      -0.00119040       0.00048787       0.02881124
Pt       7.01803503       4.05186407      24.58417407        2      -0.00000187      -0.00000265       0.03368794
Pt       2.80721279       6.48298345      24.58417372        2       0.00000593       0.00000106       0.04723134
Pt       5.61442797       6.48298324      24.58417392        2      -0.00182253       0.00055266       0.03342076
Pt       8.42164222       6.48298343      24.58417383        2       0.00100216       0.00077346       0.02885431
Pt       0.00103870       0.00234584      26.91668076        1      -0.00836368      -0.01224863      -0.00470217
Pt       2.80899876      -0.00166513      26.91419920        1      -0.00751082       0.00921527       0.00665034
Pt       5.61186863      -0.00028599      26.91668542        1       0.01480476      -0.00110065      -0.00465281
Pt       1.40128084       2.43039287      26.91418707        1       0.01176727       0.00188936       0.00654597
Pt       4.21136279       2.43348463      26.91419074        1      -0.00425532      -0.01111022       0.00658902
Pt       7.01739767       2.42826683      26.91611595        1      -0.00154454       0.01188267      -0.00297605
Pt       2.80873342       4.86015238      26.91667021        1      -0.00643680       0.01337222      -0.00481366
Pt       5.61228320       4.86420217      26.91611802        1       0.01101773      -0.00458844      -0.00303648
Pt       8.42442137       4.86309854      26.91611944        1      -0.00947762      -0.00727737      -0.00303333
N        7.01800839       4.05179008      30.83770225        0       0.00001899      -0.00001576      -0.03183252
H        7.95633960       3.90934757      30.44070145        0       0.00235831       0.00110164       0.01335656
H        6.42538861       3.31061503      30.44042800        0      -0.00021675      -0.00260983       0.01336102
H        6.67234667       4.93582196      30.44100564        0      -0.00216262       0.00152676       0.01332952
