40
Lattice="8.421641763931781 0.0 0.0 4.2108208819658905 7.293355709136913 0.0 0.0 0.0 46.87624170604845" Properties=species:S:1:pos:R:3:tags:I:1:forces:R:3 charge=0 spin=0 energy=-206.4285781474984 free_energy=-206.4285781474984 stress="0.010264193639159203 -6.962613241512372e-08 -2.4663982856054645e-08 -6.962613241512372e-08 0.010264042764902115 3.6727165309002885e-08 -2.4663982856054645e-08 3.6727165309002885e-08 -0.000261106644757092" pbc="T T T"
Pt      -0.00000005       0.00000022      19.95723419        4      -0.00035458      -0.00109358       0.02001693
Pt       2.80721406      -0.00000018      19.95723436        4      -0.00000222       0.00000313       0.02017361
Pt       5.61442778      -0.00000006      19.95723442        4       0.00173292      -0.00062478       0.01993311
Pt       1.40360717       2.43111838      19.95723425        4      -0.00032346       0.00181945       0.01995270
Pt       4.21082080       2.43111835      19.95723435        4      -0.00076712       0.00085457       0.01999361
Pt       7.01803478       2.43111843      19.95723423        4      -0.00000243       0.00000191       0.02029787
Pt       2.80721408       4.86223724      19.95723395        4       0.00000178      -0.00000422      -0.00013083
Pt       5.61442803       4.86223730      19.95723413        4      -0.00141206      -0.00119252       0.01995565
Pt       8.42164138       4.86223726      19.95723427        4       0.00112687       0.00023481       0.02001500
Pt       1.40360728       0.81037260      22.29206790        3       0.00129649       0.00005394      -0.05527914
Pt       4.21082128       0.81037250      22.29206784        3      -0.00063972      -0.00116012      -0.05531538
Pt       7.01803477       0.81037260      22.29206779        3      -0.00127496       0.00030409      -0.06095988
Pt       2.80721450       3.24149125      22.29206775        3      -0.00138593      -0.00405296      -0.04471397
Pt       5.61442762       3.24149123      22.29206790        3       0.00087866       0.00094184      -0.06094025
Pt       8.42164156       3.24149116      22.29206805        3       0.00040868      -0.00124218      -0.06091380
Pt       4.21082094       5.67260998      22.29206797        3       0.00417138       0.00086012      -0.04472102
Pt       7.01803488       5.67261038      22.29206774        3      -0.00066755       0.00111211      -0.05527405
Pt       9.82524823       5.67261061      22.29206804        3      -0.00279028       0.00318978      -0.04473091
Pt      -0.00000056       1.62074572      24.58417389        2      -0.00929246       0.00138943       0.01364639
Pt       2.80721443       1.62074548      24.58417398        2      -0.00216851      -0.04180820       0.07018186
Pt       5.61442779       1.62074532      24.58417370        2       0.00581992       0.00738879       0.01369870
Pt       1.40360636       4.05186439      24.58417390        2       0.02255911       0.01271879      -0.01358353
Pt       4.21082088       4.05186401      24.58417381        2      -0.02226305       0.01314396      -0.01347672
Pt       7.01803503       4.05186407      24.58417407        2       0.00342187      -0.00873283       0.01364335
Pt       2.80721279       6.48298345      24.58417372        2      -0.00025151      -0.02588598      -0.01352010
Pt       5.61442797       6.48298324      24.58417392        2       0.03731543       0.01897573       0.07019097
Pt       8.42164222       6.48298343      24.58417383        2      -0.03513618       0.02281366       0.07014635
Pt      -0.00912619       0.00110929      26.90999387        1       0.00560187      -0.00117123       0.00504918
Pt       2.80721286      -0.00000088      26.93320321        1       0.00000362      -0.00000070       0.03795284
Pt       5.62374059       0.00108836      26.91021401        1      -0.00545800      -0.00102757       0.00509634
Pt       1.39801807       2.43864443      26.91021833        1       0.00360501      -0.00422691       0.00503133
Pt       4.21634916       2.43847362      26.91002273        1      -0.00382000      -0.00429199       0.00498805
Pt       7.01803497       2.43111786      26.92112038        1       0.00000171       0.00000121       0.00086098
Pt       2.80721442       4.86223818      26.91866718        1      -0.00000073      -0.00000500       0.00054351
Pt       5.61070508       4.85362359      26.91024127        1       0.00184471       0.00525672       0.00500889
Pt       8.42523864       4.85377340      26.90999008        1      -0.00178065       0.00545832       0.00501334
N        2.80721177       0.00000542      29.84016556        0       0.00024432      -0.00057598       0.04955122
H        1.95512874      -0.49200408      29.56531846        0      -0.01999812      -0.01162847      -0.00244708
H        2.80716931       0.98392502      29.56531957        0      -0.00011557       0.02352996      -0.00256575
H        3.65934599      -0.49192730      29.56531776        0       0.01987039      -0.01132688      -0.00236924
