40
Lattice="8.421641763931781 0.0 0.0 4.2108208819658905 7.293355709136913 0.0 0.0 0.0 46.87624170604845" Properties=species:S:1:pos:R:3:tags:I:1:forces:R:3 charge=0 spin=0 energy=-206.42799449881676 free_energy=-206.42799449881676 stress="0.010534015484154224 -2.085902561788089e-09 -2.755987260627535e-08 -2.085902561788089e-09 0.010534064844250679 2.1876489952887823e-08 -2.755987260627535e-08 2.1876489952887823e-08 1.743460052239243e-05" pbc="T T T"
Pt      -0.00000005       0.00000022      19.95723419        4       0.00046177      -0.00051972       0.01852045
Pt       2.80721406      -0.00000018      19.95723436        4      -0.00068044      -0.00013756       0.01852418
Pt       5.61442778      -0.00000006      19.95723442        4      -0.00014922      -0.00012768       0.01793057
Pt       1.40360717       2.43111838      19.95723425        4      -0.00002342       0.00007718       0.01880898
Pt       4.21082080       2.43111835      19.95723435        4      -0.00003958       0.00019352       0.01794459
Pt       7.01803478       2.43111843      19.95723423        4       0.00018711      -0.00006015       0.01794601
Pt       2.80721408       4.86223724      19.95723395        4      -0.00005663      -0.00006212       0.01879776
Pt       5.61442803       4.86223730      19.95723413        4       0.00021680       0.00065718       0.01851912
Pt       8.42164138       4.86223726      19.95723427        4       0.00008170      -0.00002039       0.01880156
Pt       1.40360728       0.81037260      22.29206790        3       0.00035805       0.00099007      -0.05069651
Pt       4.21082128       0.81037250      22.29206784        3       0.00012088      -0.00007229      -0.05149985
Pt       7.01803477       0.81037260      22.29206779        3       0.00000247       0.00015190      -0.05150631
Pt       2.80721450       3.24149125      22.29206775        3       0.00000167       0.00047629      -0.05289043
Pt       5.61442762       3.24149123      22.29206790        3      -0.00012775      -0.00006195      -0.05152455
Pt       8.42164156       3.24149116      22.29206805        3       0.00040364      -0.00022928      -0.05288788
Pt       4.21082094       5.67260998      22.29206797        3      -0.00103905      -0.00017272      -0.05072480
Pt       7.01803488       5.67261038      22.29206774        3       0.00066660      -0.00080563      -0.05071257
Pt       9.82524823       5.67261061      22.29206804        3      -0.00040629      -0.00023619      -0.05289124
Pt      -0.00000056       1.62074572      24.58417389        2       0.00571213      -0.00074459       0.05139805
Pt       2.80721443       1.62074548      24.58417398        2      -0.00397882      -0.00126406       0.05011473
Pt       5.61442779       1.62074532      24.58417370        2       0.00000408      -0.00000603       0.03819181
Pt       1.40360636       4.05186439      24.58417390        2       0.00000581      -0.00001538       0.05891106
Pt       4.21082088       4.05186401      24.58417381        2      -0.00221094       0.00532378       0.05139723
Pt       7.01803503       4.05186407      24.58417407        2       0.00089725       0.00408906       0.05005923
Pt       2.80721279       6.48298345      24.58417372        2       0.00308667      -0.00282221       0.05009565
Pt       5.61442797       6.48298324      24.58417392        2       0.00000247       0.00002633       0.05526945
Pt       8.42164222       6.48298343      24.58417383        2      -0.00350130      -0.00457303       0.05142818
Pt       0.00025550      -0.00008891      26.92004380        1      -0.00157936       0.00022128      -0.02000940
Pt       2.80701132      -0.00018142      26.92005112        1       0.00097143       0.00128109      -0.02009360
Pt       5.61476078      -0.00209710      26.91590219        1       0.00009618       0.00950347      -0.00465650
Pt       1.40357713       2.42959395      26.92323820        1      -0.00140731       0.00738159      -0.03105948
Pt       4.20884065       2.43186854      26.91588984        1       0.00819478      -0.00482921      -0.00470582
Pt       7.01968110       2.43244843      26.91588755        1      -0.00829083      -0.00466302      -0.00466712
Pt       2.80854663       4.86297230      26.92322475        1      -0.00567447      -0.00494605      -0.03111900
Pt       5.61437389       4.86249694      26.92002329        1       0.00060405      -0.00148694      -0.02016133
Pt       8.42033737       4.86302742      26.92322794        1       0.00708089      -0.00251576      -0.03114824
N        9.82524915       4.05186484      30.88842139        0      -0.00004428       0.00004783      -0.04656141
H        9.01576665       4.54376577      30.48730755        0      -0.02381469       0.01452886       0.01897582
H       10.65598689       4.50694647      30.48730848        0       0.02453742       0.01337630       0.01894564
H        9.80399056       3.10488398      30.48730851        0      -0.00066943      -0.02795399       0.01893591
