40
Lattice="8.421641763931781 0.0 0.0 4.2108208819658905 7.293355709136913 0.0 0.0 0.0 46.87624170604845" Properties=species:S:1:pos:R:3:tags:I:1:forces:R:3 charge=0 spin=0 energy=-206.99342800101402 free_energy=-206.99342800101402 stress="0.009985045529901981 -8.394909656317395e-08 -1.1582645953467363e-08 -8.394909656317395e-08 0.009985082782804966 -3.521282465612785e-08 -1.1582645953467363e-08 -3.521282465612785e-08 -0.0002705006627365947" pbc="T T T"
Pt      -0.00000005       0.00000022      19.95723419        4      -0.00520866      -0.00000243       0.02149822
Pt       2.80721406      -0.00000018      19.95723436        4       0.00531691       0.00129617       0.02211472
Pt       5.61442778      -0.00000006      19.95723442        4      -0.00000044       0.00000406      -0.04361701
Pt       1.40360717       2.43111838      19.95723425        4      -0.00000017       0.00000117       0.01861869
Pt       4.21082080       2.43111835      19.95723435        4       0.00261187      -0.00451338       0.02147212
Pt       7.01803478       2.43111843      19.95723423        4      -0.00154795      -0.00525362       0.02213823
Pt       2.80721408       4.86223724      19.95723395        4      -0.00377155       0.00395864       0.02208590
Pt       5.61442803       4.86223730      19.95723413        4      -0.00000176      -0.00000329       0.02415812
Pt       8.42164138       4.86223726      19.95723427        4       0.00260213       0.00451266       0.02148166
Pt       1.40360728       0.81037260      22.29206790        3      -0.00224952       0.00210063      -0.04564577
Pt       4.21082128       0.81037250      22.29206784        3       0.02391233      -0.01205341      -0.08428687
Pt       7.01803477       0.81037260      22.29206779        3      -0.02238701      -0.01464208      -0.08430088
Pt       2.80721450       3.24149125      22.29206775        3      -0.00070627      -0.00305514      -0.04572951
Pt       5.61442762       3.24149123      22.29206790        3       0.00207184      -0.00070972      -0.07466980
Pt       8.42164156       3.24149116      22.29206805        3       0.00294929       0.00095566      -0.04569499
Pt       4.21082094       5.67260998      22.29206797        3      -0.00168244      -0.00145908      -0.07457165
Pt       7.01803488       5.67261038      22.29206774        3      -0.00039023       0.00217111      -0.07451998
Pt       9.82524823       5.67261061      22.29206804        3      -0.00152105       0.02669328      -0.08423602
Pt      -0.00000056       1.62074572      24.58417389        2       0.14096050       0.07573971       0.24538855
Pt       2.80721443       1.62074548      24.58417398        2      -0.13603258       0.08425439       0.24534473
Pt       5.61442779       1.62074532      24.58417370        2       0.00229064      -0.04923874      -0.07640039
Pt       1.40360636       4.05186439      24.58417390        2      -0.00491870      -0.15996215       0.24537328
Pt       4.21082088       4.05186401      24.58417381        2       0.00255764       0.00582257       0.00372833
Pt       7.01803503       4.05186407      24.58417407        2      -0.00639757      -0.00069093       0.00366079
Pt       2.80721279       6.48298345      24.58417372        2      -0.04380802       0.02257553      -0.07656503
Pt       5.61442797       6.48298324      24.58417392        2       0.00382606      -0.00516049       0.00347174
Pt       8.42164222       6.48298343      24.58417383        2       0.04152494       0.02664108      -0.07668141
Pt      -0.01104938      -0.01786066      26.90668879        1       0.00374871       0.00047585      -0.00723254
Pt       2.81755899      -0.01768288      26.90558143        1      -0.00382778      -0.00087281      -0.00615762
Pt       5.61442638      -0.00000344      26.92523477        1       0.00000286       0.00000851      -0.00530117
Pt       1.40360839       2.43111800      26.99525680        1      -0.00000422      -0.00000070      -0.01796835
Pt       4.23181504       2.43048861      26.90670839        1      -0.00230292       0.00301638      -0.00730433
Pt       6.99754332       2.43100013      26.90560456        1       0.00116679       0.00373137      -0.00618718
Pt       2.81736580       4.88003492      26.90560015        1       0.00264231      -0.00285552      -0.00611118
Pt       5.61442959       4.86223799      26.92348983        1       0.00000496      -0.00000595       0.00664091
Pt       8.41169652       4.88072468      26.90669480        1      -0.00143406      -0.00348077      -0.00727100
N        1.40360757       2.43111579      29.14817273        0      -0.00005444      -0.00003281       0.02033449
H        1.40308656       1.46124761      29.48829322        0      -0.00000244       0.00592967       0.00096971
H        0.56393687       2.91650110      29.48829234        0       0.00513936      -0.00295609       0.00097114
H        2.24379815       2.91559868      29.48828848        0      -0.00507923      -0.00293928       0.00100140
