40
Lattice="8.421641763931781 0.0 0.0 4.2108208819658905 7.293355709136913 0.0 0.0 0.0 46.87624170604845" Properties=species:S:1:pos:R:3:tags:I:1:forces:R:3 charge=0 spin=0 energy=-206.42495990714195 free_energy=-206.42495990714195 stress="0.010533715598285198 9.632872277620663e-09 -2.062082771203677e-08 9.632872277620663e-09 0.01053380686789751 1.8914637678335566e-07 -2.062082771203677e-08 1.8914637678335566e-07 -7.206095233414089e-06" pbc="T T T"
Pt      -0.00000005       0.00000022      19.95723419        4       0.00027022       0.00038365       0.01854658
Pt       2.80721406      -0.00000018      19.95723436        4      -0.00012771       0.00004381       0.01862026
Pt       5.61442778      -0.00000006      19.95723442        4       0.00009466       0.00009294       0.01860741
Pt       1.40360717       2.43111838      19.95723425        4      -0.00046364       0.00004245       0.01855213
Pt       4.21082080       2.43111835      19.95723435        4      -0.00027191      -0.00014331       0.01809346
Pt       7.01803478       2.43111843      19.95723423        4       0.00019382      -0.00041891       0.01854613
Pt       2.80721408       4.86223724      19.95723395        4       0.00001280       0.00030213       0.01809232
Pt       5.61442803       4.86223730      19.95723413        4       0.00025802      -0.00016503       0.01809107
Pt       8.42164138       4.86223726      19.95723427        4       0.00003003      -0.00013193       0.01861819
Pt       1.40360728       0.81037260      22.29206790        3       0.00020927      -0.00077834      -0.05280739
Pt       4.21082128       0.81037250      22.29206784        3      -0.00034862      -0.00097766      -0.05322355
Pt       7.01803477       0.81037260      22.29206779        3      -0.00078820       0.00021743      -0.05283280
Pt       2.80721450       3.24149125      22.29206775        3      -0.00095207      -0.00098860      -0.04919571
Pt       5.61442762       3.24149123      22.29206790        3       0.00133095      -0.00031298      -0.04921395
Pt       8.42164156       3.24149116      22.29206805        3       0.00057249       0.00058648      -0.05280085
Pt       4.21082094       5.67260998      22.29206797        3      -0.00039509       0.00133080      -0.04923090
Pt       7.01803488       5.67261038      22.29206774        3       0.00102223       0.00019972      -0.05322263
Pt       9.82524823       5.67261061      22.29206804        3      -0.00067266       0.00079107      -0.05323364
Pt      -0.00000056       1.62074572      24.58417389        2       0.00004842       0.00003653       0.06726117
Pt       2.80721443       1.62074548      24.58417398        2      -0.00407512       0.01019545       0.04824970
Pt       5.61442779       1.62074532      24.58417370        2       0.00273006       0.01119444       0.04837293
Pt       1.40360636       4.05186439      24.58417390        2       0.00830527      -0.00801615       0.04836414
Pt       4.21082088       4.05186401      24.58417381        2      -0.00000613      -0.00004702       0.04547316
Pt       7.01803503       4.05186407      24.58417407        2      -0.00674906      -0.00860670       0.04812131
Pt       2.80721279       6.48298345      24.58417372        2       0.01082435      -0.00159230       0.04811827
Pt       5.61442797       6.48298324      24.58417392        2      -0.01102545      -0.00319319       0.04826524
Pt       8.42164222       6.48298343      24.58417383        2      -0.00003472      -0.00000069       0.01581391
Pt       0.00015068       0.00053846      26.92280669        1      -0.00036566      -0.00044125      -0.03107515
Pt       2.80835327       0.00012893      26.91333044        1      -0.01555147       0.00760618       0.01200682
Pt       5.61394657      -0.00107261      26.91331582        1       0.01446995       0.00969150       0.01203743
Pt       1.40303533       2.43097046      26.92287972        1       0.00066044      -0.00013634      -0.03126365
Pt       4.21118964       2.43138685      26.91987862        1      -0.00031800       0.00339484      -0.01895953
Pt       7.01844961       2.43068725      26.92283372        1      -0.00029152       0.00058818      -0.03106499
Pt       2.80727304       4.86174637      26.91983955        1       0.00315464      -0.00138738      -0.01895663
Pt       5.61401183       4.86240560      26.91981999        1      -0.00286279      -0.00200073      -0.01884499
Pt       8.42097073       4.86317185      26.91332337        1       0.00111477      -0.01735765       0.01200760
N        8.42163853       6.48297905      31.01083771        0      -0.00002366      -0.00006592       0.02782486
H        8.40826924       7.43264781      30.61740656        0      -0.00022537       0.00796843      -0.01060016
H        9.25076481       6.01972904      30.61740360        0       0.00696135      -0.00374906      -0.01058341
H        7.60589168       5.99656832      30.61738567        0      -0.00671521      -0.00415508      -0.01057429
