40
Lattice="8.421641763931781 0.0 0.0 4.2108208819658905 7.293355709136913 0.0 0.0 0.0 46.87624170604845" Properties=species:S:1:pos:R:3:tags:I:1:forces:R:3 charge=0 spin=0 energy=-206.42484355887535 free_energy=-206.42484355887535 stress="0.010533412918448448 -1.2888017042467226e-10 3.2496217272637296e-08 -1.2888017042467226e-10 0.010533277876675129 -1.942426735013214e-07 3.2496217272637296e-08 -1.942426735013214e-07 -8.12177768239053e-06" pbc="T T T"
Pt      -0.00000005       0.00000022      19.95723419        4       0.00030809       0.00031458       0.01807883
Pt       2.80721406      -0.00000018      19.95723436        4       0.00003384      -0.00015855       0.01871543
Pt       5.61442778      -0.00000006      19.95723442        4       0.00012257       0.00011120       0.01870400
Pt       1.40360717       2.43111838      19.95723425        4      -0.00012577       0.00025070       0.01845748
Pt       4.21082080       2.43111835      19.95723435        4      -0.00015463       0.00004967       0.01871806
Pt       7.01803478       2.43111843      19.95723423        4       0.00027973      -0.00001384       0.01845158
Pt       2.80721408       4.86223724      19.95723395        4      -0.00042523       0.00010051       0.01808674
Pt       5.61442803       4.86223730      19.95723413        4       0.00011853      -0.00042476       0.01808261
Pt       8.42164138       4.86223726      19.95723427        4      -0.00015020      -0.00024002       0.01845601
Pt       1.40360728       0.81037260      22.29206790        3       0.00104213      -0.00006000      -0.05236351
Pt       4.21082128       0.81037250      22.29206784        3       0.00000331      -0.00000373      -0.05319918
Pt       7.01803477       0.81037260      22.29206779        3      -0.00119764       0.00075922      -0.05201181
Pt       2.80721450       3.24149125      22.29206775        3      -0.00006073      -0.00143344      -0.05198400
Pt       5.61442762       3.24149123      22.29206790        3      -0.00055678      -0.00087808      -0.05238882
Pt       8.42164156       3.24149116      22.29206805        3       0.00000317      -0.00000462      -0.05380702
Pt       4.21082094       5.67260998      22.29206797        3       0.00000150      -0.00000523      -0.04579470
Pt       7.01803488       5.67261038      22.29206774        3       0.00126100       0.00064840      -0.05200205
Pt       9.82524823       5.67261061      22.29206804        3      -0.00046518       0.00090495      -0.05235537
Pt      -0.00000056       1.62074572      24.58417389        2      -0.00133818      -0.00940593       0.05432195
Pt       2.80721443       1.62074548      24.58417398        2      -0.00661624       0.00267661       0.02923009
Pt       5.61442779       1.62074532      24.58417370        2       0.00559151       0.00432333       0.02927192
Pt       1.40360636       4.05186439      24.58417390        2       0.00882272       0.00355450       0.05437361
Pt       4.21082088       4.05186401      24.58417381        2      -0.00009350       0.01186970       0.05378601
Pt       7.01803503       4.05186407      24.58417407        2      -0.00742746       0.00587570       0.05431278
Pt       2.80721279       6.48298345      24.58417372        2       0.01029005      -0.00590668       0.05388137
Pt       5.61442797       6.48298324      24.58417392        2      -0.01026874      -0.00592205       0.05377985
Pt       8.42164222       6.48298343      24.58417383        2       0.00099448      -0.00701986       0.02932258
Pt      -0.00041171      -0.00068213      26.92406337        1       0.00127548       0.00164048      -0.03629401
Pt       2.80766568       0.00102390      26.91385876        1      -0.01434883      -0.00931173       0.01016800
Pt       5.61335298      -0.00011061      26.91389257        1       0.01514150      -0.00770294       0.01004115
Pt       1.40349843       2.43140651      26.91764550        1      -0.00203623       0.00158149      -0.00906024
Pt       4.21144777       2.43024083      26.91384990        1      -0.00083316       0.01705182       0.01017892
Pt       7.01829334       2.43107281      26.91763437        1       0.00248701       0.00100755      -0.00899588
Pt       2.80802128       4.86224225      26.92408230        1      -0.00207733       0.00029623      -0.03626803
Pt       5.61402597       4.86295975      26.92402018        1       0.00080911      -0.00192629      -0.03601869
Pt       8.42146360       4.86205115      26.91766225        1      -0.00040481      -0.00259833      -0.00898819
N        4.21081959       0.81037190      31.02565775        0       0.00002538       0.00015869       0.02652007
H        5.02659507       1.29671048      30.63218548        0       0.00661728       0.00406417      -0.01110678
H        4.22411542      -0.13927453      30.63218300        0       0.00019444      -0.00789709      -0.01117722
H        3.38175398       1.27368868      30.63218385        0      -0.00684222       0.00367338      -0.01112370
