40
Lattice="8.421641763931781 0.0 0.0 4.2108208819658905 7.293355709136913 0.0 0.0 0.0 46.87624170604845" Properties=species:S:1:pos:R:3:tags:I:1:forces:R:3 charge=0 spin=0 energy=-206.42485118826988 free_energy=-206.42485118826988 stress="0.010533169843256474 -6.436644550689152e-09 3.264615244802371e-08 -6.436644550689152e-09 0.010533081367611885 -1.8457483008660347e-07 3.264615244802371e-08 -1.8457483008660347e-07 -8.485411854053382e-06" pbc="T T T"
Pt      -0.00000005       0.00000022      19.95723419        4       0.00012841       0.00010544       0.01871390
Pt       2.80721406      -0.00000018      19.95723436        4       0.00030331       0.00031745       0.01807739
Pt       5.61442778      -0.00000006      19.95723442        4       0.00003317      -0.00015882       0.01870834
Pt       1.40360717       2.43111838      19.95723425        4       0.00028130      -0.00001441       0.01845234
Pt       4.21082080       2.43111835      19.95723435        4      -0.00012425       0.00025114       0.01845716
Pt       7.01803478       2.43111843      19.95723423        4      -0.00015786       0.00005206       0.01871912
Pt       2.80721408       4.86223724      19.95723395        4      -0.00015007      -0.00023983       0.01845788
Pt       5.61442803       4.86223730      19.95723413        4      -0.00042688       0.00010210       0.01808443
Pt       8.42164138       4.86223726      19.95723427        4       0.00011989      -0.00042513       0.01808144
Pt       1.40360728       0.81037260      22.29206790        3      -0.00120373       0.00076180      -0.05201323
Pt       4.21082128       0.81037250      22.29206784        3       0.00104143      -0.00005408      -0.05236277
Pt       7.01803477       0.81037260      22.29206779        3       0.00000847      -0.00000748      -0.05320807
Pt       2.80721450       3.24149125      22.29206775        3      -0.00000711      -0.00000560      -0.05381417
Pt       5.61442762       3.24149123      22.29206790        3      -0.00005171      -0.00143879      -0.05198435
Pt       8.42164156       3.24149116      22.29206805        3      -0.00055590      -0.00087899      -0.05238948
Pt       4.21082094       5.67260998      22.29206797        3      -0.00047701       0.00091929      -0.05235555
Pt       7.01803488       5.67261038      22.29206774        3       0.00000158      -0.00001297      -0.04577626
Pt       9.82524823       5.67261061      22.29206804        3       0.00127356       0.00064296      -0.05200001
Pt      -0.00000056       1.62074572      24.58417389        2       0.00559428       0.00431807       0.02928604
Pt       2.80721443       1.62074548      24.58417398        2      -0.00134230      -0.00942116       0.05431846
Pt       5.61442779       1.62074532      24.58417370        2      -0.00661621       0.00267844       0.02925730
Pt       1.40360636       4.05186439      24.58417390        2      -0.00743549       0.00588507       0.05430742
Pt       4.21082088       4.05186401      24.58417381        2       0.00883342       0.00356907       0.05437531
Pt       7.01803503       4.05186407      24.58417407        2      -0.00009684       0.01187839       0.05375537
Pt       2.80721279       6.48298345      24.58417372        2       0.00101399      -0.00702689       0.02934396
Pt       5.61442797       6.48298324      24.58417392        2       0.01028319      -0.00590492       0.05385065
Pt       8.42164222       6.48298343      24.58417383        2      -0.01027686      -0.00593113       0.05375966
Pt      -0.00105846      -0.00012066      26.91388135        1       0.01502300      -0.00763060       0.01004560
Pt       2.80680367      -0.00069305      26.92406920        1       0.00126834       0.00171277      -0.03635745
Pt       5.61486345       0.00101386      26.91385053        1      -0.01423129      -0.00923899       0.01016189
Pt       1.40388124       2.43108119      26.91763527        1       0.00238295       0.00094656      -0.00899164
Pt       4.21069785       2.43141547      26.91765155        1      -0.00192979       0.00151670      -0.00907517
Pt       7.01866112       2.43026073      26.91383982        1      -0.00083243       0.01690674       0.01018753
Pt       2.80703705       4.86203276      26.91766465        1      -0.00040999      -0.00247301      -0.00899864
Pt       5.61524475       4.86224774      26.92408845        1      -0.00213465       0.00025349      -0.03633519
Pt       8.42123050       4.86296469      26.92402860        1       0.00087192      -0.00195906      -0.03609740
N        7.01803631       0.81037254      31.02452162        0      -0.00000529       0.00001725       0.02670765
H        6.18897324       1.27369966      30.63105818        0      -0.00691385       0.00372465      -0.01111560
H        7.83381550       1.29670031      30.63104954        0       0.00671169       0.00412365      -0.01111712
H        7.03131578      -0.13927623      30.63104861        0       0.00020557      -0.00786126      -0.01111636
