40
Lattice="8.421641763931781 0.0 0.0 4.2108208819658905 7.293355709136913 0.0 0.0 0.0 46.87624170604845" Properties=species:S:1:pos:R:3:tags:I:1:forces:R:3 charge=0 spin=0 energy=-206.42595745047691 free_energy=-206.42595745047691 stress="0.01049314346164465 -6.460210499881214e-08 -5.287769333506276e-09 -6.460210499881214e-08 0.01049304474145174 1.5806877229351812e-07 -5.287769333506276e-09 1.5806877229351812e-07 -4.0312112105311826e-05" pbc="T T T"
Pt      -0.00000005       0.00000022      19.95723419        4       0.00036432       0.00010176       0.01878644
Pt       2.80721406      -0.00000018      19.95723436        4      -0.00027263       0.00026301       0.01878421
Pt       5.61442778      -0.00000006      19.95723442        4       0.00022426      -0.00002452       0.01785127
Pt       1.40360717       2.43111838      19.95723425        4      -0.00009198      -0.00036268       0.01877887
Pt       4.21082080       2.43111835      19.95723435        4       0.00034098      -0.00001304       0.01853123
Pt       7.01803478       2.43111843      19.95723423        4      -0.00015821       0.00030481       0.01853644
Pt       2.80721408       4.86223724      19.95723395        4      -0.00013943      -0.00018625       0.01786912
Pt       5.61442803       4.86223730      19.95723413        4      -0.00018553      -0.00029390       0.01854492
Pt       8.42164138       4.86223726      19.95723427        4      -0.00008501       0.00020337       0.01786912
Pt       1.40360728       0.81037260      22.29206790        3      -0.00000558       0.00000165      -0.04717452
Pt       4.21082128       0.81037250      22.29206784        3      -0.00041378       0.00020139      -0.05256606
Pt       7.01803477       0.81037260      22.29206779        3       0.00036292      -0.00081525      -0.05368347
Pt       2.80721450       3.24149125      22.29206775        3      -0.00089690       0.00007297      -0.05366971
Pt       5.61442762       3.24149123      22.29206790        3       0.00000231      -0.00000819      -0.05179510
Pt       8.42164156       3.24149116      22.29206805        3       0.00003918      -0.00047442      -0.05254326
Pt       4.21082094       5.67260998      22.29206797        3       0.00038053       0.00026650      -0.05253221
Pt       7.01803488       5.67261038      22.29206774        3       0.00051141       0.00071346      -0.05366561
Pt       9.82524823       5.67261061      22.29206804        3       0.00000274       0.00000468      -0.04723024
Pt      -0.00000056       1.62074572      24.58417389        2       0.00535952      -0.00432901       0.03831115
Pt       2.80721443       1.62074548      24.58417398        2      -0.00637880      -0.00256547       0.03831539
Pt       5.61442779       1.62074532      24.58417370        2      -0.00102345      -0.00518177       0.03841403
Pt       1.40360636       4.05186439      24.58417390        2       0.00030312       0.00266184       0.05243602
Pt       4.21082088       4.05186401      24.58417381        2      -0.00398262       0.00351792       0.03845586
Pt       7.01803503       4.05186407      24.58417407        2       0.00500838       0.00176104       0.03845085
Pt       2.80721279       6.48298345      24.58417372        2      -0.00235170      -0.00102324       0.05254434
Pt       5.61442797       6.48298324      24.58417392        2       0.00100503       0.00684731       0.03843001
Pt       8.42164222       6.48298343      24.58417383        2       0.00209652      -0.00152445       0.05253520
Pt      -0.00116497      -0.00002996      26.92040665        1      -0.00197532      -0.00082894      -0.01854371
Pt       2.80785342      -0.00097756      26.92040145        1       0.00170045      -0.00126625      -0.01853377
Pt       5.61368983       0.00288001      26.91966833        1       0.00123385      -0.02227157      -0.02103243
Pt       1.40415223       2.43219475      26.92034104        1       0.00029181       0.00207209      -0.01831454
Pt       4.20854399       2.42945414      26.91408840        1       0.01388689       0.00760299       0.00651983
Pt       7.02063257       2.42999535      26.91407876        1      -0.01351963       0.00825171       0.00650965
Pt       2.81007394       4.86148347      26.91967951        1      -0.01992109       0.00996832      -0.02085825
Pt       5.61412169       4.86507404      26.91410265        1      -0.00040570      -0.01578313       0.00655882
Pt       8.41953478       4.86019133      26.91967719        1       0.01869619       0.01211706      -0.02090465
N        1.40359634       0.81167105      30.83927984        0      -0.00001539      -0.00012059      -0.02909674
H        1.87294837       1.63218159      30.43499901        0       0.02213480       0.04200917       0.01298018
H        1.88113030      -0.00781391      30.44257805        0       0.02513199      -0.03989073       0.01308947
H        0.45674047       0.80514421      30.43878581        0      -0.04725436      -0.00197964       0.01304197
