40
Lattice="8.421641763931781 0.0 0.0 4.2108208819658905 7.293355709136913 0.0 0.0 0.0 46.87624170604845" Properties=species:S:1:pos:R:3:tags:I:1:forces:R:3 charge=0 spin=0 energy=-206.9940135570443 free_energy=-206.9940135570443 stress="0.009988711215555668 -8.255419459146651e-08 2.179916025468742e-09 -8.255419459146651e-08 0.009988809004426003 -9.723052016852307e-07 2.179916025468742e-09 -9.723052016852307e-07 -0.0002667594817467034" pbc="T T T"
Pt      -0.00000005       0.00000022      19.95723419        4      -0.00135854      -0.00554296       0.02173120
Pt       2.80721406      -0.00000018      19.95723436        4      -0.00000255       0.00000441       0.01867588
Pt       5.61442778      -0.00000006      19.95723442        4       0.00250378      -0.00463837       0.02174966
Pt       1.40360717       2.43111838      19.95723425        4       0.00276474       0.00449170       0.02177157
Pt       4.21082080       2.43111835      19.95723435        4      -0.00411406       0.00394764       0.02167897
Pt       7.01803478       2.43111843      19.95723423        4      -0.00000079       0.00000071       0.02404436
Pt       2.80721408       4.86223724      19.95723395        4       0.00000353      -0.00000484      -0.04372897
Pt       5.61442803       4.86223730      19.95723413        4      -0.00527202       0.00014867       0.02179038
Pt       8.42164138       4.86223726      19.95723427        4       0.00547578       0.00158983       0.02170770
Pt       1.40360728       0.81037260      22.29206790        3       0.00197019       0.00055116      -0.04503851
Pt       4.21082128       0.81037250      22.29206784        3      -0.00056912      -0.00200435      -0.04507689
Pt       7.01803477       0.81037260      22.29206779        3       0.00318741      -0.00085359      -0.07612389
Pt       2.80721450       3.24149125      22.29206775        3      -0.00065408       0.02717124      -0.08377009
Pt       5.61442762       3.24149123      22.29206790        3      -0.00235085      -0.00235827      -0.07601939
Pt       8.42164156       3.24149116      22.29206805        3      -0.00082180       0.00320468      -0.07596768
Pt       4.21082094       5.67260998      22.29206797        3      -0.02324770      -0.01410644      -0.08387029
Pt       7.01803488       5.67261038      22.29206774        3      -0.00140603       0.00145169      -0.04499268
Pt       9.82524823       5.67261061      22.29206804        3       0.02389573      -0.01307167      -0.08385954
Pt      -0.00000056       1.62074572      24.58417389        2      -0.00221691       0.00060774       0.00197316
Pt       2.80721443       1.62074548      24.58417398        2      -0.00454951      -0.15983009       0.25049442
Pt       5.61442779       1.62074532      24.58417370        2       0.00156166       0.00162335       0.00203940
Pt       1.40360636       4.05186439      24.58417390        2       0.04463976       0.02015565      -0.07553083
Pt       4.21082088       4.05186401      24.58417381        2      -0.03976993       0.02848523      -0.07542166
Pt       7.01803503       4.05186407      24.58417407        2       0.00064045      -0.00220812       0.00173684
Pt       2.80721279       6.48298345      24.58417372        2      -0.00484116      -0.04867838      -0.07521836
Pt       5.61442797       6.48298324      24.58417392        2       0.14050971       0.07597744       0.25016987
Pt       8.42164222       6.48298343      24.58417383        2      -0.13598055       0.08382086       0.25012860
Pt      -0.02478137       0.00031602      26.90510387        1       0.01757323       0.00301085      -0.00084031
Pt       2.80721830      -0.00012185      26.99567079        1      -0.00000868      -0.00011859      -0.02603007
Pt       5.63318239      -0.00076316      26.90902380        1      -0.00241697       0.00264833      -0.01946657
Pt       1.39492379       2.44776398      26.90902309        1      -0.00100522      -0.00358440      -0.01949109
Pt       4.22346475       2.45244600      26.90511179        1      -0.00622019      -0.01689746      -0.00079219
Pt       7.01803508       2.43113694      26.92125783        1       0.00000989      -0.00006091       0.01304971
Pt       2.80721376       4.86225217      26.92494967        1       0.00000395      -0.00005956       0.00045986
Pt       5.60435399       4.84641622      26.90898770        1       0.00341643       0.00056122      -0.01933511
Pt       8.43378889       4.84065657      26.90506267        1      -0.01134876       0.01349836      -0.00078543
N        2.80721335      -0.00018484      29.14766524        0       0.00000342       0.00066672       0.02311176
H        3.29343074      -0.83937539      29.48806684        0      -0.00423306       0.00635921       0.00050577
H        1.83714713      -0.00134201      29.48748272        0       0.00749055       0.00067486       0.00167925
H        3.29106014       0.84082863      29.48689557        0      -0.00326177      -0.00663361       0.00286130
