40
Lattice="8.421641763931781 0.0 0.0 4.2108208819658905 7.293355709136913 0.0 0.0 0.0 46.87624170604845" Properties=species:S:1:pos:R:3:tags:I:1:forces:R:3 charge=0 spin=0 energy=-206.424450645057 free_energy=-206.424450645057 stress="0.01049046404659748 1.0903723257627007e-08 1.742459865283763e-08 1.0903723257627007e-08 0.01049050223082304 4.33037383729129e-09 1.742459865283763e-08 4.33037383729129e-09 -5.0087328418157995e-05" pbc="T T T"
Pt      -0.00000005       0.00000022      19.95723419        4      -0.00021736       0.00003445       0.01788805
Pt       2.80721406      -0.00000018      19.95723436        4       0.00045409      -0.00053650       0.01857849
Pt       5.61442778      -0.00000006      19.95723442        4      -0.00069565      -0.00012381       0.01857489
Pt       1.40360717       2.43111838      19.95723425        4       0.00007890      -0.00020702       0.01789352
Pt       4.21082080       2.43111835      19.95723435        4      -0.00002611       0.00020528       0.01871492
Pt       7.01803478       2.43111843      19.95723423        4       0.00014014       0.00017264       0.01789170
Pt       2.80721408       4.86223724      19.95723395        4       0.00019396      -0.00008055       0.01871201
Pt       5.61442803       4.86223730      19.95723413        4      -0.00016644      -0.00012906       0.01870506
Pt       8.42164138       4.86223726      19.95723427        4       0.00023918       0.00066390       0.01857853
Pt       1.40360728       0.81037260      22.29206790        3       0.00072231      -0.00017177      -0.05068805
Pt       4.21082128       0.81037250      22.29206784        3       0.00054025       0.00056956      -0.05207933
Pt       7.01803477       0.81037260      22.29206779        3      -0.00050860      -0.00054559      -0.05067865
Pt       2.80721450       3.24149125      22.29206775        3       0.00059258      -0.00008630      -0.05196228
Pt       5.61442762       3.24149123      22.29206790        3      -0.00021397       0.00056703      -0.05196671
Pt       8.42164156       3.24149116      22.29206805        3      -0.00020924       0.00072102      -0.05070291
Pt       4.21082094       5.67260998      22.29206797        3      -0.00038317      -0.00046937      -0.05196762
Pt       7.01803488       5.67261038      22.29206774        3      -0.00076632       0.00018453      -0.05210669
Pt       9.82524823       5.67261061      22.29206804        3       0.00022618      -0.00076310      -0.05209353
Pt      -0.00000056       1.62074572      24.58417389        2       0.00000438      -0.00001378       0.03809883
Pt       2.80721443       1.62074548      24.58417398        2       0.00145964      -0.00272872       0.04056855
Pt       5.61442779       1.62074532      24.58417370        2       0.00019762      -0.00245550       0.03950002
Pt       1.40360636       4.05186439      24.58417390        2      -0.00221697       0.00104751       0.03941800
Pt       4.21082088       4.05186401      24.58417381        2       0.00000217      -0.00001260       0.03619550
Pt       7.01803503       4.05186407      24.58417407        2       0.00161790       0.00262889       0.04053282
Pt       2.80721279       6.48298345      24.58417372        2      -0.00308146       0.00009562       0.04057789
Pt       5.61442797       6.48298324      24.58417392        2       0.00202408       0.00140296       0.03948880
Pt       8.42164222       6.48298343      24.58417383        2      -0.00001023       0.00002427       0.05781461
Pt       0.00056785      -0.00262813      26.91604090        1      -0.00140572       0.01774110      -0.00220241
Pt       2.80531913       0.00088722      26.91879539        1       0.01269167      -0.00656504      -0.01555723
Pt       5.61614184       0.00119968      26.91879652        1      -0.01205571      -0.00769418      -0.01561030
Pt       1.40559755       2.43292418      26.91602887        1      -0.01467517      -0.01010681      -0.00227124
Pt       4.21054743       2.42985407      26.91800483        1      -0.00086967      -0.00115651      -0.00942262
Pt       7.01547182       2.43193335      26.91602931        1       0.01610662      -0.00765106      -0.00231083
Pt       2.80625256       4.86310955      26.91798771        1      -0.00059363       0.00131107      -0.00941798
Pt       5.61566224       4.86262986      26.91798893        1       0.00144485      -0.00016138      -0.00941908
Pt       8.42182056       4.86014707      26.91876314        1      -0.00063506       0.01429479      -0.01564909
N        4.21082209       4.05185840      30.85118575        0      -0.00007441       0.00004151      -0.03003694
H        4.19894193       4.99904126      30.45121444        0      -0.00065977       0.03693086       0.01281693
H        5.03703920       3.58856257      30.45119753        0       0.03238184      -0.01792851       0.01278162
H        3.39648041       3.56798773      30.45119927        0      -0.03165377      -0.01904974       0.01281267
