40
Lattice="8.421641763931781 0.0 0.0 4.2108208819658905 7.293355709136913 0.0 0.0 0.0 46.87624170604845" Properties=species:S:1:pos:R:3:tags:I:1:forces:R:3 charge=0 spin=0 energy=-206.41990161856774 free_energy=-206.41990161856774 stress="0.010339534841477871 9.277748176828027e-06 -4.0473898366144567e-07 9.277748176828027e-06 0.010457966476678848 -1.1837282727356069e-05 -4.0473898366144567e-07 -1.1837282727356069e-05 -0.00026023059035651386" pbc="T T T"
Pt      -0.00000005       0.00000022      19.95723419        4      -0.00051316       0.00229507       0.01861161
Pt       2.80721406      -0.00000018      19.95723436        4      -0.00022856       0.00244150       0.01731374
Pt       5.61442778      -0.00000006      19.95723442        4      -0.00054359       0.00215564       0.01723225
Pt       1.40360717       2.43111838      19.95723425        4      -0.00073908       0.00260014       0.01874178
Pt       4.21082080       2.43111835      19.95723435        4      -0.00011688       0.00309434       0.01826867
Pt       7.01803478       2.43111843      19.95723423        4       0.00001328       0.00262292       0.01867699
Pt       2.80721408       4.86223724      19.95723395        4      -0.00005917       0.00216921       0.01843557
Pt       5.61442803       4.86223730      19.95723413        4      -0.00100266       0.00255263       0.01851460
Pt       8.42164138       4.86223726      19.95723427        4      -0.00060254       0.00210667       0.01818797
Pt       1.40360728       0.81037260      22.29206790        3       0.00035243       0.01131732      -0.05149150
Pt       4.21082128       0.81037250      22.29206784        3      -0.00022437       0.01200230      -0.05013613
Pt       7.01803477       0.81037260      22.29206779        3      -0.00061924       0.01022900      -0.05137163
Pt       2.80721450       3.24149125      22.29206775        3      -0.00056950       0.00923655      -0.05387656
Pt       5.61442762       3.24149123      22.29206790        3      -0.00062970       0.00850675      -0.05413517
Pt       8.42164156       3.24149116      22.29206805        3      -0.00055906       0.00955329      -0.04906917
Pt       4.21082094       5.67260998      22.29206797        3       0.00005826       0.00980863      -0.04929413
Pt       7.01803488       5.67261038      22.29206774        3       0.00007418       0.00840572      -0.05110088
Pt       9.82524823       5.67261061      22.29206804        3      -0.00068746       0.00911654      -0.05167374
Pt      -0.00000056       1.62074572      24.58417389        2       0.00293074      -0.02830049       0.00704518
Pt       2.80721443       1.62074548      24.58417398        2      -0.00398983      -0.03089314       0.00656060
Pt       5.61442779       1.62074532      24.58417370        2       0.00684422      -0.03052897       0.00596022
Pt       1.40360636       4.05186439      24.58417390        2       0.00027578      -0.02710945       0.01778699
Pt       4.21082088       4.05186401      24.58417381        2       0.00127060      -0.01818821       0.02265004
Pt       7.01803503       4.05186407      24.58417407        2       0.00066259      -0.02803663       0.01846852
Pt       2.80721279       6.48298345      24.58417372        2       0.01009399      -0.03120079       0.01718806
Pt       5.61442797       6.48298324      24.58417392        2      -0.00415968      -0.03062484       0.01872444
Pt       8.42164222       6.48298343      24.58417383        2       0.00170401      -0.02910233       0.01431339
Pt       0.00114012      -0.03326741      26.91564523        1       0.00069087      -0.01961957       0.00204418
Pt       2.80501704      -0.03903497      26.91036488        1       0.02416061       0.01302817       0.02530144
Pt       5.62001763      -0.03846425      26.90961361        1      -0.02719616       0.01227450       0.02771441
Pt       1.40723251       2.39284300      26.91353505        1      -0.00150089       0.02087616       0.01403457
Pt       4.21262843       2.39337941      26.90625030        1      -0.00158616       0.01622070       0.04142590
Pt       7.01832027       2.39349526      26.91316366        1      -0.00113236       0.02202457       0.01495997
Pt       2.80695994       4.82398943      26.91366450        1       0.01633869       0.02310785       0.01227929
Pt       5.61836199       4.82474909      26.91387166        1      -0.01750523       0.02234340       0.01086460
Pt       8.42382726       4.82336682      26.91427652        1      -0.00088888       0.03176123       0.00726048
N        8.42177366       2.31315115      30.73421714        0      -0.00049666       0.00780087       0.02502220
H        7.59707249       1.75949631      30.47057359        0      -0.00843034      -0.01728394      -0.00658407
H        8.41692069       3.14638792      30.13258030        0       0.00035181       0.02772045       0.00155576
H        9.24547004       1.76245624      30.46149018        0       0.00815926      -0.01648388      -0.00641063
