40
Lattice="8.421641763931781 0.0 0.0 4.2108208819658905 7.293355709136913 0.0 0.0 0.0 46.87624170604845" Properties=species:S:1:pos:R:3:tags:I:1:forces:R:3 charge=0 spin=0 energy=-206.42709804495934 free_energy=-206.42709804495934 stress="0.010525164194405079 -5.57153100544383e-07 -1.1363181329215877e-07 -5.57153100544383e-07 0.010525373741984367 8.018113817342964e-07 -1.1363181329215877e-07 8.018113817342964e-07 -1.9178547518095e-05" pbc="T T T"
Pt      -0.00000005       0.00000022      19.95723419        4      -0.00016812      -0.00017825       0.01809794
Pt       2.80721406      -0.00000018      19.95723436        4       0.00023628      -0.00047063       0.01848460
Pt       5.61442778      -0.00000006      19.95723442        4      -0.00053184       0.00003825       0.01848224
Pt       1.40360717       2.43111838      19.95723425        4       0.00023523      -0.00005266       0.01809647
Pt       4.21082080       2.43111835      19.95723435        4       0.00003241      -0.00013985       0.01865765
Pt       7.01803478       2.43111843      19.95723423        4      -0.00007331       0.00022911       0.01809414
Pt       2.80721408       4.86223724      19.95723395        4      -0.00013699       0.00004094       0.01865182
Pt       5.61442803       4.86223730      19.95723413        4       0.00009943       0.00009673       0.01864804
Pt       8.42164138       4.86223726      19.95723427        4       0.00029636       0.00044694       0.01848875
Pt       1.40360728       0.81037260      22.29206790        3       0.00119648      -0.00008634      -0.04930492
Pt       4.21082128       0.81037250      22.29206784        3       0.00046318       0.00072077      -0.05227504
Pt       7.01803477       0.81037260      22.29206779        3      -0.00069118      -0.00096901      -0.04928311
Pt       2.80721450       3.24149125      22.29206775        3       0.00095645       0.00020373      -0.05363276
Pt       5.61442762       3.24149123      22.29206790        3      -0.00063390       0.00075875      -0.05367081
Pt       8.42164156       3.24149116      22.29206805        3      -0.00052346       0.00109171      -0.04934359
Pt       4.21082094       5.67260998      22.29206797        3      -0.00032142      -0.00093829      -0.05365584
Pt       7.01803488       5.67261038      22.29206774        3      -0.00088022       0.00006366      -0.05231379
Pt       9.82524823       5.67261061      22.29206804        3       0.00038992      -0.00078786      -0.05227083
Pt      -0.00000056       1.62074572      24.58417389        2       0.00000561      -0.00002470       0.03996072
Pt       2.80721443       1.62074548      24.58417398        2      -0.00501220      -0.00816493       0.04731460
Pt       5.61442779       1.62074532      24.58417370        2       0.00620628      -0.00706571       0.04704695
Pt       1.40360636       4.05186439      24.58417390        2      -0.00928144      -0.00190736       0.04677182
Pt       4.21082088       4.05186401      24.58417381        2      -0.00003470      -0.00010477       0.02095907
Pt       7.01803503       4.05186407      24.58417407        2       0.00973787      -0.00037457       0.04715887
Pt       2.80721279       6.48298345      24.58417372        2      -0.00456219       0.00858916       0.04729419
Pt       5.61442797       6.48298324      24.58417392        2       0.00296377       0.00904623       0.04682287
Pt       8.42164222       6.48298343      24.58417383        2       0.00005694       0.00005976       0.06395624
Pt       0.00029417       0.00018885      26.91853903        1       0.00036987       0.00179952      -0.01393968
Pt       2.80740717      -0.00133978      26.92238270        1      -0.00068947       0.00405791      -0.02844536
Pt       5.61316792       0.00053777      26.92243168        1       0.00378436      -0.00134193      -0.02868790
Pt       1.40331302       2.43127312      26.91849056        1      -0.00181423      -0.00060169      -0.01384593
Pt       4.20964406       2.43156721      26.91438147        1       0.00276574      -0.01228334       0.00719973
Pt       7.01806442       2.43074101      26.91852050        1       0.00141247      -0.00115061      -0.01399042
Pt       2.80816380       4.86307943      26.91427645        1      -0.01192114       0.00363378       0.00756713
Pt       5.61468582       4.86098026      26.91424758        1       0.00916640       0.00856445       0.00768363
Pt       8.42272661       4.86305031      26.92236770        1      -0.00313729      -0.00253890      -0.02859258
N        4.21077304       4.05451586      31.00023863        0       0.00022611      -0.00102855       0.03346034
H        5.16025627       4.06288668      30.60664813        0       0.01620814       0.00355931      -0.01184518
H        3.74664320       3.22270492      30.61404201        0      -0.00752621      -0.01559483      -0.01157155
H        3.72555343       4.86711882      30.59929063        0      -0.00887012       0.01280387      -0.01222855
