40
Lattice="8.421641763931781 0.0 0.0 4.2108208819658905 7.293355709136913 0.0 0.0 0.0 46.87624170604845" Properties=species:S:1:pos:R:3:tags:I:1:forces:R:3 charge=0 spin=0 energy=-206.4207713695443 free_energy=-206.4207713695443 stress="0.010463736951351166 6.329972546126328e-09 -8.07158073712344e-09 6.329972546126328e-09 0.010463804006576538 2.304745727599311e-08 -8.07158073712344e-09 2.304745727599311e-08 -0.00010559514339547604" pbc="T T T"
Pt      -0.00000005       0.00000022      19.95723419        4      -0.00051425      -0.00002782       0.01761284
Pt       2.80721406      -0.00000018      19.95723436        4      -0.00018334      -0.00071841       0.01853930
Pt       5.61442778      -0.00000006      19.95723442        4       0.00023360       0.00046501       0.01760561
Pt       1.40360717       2.43111838      19.95723425        4       0.00014480      -0.00005626       0.01899550
Pt       4.21082080       2.43111835      19.95723435        4      -0.00002127       0.00015415       0.01899030
Pt       7.01803478       2.43111843      19.95723423        4       0.00028114      -0.00043232       0.01760973
Pt       2.80721408       4.86223724      19.95723395        4      -0.00012167      -0.00009995       0.01899121
Pt       5.61442803       4.86223730      19.95723413        4       0.00071124       0.00020125       0.01853019
Pt       8.42164138       4.86223726      19.95723427        4      -0.00053168       0.00051344       0.01853581
Pt       1.40360728       0.81037260      22.29206790        3       0.00101813       0.00080595      -0.05337023
Pt       4.21082128       0.81037250      22.29206784        3      -0.00017097       0.00111387      -0.05444348
Pt       7.01803477       0.81037260      22.29206779        3       0.00000047       0.00000560      -0.04151085
Pt       2.80721450       3.24149125      22.29206775        3      -0.00000957       0.00000164      -0.04836319
Pt       5.61442762       3.24149123      22.29206790        3      -0.00119644       0.00048593      -0.05339409
Pt       8.42164156       3.24149116      22.29206805        3       0.00104332      -0.00039864      -0.05445452
Pt       4.21082094       5.67260998      22.29206797        3      -0.00087911      -0.00069684      -0.05445475
Pt       7.01803488       5.67261038      22.29206774        3      -0.00000207      -0.00000376      -0.05033073
Pt       9.82524823       5.67261061      22.29206804        3       0.00018456      -0.00129357      -0.05336162
Pt      -0.00000056       1.62074572      24.58417389        2      -0.00761394      -0.00450986       0.04757984
Pt       2.80721443       1.62074548      24.58417398        2       0.00191000       0.00779288       0.03286756
Pt       5.61442779       1.62074532      24.58417370        2       0.00772736      -0.00432556       0.04758957
Pt       1.40360636       4.05186439      24.58417390        2       0.00577753      -0.00555327       0.03284750
Pt       4.21082088       4.05186401      24.58417381        2      -0.00768989      -0.00221948       0.03284014
Pt       7.01803503       4.05186407      24.58417407        2      -0.00115360      -0.00608280       0.02980870
Pt       2.80721279       6.48298345      24.58417372        2      -0.00008525       0.00882609       0.04756899
Pt       5.61442797       6.48298324      24.58417392        2      -0.00471012       0.00404509       0.02980920
Pt       8.42164222       6.48298343      24.58417383        2       0.00585214       0.00204830       0.02982977
Pt       0.00490608      -0.00301170      26.91986796        1      -0.03647041       0.02229466      -0.01902192
Pt       2.80716485       0.00166737      26.91333135        1      -0.00106570      -0.00792447       0.01381512
Pt       5.60936769      -0.00274467      26.91986568        1       0.03756201       0.02039944      -0.01907796
Pt       1.39867548       2.42825295      26.91723580        1       0.02020922       0.01358218      -0.01468255
Pt       4.21576957       2.42828247      26.91723269        1      -0.02186021       0.01071204      -0.01470009
Pt       7.01819000       2.43687460      26.91986078        1      -0.00109340      -0.04271413      -0.01918708
Pt       2.80719734       4.86794022      26.91724007        1       0.00165493      -0.02432039      -0.01465127
Pt       5.61300813       4.86136150      26.91333151        1       0.00738711       0.00304936       0.01372975
Pt       8.42311159       4.86144603      26.91333157        1      -0.00632512       0.00488093       0.01370104
N        2.80721499       3.24149207      30.63975112        0      -0.00001805      -0.00007573      -0.02327793
H        2.80875403       2.29270505      30.24403857        0       0.00007413      -0.03771724       0.01697999
H        1.98477201       3.71454956      30.24403525        0      -0.03275428       0.01882724       0.01695642
H        3.62811584       3.71721612      30.24403407        0       0.03269851       0.01896577       0.01694811
