40
Lattice="8.421641763931781 0.0 0.0 4.2108208819658905 7.293355709136913 0.0 0.0 0.0 46.87624170604845" Properties=species:S:1:pos:R:3:tags:I:1:forces:R:3 charge=0 spin=0 energy=-206.42747569998863 free_energy=-206.42747569998863 stress="0.010509416460990906 5.7106577244780965e-09 1.2917475089579966e-08 5.7106577244780965e-09 0.010509340092539787 -2.2778651853627707e-08 1.2917475089579966e-08 -2.2778651853627707e-08 -1.4381775145011488e-05" pbc="T T T"
Pt      -0.00000005       0.00000022      19.95723419        4       0.00014873      -0.00013934       0.01859242
Pt       2.80721406      -0.00000018      19.95723436        4       0.00004659       0.00020021       0.01859696
Pt       5.61442778      -0.00000006      19.95723442        4      -0.00004783      -0.00035708       0.01881163
Pt       1.40360717       2.43111838      19.95723425        4      -0.00019287      -0.00005900       0.01860574
Pt       4.21082080       2.43111835      19.95723435        4      -0.00002463       0.00032223       0.01778619
Pt       7.01803478       2.43111843      19.95723423        4      -0.00026792      -0.00018365       0.01778517
Pt       2.80721408       4.86223724      19.95723395        4      -0.00028699       0.00021499       0.01882217
Pt       5.61442803       4.86223730      19.95723413        4       0.00029253      -0.00013921       0.01777885
Pt       8.42164138       4.86223726      19.95723427        4       0.00033755       0.00013643       0.01882514
Pt       1.40360728       0.81037260      22.29206790        3       0.00000113      -0.00000643      -0.05313606
Pt       4.21082128       0.81037250      22.29206784        3      -0.00022596       0.00000883      -0.05281575
Pt       7.01803477       0.81037260      22.29206779        3      -0.00068175       0.00042166      -0.05323355
Pt       2.80721450       3.24149125      22.29206775        3       0.00070863       0.00037429      -0.05321807
Pt       5.61442762       3.24149123      22.29206790        3       0.00000639      -0.00000209      -0.04806558
Pt       8.42164156       3.24149116      22.29206805        3       0.00010790      -0.00019936      -0.05281198
Pt       4.21082094       5.67260998      22.29206797        3       0.00012355       0.00018705      -0.05284281
Pt       7.01803488       5.67261038      22.29206774        3      -0.00002688      -0.00081130      -0.05323654
Pt       9.82524823       5.67261061      22.29206804        3       0.00000817      -0.00001539      -0.04576902
Pt      -0.00000056       1.62074572      24.58417389        2      -0.00505212       0.00390514       0.04068006
Pt       2.80721443       1.62074548      24.58417398        2       0.00589391       0.00244951       0.04068674
Pt       5.61442779       1.62074532      24.58417370        2       0.00005555       0.00008564       0.05516415
Pt       1.40360636       4.05186439      24.58417390        2       0.00082153       0.00921210       0.04425568
Pt       4.21082088       4.05186401      24.58417381        2       0.00004912      -0.00010578       0.05517108
Pt       7.01803503       4.05186407      24.58417407        2      -0.00011608      -0.00000601       0.05514807
Pt       2.80721279       6.48298345      24.58417372        2      -0.00838385      -0.00390740       0.04423540
Pt       5.61442797       6.48298324      24.58417392        2      -0.00085255      -0.00632042       0.04064678
Pt       8.42164222       6.48298343      24.58417383        2       0.00755637      -0.00532815       0.04422335
Pt      -0.00243510      -0.00155282      26.91397022        1       0.01293513       0.00619146       0.00501915
Pt       2.80977812      -0.00132061      26.91396937        1      -0.01183093       0.00810661       0.00500985
Pt       5.61452018       0.00114531      26.92246982        1       0.00151934      -0.00048340      -0.02646734
Pt       1.40347453       2.43400917      26.91398387        1      -0.00113169      -0.01425286       0.00501833
Pt       4.20948364       2.43014388      26.92017315        1       0.01256689       0.00715469      -0.02253412
Pt       7.01954638       2.43045421      26.92016994        1      -0.01246488       0.00732549      -0.02245903
Pt       2.80815358       4.86158722      26.92246298        1      -0.00115647      -0.00104953      -0.02660285
Pt       5.61424794       4.86388961      26.92015082        1      -0.00010353      -0.01447625      -0.02262095
Pt       8.42060392       4.86175652      26.92246084        1      -0.00033740       0.00154697      -0.02655739
N        9.82525028       5.67260329      30.84147646        0       0.00002185      -0.00005675      -0.04189187
H        8.99559845       5.21612317      30.44048120        0      -0.03680779      -0.02014736       0.01780521
H        9.84474803       6.61934605      30.44049228        0       0.00094887       0.04200150       0.01778167
H       10.63540044       5.18235075      30.44047431        0       0.03584248      -0.02179788       0.01781342
