40
Lattice="8.421641763931781 0.0 0.0 4.2108208819658905 7.293355709136913 0.0 0.0 0.0 46.87624170604845" Properties=species:S:1:pos:R:3:tags:I:1:forces:R:3 charge=0 spin=0 energy=-206.41953159293297 free_energy=-206.41953159293297 stress="0.010535359382629395 6.516013672808185e-05 3.5883958844351582e-06 6.516013672808185e-05 0.010397978127002716 2.0882398530375212e-05 3.5883958844351582e-06 2.0882398530375212e-05 -0.00017516614752821624" pbc="T T T"
Pt      -0.00000005       0.00000022      19.95723419        4      -0.00209273      -0.00273621       0.01744366
Pt       2.80721406      -0.00000018      19.95723436        4      -0.00227883      -0.00289965       0.01840849
Pt       5.61442778      -0.00000006      19.95723442        4      -0.00272870      -0.00253405       0.01835326
Pt       1.40360717       2.43111838      19.95723425        4      -0.00184028      -0.00249494       0.01823169
Pt       4.21082080       2.43111835      19.95723435        4      -0.00239381      -0.00226104       0.01887923
Pt       7.01803478       2.43111843      19.95723423        4      -0.00211362      -0.00200290       0.01748844
Pt       2.80721408       4.86223724      19.95723395        4      -0.00228686      -0.00250341       0.01854787
Pt       5.61442803       4.86223730      19.95723413        4      -0.00200075      -0.00238376       0.01842514
Pt       8.42164138       4.86223726      19.95723427        4      -0.00215655      -0.00216402       0.01848186
Pt       1.40360728       0.81037260      22.29206790        3      -0.00867754      -0.00739936      -0.05067370
Pt       4.21082128       0.81037250      22.29206784        3      -0.00913551      -0.00842140      -0.05417473
Pt       7.01803477       0.81037260      22.29206779        3      -0.01175616      -0.00864667      -0.04875678
Pt       2.80721450       3.24149125      22.29206775        3      -0.00980893      -0.00890079      -0.05125165
Pt       5.61442762       3.24149123      22.29206790        3      -0.01035994      -0.00878235      -0.05099568
Pt       8.42164156       3.24149116      22.29206805        3      -0.00898110      -0.00931448      -0.05265098
Pt       4.21082094       5.67260998      22.29206797        3      -0.01142098      -0.00978801      -0.05095133
Pt       7.01803488       5.67261038      22.29206774        3      -0.01025505      -0.00866262      -0.05069228
Pt       9.82524823       5.67261061      22.29206804        3      -0.00918282      -0.00961401      -0.05268931
Pt      -0.00000056       1.62074572      24.58417389        2       0.02551397       0.02492817       0.02419727
Pt       2.80721443       1.62074548      24.58417398        2       0.02937232       0.02219412       0.02409809
Pt       5.61442779       1.62074532      24.58417370        2       0.02730120       0.03020538       0.03018301
Pt       1.40360636       4.05186439      24.58417390        2       0.02126321       0.02855299       0.02247718
Pt       4.21082088       4.05186401      24.58417381        2       0.03142251       0.02673468       0.00772287
Pt       7.01803503       4.05186407      24.58417407        2       0.02768860       0.02779807       0.02871105
Pt       2.80721279       6.48298345      24.58417372        2       0.03063257       0.02810078       0.02482772
Pt       5.61442797       6.48298324      24.58417392        2       0.02665361       0.02910960       0.02864075
Pt       8.42164222       6.48298343      24.58417383        2       0.02562153       0.02371915       0.03403266
Pt       0.03995433       0.03444705      26.91580681        1      -0.02140519      -0.01069898       0.00224522
Pt       2.84461051       0.03496893      26.91589124        1      -0.01203930      -0.02301041       0.00361269
Pt       5.65292396       0.03371478      26.91248885        1      -0.01380927      -0.01452921       0.01142800
Pt       1.44253642       2.46688341      26.91457716        1      -0.03115652      -0.02628851       0.01015710
Pt       4.24728610       2.46676131      26.91508660        1       0.00339131      -0.03678736       0.01535151
Pt       7.05750300       2.46710770      26.91472421        1      -0.02000975      -0.02406343       0.00629123
Pt       2.84695169       4.89449755      26.91339439        1      -0.02976932       0.01213584       0.01125947
Pt       5.65091930       4.89533685      26.91536974        1       0.00621845      -0.00593550       0.00759786
Pt       8.45965093       4.89674156      26.91696291        1      -0.01798056      -0.00948865      -0.00188916
N        3.43707447       3.69243454      30.81340915        0       0.00432380      -0.01414518       0.01127321
H        2.54089797       3.58313762      30.32057095        0       0.01664168       0.02965406      -0.00311712
H        3.96954721       4.41013371      30.30394989        0      -0.03318231      -0.00932572      -0.00113787
H        3.94593992       2.80841334      30.68563750        0       0.01277759      -0.00735028       0.00061408
