40
Lattice="8.421641763931781 0.0 0.0 4.2108208819658905 7.293355709136913 0.0 0.0 0.0 46.87624170604845" Properties=species:S:1:pos:R:3:tags:I:1:forces:R:3 charge=0 spin=0 energy=-206.42468143424156 free_energy=-206.42468143424156 stress="0.0104605071246624 -7.362003628941238e-08 1.7984307376650577e-08 -7.362003628941238e-08 0.010460450313985348 9.507674647579734e-09 1.7984307376650577e-08 9.507674647579734e-09 -0.00015493491082452238" pbc="T T T"
Pt      -0.00000005       0.00000022      19.95723419        4       0.00056051       0.00014200       0.01844906
Pt       2.80721406      -0.00000018      19.95723436        4      -0.00040552       0.00041448       0.01845355
Pt       5.61442778      -0.00000006      19.95723442        4      -0.00010757      -0.00000027       0.01891530
Pt       1.40360717       2.43111838      19.95723425        4      -0.00015483      -0.00055582       0.01845826
Pt       4.21082080       2.43111835      19.95723435        4      -0.00000544       0.00035108       0.01770016
Pt       7.01803478       2.43111843      19.95723423        4      -0.00030269      -0.00017905       0.01769840
Pt       2.80721408       4.86223724      19.95723395        4       0.00005014       0.00008732       0.01892556
Pt       5.61442803       4.86223730      19.95723413        4       0.00030564      -0.00017324       0.01769558
Pt       8.42164138       4.86223726      19.95723427        4       0.00005761      -0.00009456       0.01892813
Pt       1.40360728       0.81037260      22.29206790        3      -0.00000147      -0.00000300      -0.05018474
Pt       4.21082128       0.81037250      22.29206784        3       0.00032760      -0.00100721      -0.05300241
Pt       7.01803477       0.81037260      22.29206779        3      -0.00102569      -0.00067957      -0.05329368
Pt       2.80721450       3.24149125      22.29206775        3      -0.00007786       0.00122438      -0.05328094
Pt       5.61442762       3.24149123      22.29206790        3       0.00000257       0.00000227      -0.04381518
Pt       8.42164156       3.24149116      22.29206805        3       0.00070475       0.00079687      -0.05300899
Pt       4.21082094       5.67260998      22.29206797        3      -0.00103901       0.00021043      -0.05302942
Pt       7.01803488       5.67261038      22.29206774        3       0.00109142      -0.00055425      -0.05329025
Pt       9.82524823       5.67261061      22.29206804        3       0.00000497      -0.00001339      -0.05023634
Pt      -0.00000056       1.62074572      24.58417389        2      -0.00298459       0.00340259       0.02122187
Pt       2.80721443       1.62074548      24.58417398        2       0.00442980       0.00092131       0.02124278
Pt       5.61442779       1.62074532      24.58417370        2      -0.00046746       0.00639098       0.03448679
Pt       1.40360636       4.05186439      24.58417390        2       0.00155444       0.00357341       0.02714919
Pt       4.21082088       4.05186401      24.58417381        2       0.00576426      -0.00276725       0.03450705
Pt       7.01803503       4.05186407      24.58417407        2      -0.00528255      -0.00359365       0.03449061
Pt       2.80721279       6.48298345      24.58417372        2      -0.00383759      -0.00045186       0.02711561
Pt       5.61442797       6.48298324      24.58417392        2      -0.00143847      -0.00426816       0.02120266
Pt       8.42164222       6.48298343      24.58417383        2       0.00229935      -0.00312199       0.02712750
Pt       0.00044321       0.00055220      26.91304099        1      -0.00719568      -0.00726283       0.01612184
Pt       2.80652980       0.00011804      26.91304008        1       0.00987870      -0.00260468       0.01610767
Pt       5.61412794       0.00400717      26.91484977        1       0.00191519      -0.01857614      -0.00127826
Pt       1.40386206       2.43048263      26.91305147        1      -0.00267781       0.00988355       0.01618386
Pt       4.20630188       2.42941288      26.91604421        1       0.03216857       0.01566140      -0.00321134
Pt       7.02179216       2.42807398      26.91604569        1      -0.02967142       0.02000230      -0.00315332
Pt       2.81083061       4.86051778      26.91485469        1      -0.01701422       0.00761110      -0.00137343
Pt       5.61520811       4.86702555      26.91602941        1      -0.00252365      -0.03570938      -0.00331286
Pt       8.41834059       4.85998801      26.91485443        1       0.01509956       0.01094142      -0.00133225
N        9.82520006       5.67270187      30.74533169        0      -0.00007108      -0.00008399      -0.04114246
H       10.76519359       5.81513555      30.35125182        0      -0.02120579      -0.00458163       0.01856792
H        9.47882465       4.78707687      30.35180105        0       0.00633204       0.02072386       0.01857937
H        9.23165043       6.41515041      30.35080177        0       0.01494319      -0.01605899       0.01861698
