40
Lattice="8.421641763931781 0.0 0.0 4.2108208819658905 7.293355709136913 0.0 0.0 0.0 46.87624170604845" Properties=species:S:1:pos:R:3:tags:I:1:forces:R:3 charge=0 spin=0 energy=-206.42417980155113 free_energy=-206.42417980155113 stress="0.010423633269965649 -4.010750842553534e-08 -3.707330265001474e-08 -4.010750842553534e-08 0.010423817671835423 9.6505480939868e-08 -3.707330265001474e-08 9.6505480939868e-08 -0.0002329743147129193" pbc="T T T"
Pt      -0.00000005       0.00000022      19.95723419        4       0.00004028       0.00018049       0.01865650
Pt       2.80721406      -0.00000018      19.95723436        4       0.00020134       0.00051987       0.01768104
Pt       5.61442778      -0.00000006      19.95723442        4       0.00014014      -0.00012129       0.01864993
Pt       1.40360717       2.43111838      19.95723425        4       0.00028271       0.00004887       0.01850720
Pt       4.21082080       2.43111835      19.95723435        4      -0.00017979       0.00022450       0.01851206
Pt       7.01803478       2.43111843      19.95723423        4      -0.00018078      -0.00005499       0.01865491
Pt       2.80721408       4.86223724      19.95723395        4      -0.00010122      -0.00027370       0.01851131
Pt       5.61442803       4.86223730      19.95723413        4      -0.00055238      -0.00008686       0.01768106
Pt       8.42164138       4.86223726      19.95723427        4       0.00034755      -0.00043835       0.01767777
Pt       1.40360728       0.81037260      22.29206790        3      -0.00177392       0.00007217      -0.05153242
Pt       4.21082128       0.81037250      22.29206784        3       0.00138201      -0.00059107      -0.05229143
Pt       7.01803477       0.81037260      22.29206779        3       0.00000011       0.00000524      -0.05367959
Pt       2.80721450       3.24149125      22.29206775        3      -0.00000918       0.00000677      -0.05010926
Pt       5.61442762       3.24149123      22.29206790        3       0.00082939      -0.00156875      -0.05151596
Pt       8.42164156       3.24149116      22.29206805        3      -0.00121747      -0.00089465      -0.05230150
Pt       4.21082094       5.67260998      22.29206797        3      -0.00017461       0.00150911      -0.05228369
Pt       7.01803488       5.67261038      22.29206774        3      -0.00000582      -0.00000194      -0.04671195
Pt       9.82524823       5.67261061      22.29206804        3       0.00094765       0.00149948      -0.05151519
Pt      -0.00000056       1.62074572      24.58417389        2       0.01194497       0.00716944       0.00255561
Pt       2.80721443       1.62074548      24.58417398        2      -0.00148067       0.00331722       0.03534884
Pt       5.61442779       1.62074532      24.58417370        2      -0.01216568       0.00677391       0.00255790
Pt       1.40360636       4.05186439      24.58417390        2       0.00359452      -0.00036112       0.03535695
Pt       4.21082088       4.05186401      24.58417381        2      -0.00210992      -0.00292090       0.03537901
Pt       7.01803503       4.05186407      24.58417407        2      -0.00068656       0.00369136       0.01123637
Pt       2.80721279       6.48298345      24.58417372        2       0.00024115      -0.01392508       0.00257356
Pt       5.61442797       6.48298324      24.58417392        2       0.00354366      -0.00124663       0.01124053
Pt       8.42164222       6.48298343      24.58417383        2      -0.00286649      -0.00243444       0.01121823
Pt      -0.00258455      -0.00019961      26.90747705        1       0.02718820      -0.00939537       0.03887313
Pt       2.80766446      -0.00099008      26.91183803        1      -0.00258317       0.01344332       0.01321850
Pt       5.61554251       0.00233968      26.90747950        1      -0.02173620      -0.01883581       0.03889644
Pt       1.40295421       2.43043900      26.91713526        1       0.01661503       0.00755638      -0.00546612
Pt       4.21173559       2.43089957      26.91713679        1      -0.01486497       0.01057062      -0.00548654
Pt       7.01949869       2.42898409      26.90748276        1      -0.00544590       0.02820682       0.03898333
Pt       2.80694805       4.86314374      26.91714085        1      -0.00175977      -0.01816665      -0.00539189
Pt       5.61505912       4.86312560      26.91184205        1      -0.01033418      -0.00897986       0.01339360
Pt       8.42055590       4.86234389      26.91184427        1       0.01293136      -0.00449909       0.01344059
N        7.01799750       0.81032901      30.80472176        0       0.00007274       0.00000076      -0.02130176
H        6.85894640      -0.12782244      30.41260045        0       0.00443933       0.03538951       0.01025417
H        6.28512196       1.41717316      30.41252458        0       0.02822477      -0.02172541       0.01025156
H        7.91000965       1.14161251      30.41261818        0      -0.03273787      -0.01366370       0.01027692
