40
Lattice="8.421641763931781 0.0 0.0 4.2108208819658905 7.293355709136913 0.0 0.0 0.0 46.87624170604845" Properties=species:S:1:pos:R:3:tags:I:1:forces:R:3 charge=0 spin=0 energy=-206.4280440898812 free_energy=-206.4280440898812 stress="0.010447520762681961 -1.8767599030411475e-08 2.1106314918029057e-08 -1.8767599030411475e-08 0.010447535663843155 4.5807695414623595e-09 2.1106314918029057e-08 4.5807695414623595e-09 -0.00014918706438038498" pbc="T T T"
Pt      -0.00000005       0.00000022      19.95723419        4       0.00039994      -0.00018237       0.01875548
Pt       2.80721406      -0.00000018      19.95723436        4      -0.00035977      -0.00024776       0.01874876
Pt       5.61442778      -0.00000006      19.95723442        4       0.00026757       0.00070342       0.01847590
Pt       1.40360717       2.43111838      19.95723425        4      -0.00012440       0.00012352       0.01776132
Pt       4.21082080       2.43111835      19.95723435        4       0.00047005      -0.00058133       0.01848935
Pt       7.01803478       2.43111843      19.95723423        4      -0.00073886      -0.00011663       0.01849439
Pt       2.80721408       4.86223724      19.95723395        4      -0.00004239      -0.00017166       0.01776687
Pt       5.61442803       4.86223730      19.95723413        4      -0.00004061       0.00042926       0.01876339
Pt       8.42164138       4.86223726      19.95723427        4       0.00016930       0.00004173       0.01776429
Pt       1.40360728       0.81037260      22.29206790        3      -0.00037304      -0.00007445      -0.05168937
Pt       4.21082128       0.81037250      22.29206784        3      -0.00071377       0.00015041      -0.05167916
Pt       7.01803477       0.81037260      22.29206779        3       0.00022826      -0.00068552      -0.05166651
Pt       2.80721450       3.24149125      22.29206775        3       0.00011136       0.00000783      -0.05117960
Pt       5.61442762       3.24149123      22.29206790        3       0.00048371       0.00053852      -0.05165282
Pt       8.42164156       3.24149116      22.29206805        3      -0.00004711      -0.00011133      -0.05117501
Pt       4.21082094       5.67260998      22.29206797        3       0.00024798      -0.00027244      -0.05168051
Pt       7.01803488       5.67261038      22.29206774        3       0.00011984       0.00035752      -0.05168576
Pt       9.82524823       5.67261061      22.29206804        3      -0.00005805       0.00009309      -0.05119217
Pt      -0.00000056       1.62074572      24.58417389        2      -0.00047595      -0.00577071       0.02570811
Pt       2.80721443       1.62074548      24.58417398        2      -0.00008403      -0.00441926       0.02510032
Pt       5.61442779       1.62074532      24.58417370        2      -0.00000572       0.00003257       0.04170563
Pt       1.40360636       4.05186439      24.58417390        2       0.00001248      -0.00001096       0.02100762
Pt       4.21082088       4.05186401      24.58417381        2       0.00522083       0.00246742       0.02570434
Pt       7.01803503       4.05186407      24.58417407        2      -0.00378402       0.00227937       0.02510808
Pt       2.80721279       6.48298345      24.58417372        2       0.00387262       0.00213766       0.02504933
Pt       5.61442797       6.48298324      24.58417392        2      -0.00000285      -0.00001767       0.04140965
Pt       8.42164222       6.48298343      24.58417383        2      -0.00475431       0.00329674       0.02568612
Pt      -0.00239660       0.00186843      26.91831359        1       0.01325211      -0.00831734      -0.01016524
Pt       2.81003058       0.00113978      26.91831462        1      -0.01382416      -0.00734305      -0.01014978
Pt       5.61433799      -0.00422157      26.91346434        1       0.00128832       0.02852313       0.00660263
Pt       1.40390124       2.42848411      26.91251503        1       0.00063719       0.01122340       0.01411801
Pt       4.20720928       2.43330741      26.91348625        1       0.02405668      -0.01535093       0.00671966
Pt       7.02173489       2.43315335      26.91348470        1      -0.02532961      -0.01314200       0.00667818
Pt       2.80934789       4.86381000      26.91251094        1      -0.01007906      -0.00506762       0.01405626
Pt       5.61400653       4.85922830      26.91832715        1       0.00056913       0.01566054      -0.01012166
Pt       8.41921226       4.86329915      26.91251003        1       0.00943703      -0.00618148       0.01402346
N        5.61442855       6.48297842      30.84811611        0      -0.00010921      -0.00002678      -0.01012529
H        4.80026703       6.97086900      30.45231642        0      -0.01264818       0.00769718       0.00684218
H        6.44402990       6.94412141      30.45231831        0       0.01308236       0.00716304       0.00679398
H        5.59898540       5.53395496      30.45230331        0      -0.00033132      -0.01483499       0.00682941
