40
Lattice="8.421641763931781 0.0 0.0 4.2108208819658905 7.293355709136913 0.0 0.0 0.0 46.87624170604845" Properties=species:S:1:pos:R:3:tags:I:1:forces:R:3 charge=0 spin=0 energy=-206.99317813834313 free_energy=-206.99317813834313 stress="0.01001401524990797 -7.216265629494956e-08 -8.326896505650438e-09 -7.216265629494956e-08 0.010014018975198269 3.549728289087284e-09 -8.326896505650438e-09 3.549728289087284e-09 -0.00022639194503426552" pbc="T T T"
Pt      -0.00000005       0.00000022      19.95723419        4       0.00000215      -0.00000161       0.02415576
Pt       2.80721406      -0.00000018      19.95723436        4       0.00252706       0.00453724       0.02147006
Pt       5.61442778      -0.00000006      19.95723442        4      -0.00375525       0.00404307       0.02207661
Pt       1.40360717       2.43111838      19.95723425        4       0.00537546       0.00124096       0.02211750
Pt       4.21082080       2.43111835      19.95723435        4       0.00000166       0.00000133      -0.04330978
Pt       7.01803478       2.43111843      19.95723423        4      -0.00519169      -0.00007057       0.02148877
Pt       2.80721408       4.86223724      19.95723395        4       0.00266243      -0.00446629       0.02146550
Pt       5.61442803       4.86223730      19.95723413        4      -0.00162312      -0.00528204       0.02214114
Pt       8.42164138       4.86223726      19.95723427        4       0.00000033      -0.00000283       0.01869641
Pt       1.40360728       0.81037260      22.29206790        3      -0.00025718       0.00216533      -0.07369008
Pt       4.21082128       0.81037250      22.29206784        3      -0.00145882       0.02618649      -0.08347153
Pt       7.01803477       0.81037260      22.29206779        3      -0.00173529      -0.00133990      -0.07373691
Pt       2.80721450       3.24149125      22.29206775        3       0.02342105      -0.01186079      -0.08351517
Pt       5.61442762       3.24149123      22.29206790        3      -0.02197101      -0.01431629      -0.08353350
Pt       8.42164156       3.24149116      22.29206805        3      -0.00224262       0.00242323      -0.04670533
Pt       4.21082094       5.67260998      22.29206797        3       0.00198997      -0.00081506      -0.07383709
Pt       7.01803488       5.67261038      22.29206774        3       0.00321540       0.00079101      -0.04675437
Pt       9.82524823       5.67261061      22.29206804        3      -0.00096804      -0.00322290      -0.04678741
Pt      -0.00000056       1.62074572      24.58417389        2       0.00405113      -0.00840592       0.00947884
Pt       2.80721443       1.62074548      24.58417398        2       0.03958467       0.02568489      -0.08192901
Pt       5.61442779       1.62074532      24.58417370        2      -0.04199893       0.02139905      -0.08179854
Pt       1.40360636       4.05186439      24.58417390        2      -0.13585094       0.08375134       0.24959600
Pt       4.21082088       4.05186401      24.58417381        2       0.00241340      -0.04706083      -0.08164123
Pt       7.01803503       4.05186407      24.58417407        2       0.14045593       0.07582060       0.24964413
Pt       2.80721279       6.48298345      24.58417372        2       0.00525608       0.00764119       0.00975700
Pt       5.61442797       6.48298324      24.58417392        2      -0.00931742       0.00074413       0.00967863
Pt       8.42164222       6.48298343      24.58417383        2      -0.00459071      -0.15956284       0.24964678
Pt       0.00000129      -0.00000380      26.92861363        1       0.00000858      -0.00001668      -0.00936435
Pt       2.79669260       0.01980123      26.90686238        1       0.00260147      -0.01730461      -0.00714018
Pt       5.62559428       0.01929501      26.90613580        1      -0.00264564      -0.01714124      -0.00725202
Pt       1.41471962       2.41180154      26.90610958        1      -0.01346266       0.01088336      -0.00728126
Pt       4.21082015       2.43112213      26.92230031        1      -0.00000177       0.00001160       0.00710772
Pt       7.00615510       2.41209160      26.90686499        1       0.01362445       0.01093282      -0.00713350
Pt       2.82961697       4.86146441      26.90686934        1      -0.01621493       0.00637214      -0.00717441
Pt       5.59214892       4.86225995      26.90612536        1       0.01609228       0.00624596      -0.00729706
Pt       8.42164180       4.86223825      26.99502370        1       0.00000315      -0.00000309       0.00947210
N        8.42164049       4.86223647      29.15419492        0       0.00002092       0.00000449      -0.02002212
H        7.57895122       5.34625506      29.49103059        0       0.04109869      -0.02362549       0.00179854
H        9.26215718       5.35001720      29.49103133        0      -0.04103229      -0.02379161       0.00178735
H        8.42381215       3.89043704      29.49102895        0      -0.00008780       0.04741044       0.00179581
