40
Lattice="8.421641763931781 0.0 0.0 4.2108208819658905 7.293355709136913 0.0 0.0 0.0 46.87624170604845" Properties=species:S:1:pos:R:3:tags:I:1:forces:R:3 charge=0 spin=0 energy=-206.99282527884606 free_energy=-206.99282527884606 stress="0.010041460394859314 -8.329985945465523e-08 -9.809622447676247e-09 -8.329985945465523e-08 0.010041485540568829 -6.738591906696456e-09 -9.809622447676247e-09 -6.738591906696456e-09 -0.00017481726536061615" pbc="T T T"
Pt      -0.00000005       0.00000022      19.95723419        4       0.00000275      -0.00000086       0.01857313
Pt       2.80721406      -0.00000018      19.95723436        4       0.00248914      -0.00435738       0.02149852
Pt       5.61442778      -0.00000006      19.95723442        4      -0.00140855      -0.00510506       0.02216822
Pt       1.40360717       2.43111838      19.95723425        4      -0.00371517       0.00377089       0.02212365
Pt       4.21082080       2.43111835      19.95723435        4       0.00000120       0.00000157       0.02436719
Pt       7.01803478       2.43111843      19.95723423        4       0.00252474       0.00433723       0.02150770
Pt       2.80721408       4.86223724      19.95723395        4      -0.00501565       0.00002025       0.02152511
Pt       5.61442803       4.86223730      19.95723413        4       0.00512030       0.00133632       0.02215395
Pt       8.42164138       4.86223726      19.95723427        4       0.00000072      -0.00000366      -0.04318877
Pt       1.40360728       0.81037260      22.29206790        3      -0.00073218      -0.00308303      -0.04528667
Pt       4.21082128       0.81037250      22.29206784        3       0.00199625      -0.00068555      -0.07438410
Pt       7.01803477       0.81037260      22.29206779        3       0.00299110       0.00094566      -0.04524852
Pt       2.80721450       3.24149125      22.29206775        3      -0.00164084      -0.00141134      -0.07428491
Pt       5.61442762       3.24149123      22.29206790        3      -0.00036530       0.00210706      -0.07423488
Pt       8.42164156       3.24149116      22.29206805        3      -0.00149269       0.02584561      -0.08390199
Pt       4.21082094       5.67260998      22.29206797        3      -0.00226295       0.00214674      -0.04519167
Pt       7.01803488       5.67261038      22.29206774        3       0.02315317      -0.01165860      -0.08393724
Pt       9.82524823       5.67261061      22.29206804        3      -0.02165290      -0.01419783      -0.08395252
Pt      -0.00000056       1.62074572      24.58417389        2      -0.00462836      -0.15921235       0.24152029
Pt       2.80721443       1.62074548      24.58417398        2       0.00705634       0.00868686       0.01799938
Pt       5.61442779       1.62074532      24.58417370        2      -0.01110436       0.00180315       0.01794184
Pt       1.40360636       4.05186439      24.58417390        2      -0.03956341       0.01976268      -0.06712271
Pt       4.21082088       4.05186401      24.58417381        2       0.00405095      -0.01047090       0.01776593
Pt       7.01803503       4.05186407      24.58417407        2       0.03694700       0.02438376      -0.06721178
Pt       2.80721279       6.48298345      24.58417372        2       0.14019327       0.07560452       0.24152350
Pt       5.61442797       6.48298324      24.58417392        2      -0.13554655       0.08360610       0.24149318
Pt       8.42164222       6.48298343      24.58417383        2       0.00260136      -0.04415915      -0.06696901
Pt       0.00000067      -0.00000111      26.99524173        1       0.00000099       0.00000431       0.03442338
Pt       2.82492174      -0.00203763      26.90784091        1       0.02422754       0.01461899      -0.01244233
Pt       5.59722286      -0.00148349      26.90707843        1      -0.02551187       0.01521221      -0.01262661
Pt       1.41092997       2.44675988      26.90708012        1       0.02593900       0.01448380      -0.01257482
Pt       4.21082444       2.43111995      26.92918772        1       0.00000334      -0.00000520      -0.01948137
Pt       7.01095637       2.44747259      26.90784329        1      -0.02477072       0.01367342      -0.01246079
Pt       2.79658552       4.84792169      26.90783746        1       0.00054186      -0.02829126      -0.01242376
Pt       5.62431214       4.84807960      26.90707512        1      -0.00042975      -0.02970659      -0.01268389
Pt       8.42163897       4.86223709      26.92455824        1       0.00000062       0.00000117      -0.00622721
N        0.00000023      -0.00000043      29.15768892        0      -0.00003509      -0.00000674      -0.03576120
H       -0.00081806      -0.97173348      29.49437770        0       0.00003941       0.04402052       0.00167326
H       -0.84113623       0.48657397      29.49437862        0       0.03811757      -0.02205271       0.00166276
H        0.84195413       0.48515634      29.49437825        0      -0.03812242      -0.02196457       0.00167605
