40
Lattice="8.421641763931781 0.0 0.0 4.2108208819658905 7.293355709136913 0.0 0.0 0.0 46.87624170604845" Properties=species:S:1:pos:R:3:tags:I:1:forces:R:3 charge=0 spin=0 energy=-206.42709423026207 free_energy=-206.42709423026207 stress="0.010525007732212543 -5.569837639995967e-07 -6.518391160170722e-08 -5.569837639995967e-07 0.01052524521946907 8.074434845184442e-07 -6.518391160170722e-08 8.074434845184442e-07 -1.928096025949344e-05" pbc="T T T"
Pt      -0.00000005       0.00000022      19.95723419        4       0.00024070      -0.00047455       0.01848534
Pt       2.80721406      -0.00000018      19.95723436        4      -0.00053261       0.00003783       0.01849055
Pt       5.61442778      -0.00000006      19.95723442        4      -0.00017241      -0.00017130       0.01808835
Pt       1.40360717       2.43111838      19.95723425        4       0.00003130      -0.00014270       0.01865957
Pt       4.21082080       2.43111835      19.95723435        4      -0.00006875       0.00022805       0.01809327
Pt       7.01803478       2.43111843      19.95723423        4       0.00023191      -0.00005360       0.01809493
Pt       2.80721408       4.86223724      19.95723395        4       0.00010423       0.00009712       0.01865024
Pt       5.61442803       4.86223730      19.95723413        4       0.00029403       0.00044693       0.01848909
Pt       8.42164138       4.86223726      19.95723427        4      -0.00013938       0.00004202       0.01865124
Pt       1.40360728       0.81037260      22.29206790        3       0.00046466       0.00071712      -0.05227970
Pt       4.21082128       0.81037250      22.29206784        3      -0.00069985      -0.00096810      -0.04927079
Pt       7.01803477       0.81037260      22.29206779        3       0.00120370      -0.00008739      -0.04929017
Pt       2.80721450       3.24149125      22.29206775        3      -0.00064589       0.00076283      -0.05367612
Pt       5.61442762       3.24149123      22.29206790        3      -0.00052539       0.00109450      -0.04933074
Pt       8.42164156       3.24149116      22.29206805        3       0.00097028       0.00020645      -0.05364117
Pt       4.21082094       5.67260998      22.29206797        3      -0.00088102       0.00007158      -0.05231841
Pt       7.01803488       5.67261038      22.29206774        3       0.00038069      -0.00078145      -0.05227540
Pt       9.82524823       5.67261061      22.29206804        3      -0.00031308      -0.00095637      -0.05366282
Pt      -0.00000056       1.62074572      24.58417389        2      -0.00502838      -0.00817645       0.04733461
Pt       2.80721443       1.62074548      24.58417398        2       0.00622784      -0.00707426       0.04707001
Pt       5.61442779       1.62074532      24.58417370        2       0.00000362      -0.00001897       0.03992281
Pt       1.40360636       4.05186439      24.58417390        2      -0.00003095      -0.00011106       0.02097067
Pt       4.21082088       4.05186401      24.58417381        2       0.00976196      -0.00039218       0.04718070
Pt       7.01803503       4.05186407      24.58417407        2      -0.00930481      -0.00192365       0.04679837
Pt       2.80721279       6.48298345      24.58417372        2       0.00296744       0.00906953       0.04684946
Pt       5.61442797       6.48298324      24.58417392        2       0.00006304       0.00006359       0.06395079
Pt       8.42164222       6.48298343      24.58417383        2      -0.00457300       0.00861792       0.04732307
Pt       0.00020417      -0.00134877      26.92239749        1      -0.00075823       0.00410780      -0.02853232
Pt       2.80594229       0.00053189      26.92244812        1       0.00385927      -0.00129861      -0.02877634
Pt       5.61472218       0.00021281      26.91854954        1       0.00037015       0.00163627      -0.01396877
Pt       1.40242921       2.43154810      26.91436659        1       0.00277032      -0.01215026       0.00721845
Pt       4.21087120       2.43072991      26.91852865        1       0.00127322      -0.00107631      -0.01401487
Pt       7.01772174       2.43126164      26.91849897        1      -0.00167588      -0.00051670      -0.01386090
Pt       2.80748963       4.86098810      26.91423305        1       0.00904858       0.00850303       0.00770483
Pt       5.61551582       4.86306443      26.92238309        1      -0.00311916      -0.00262767      -0.02867394
Pt       8.42257754       4.86309071      26.91426314        1      -0.01181838       0.00356008       0.00758535
N        9.82520172       4.05451573      30.99946510        0       0.00005215      -0.00101546       0.03362196
H        9.36106146       3.22271517      30.61326722        0      -0.00759353      -0.01571684      -0.01155847
H        9.33999494       4.86712158      30.59851459        0      -0.00894561       0.01292036      -0.01221362
H       10.77467724       4.06287419      30.60587153        0       0.01650704       0.00355037      -0.01188928
