40
Lattice="8.421641763931781 0.0 0.0 4.2108208819658905 7.293355709136913 0.0 0.0 0.0 46.87624170604845" Properties=species:S:1:pos:R:3:tags:I:1:forces:R:3 charge=0 spin=0 energy=-206.42585445365074 free_energy=-206.42585445365074 stress="0.010472876951098442 6.0959890468836875e-09 -1.4085682842335245e-08 6.0959890468836875e-09 0.010472893714904785 -4.313803536604155e-09 -1.4085682842335245e-08 -4.313803536604155e-09 -0.00011294039722997695" pbc="T T T"
Pt      -0.00000005       0.00000022      19.95723419        4      -0.00012939      -0.00014248       0.01874844
Pt       2.80721406      -0.00000018      19.95723436        4       0.00019048       0.00064397       0.01850357
Pt       5.61442778      -0.00000006      19.95723442        4       0.00018862      -0.00003708       0.01874588
Pt       1.40360717       2.43111838      19.95723425        4       0.00045618      -0.00048557       0.01850623
Pt       4.21082080       2.43111835      19.95723435        4      -0.00064800      -0.00015189       0.01851059
Pt       7.01803478       2.43111843      19.95723423        4      -0.00018837       0.00015301       0.01784970
Pt       2.80721408       4.86223724      19.95723395        4      -0.00005636       0.00018027       0.01875847
Pt       5.61442803       4.86223730      19.95723413        4       0.00022306       0.00008293       0.01785127
Pt       8.42164138       4.86223726      19.95723427        4      -0.00003634      -0.00024013       0.01785214
Pt       1.40360728       0.81037260      22.29206790        3      -0.00073892       0.00018487      -0.05215641
Pt       4.21082128       0.81037250      22.29206784        3       0.00020775      -0.00072012      -0.05214381
Pt       7.01803477       0.81037260      22.29206779        3      -0.00040300      -0.00054724      -0.05231070
Pt       2.80721450       3.24149125      22.29206775        3       0.00051851       0.00055018      -0.05213474
Pt       5.61442762       3.24149123      22.29206790        3      -0.00044973      -0.00073658      -0.05008673
Pt       8.42164156       3.24149116      22.29206805        3       0.00086315      -0.00002161      -0.05009218
Pt       4.21082094       5.67260998      22.29206797        3      -0.00027543       0.00062904      -0.05231535
Pt       7.01803488       5.67261038      22.29206774        3      -0.00040915       0.00076116      -0.05010196
Pt       9.82524823       5.67261061      22.29206804        3       0.00068498      -0.00007801      -0.05230982
Pt      -0.00000056       1.62074572      24.58417389        2       0.00101172       0.00076786       0.02884642
Pt       2.80721443       1.62074548      24.58417398        2      -0.00001150       0.00001018       0.04721570
Pt       5.61442779       1.62074532      24.58417370        2      -0.00181368       0.00055133       0.03341889
Pt       1.40360636       4.05186439      24.58417390        2       0.00042052      -0.00187460       0.03339121
Pt       4.21082088       4.05186401      24.58417381        2       0.00018014      -0.00127320       0.02883002
Pt       7.01803503       4.05186407      24.58417407        2       0.00000003      -0.00001508       0.02591463
Pt       2.80721279       6.48298345      24.58417372        2       0.00001354      -0.00001035       0.03370295
Pt       5.61442797       6.48298324      24.58417392        2       0.00139121       0.00130339       0.03339755
Pt       8.42164222       6.48298343      24.58417383        2      -0.00118917       0.00047943       0.02880897
Pt       0.00277818       0.00086152      26.91612372        1      -0.00946667      -0.00727908      -0.00305542
Pt       2.80873477      -0.00208683      26.91666472        1      -0.00645041       0.01338164      -0.00479167
Pt       5.61228414       0.00196316      26.91612406        1       0.01101741      -0.00458118      -0.00305343
Pt       1.40104650       2.43083307      26.91667856        1       0.01481148      -0.00109818      -0.00463300
Pt       4.21186163       2.43346621      26.91667631        1      -0.00836875      -0.01225710      -0.00467363
Pt       7.01981989       2.42945107      26.91419822        1      -0.00751049       0.00922733       0.00665812
Pt       2.80657841       4.85938734      26.91612027        1      -0.00155167       0.01187569      -0.00298867
Pt       5.61209985       4.86151235      26.91418610        1       0.01178199       0.00188964       0.00654583
Pt       8.42218525       4.86460511      26.91418963        1      -0.00426231      -0.01112178       0.00658745
N       11.22882769       6.48290803      30.83775603        0       0.00011377       0.00001803      -0.03189919
H       10.88317169       7.36693929      30.44105089        0      -0.00217162       0.00153367       0.01334836
H       12.16715826       6.34046297      30.44074815        0       0.00230941       0.00110315       0.01339881
H       10.63620864       5.74173768      30.44047434        0      -0.00025310      -0.00265534       0.01335562
