40
Lattice="8.421641763931781 0.0 0.0 4.2108208819658905 7.293355709136913 0.0 0.0 0.0 46.87624170604845" Properties=species:S:1:pos:R:3:tags:I:1:forces:R:3 charge=0 spin=0 energy=-206.99317432364586 free_energy=-206.99317432364586 stress="0.010014061816036701 -8.214546198814787e-08 -1.8674535695595296e-08 -8.214546198814787e-08 0.010014054365456104 1.1179434267205579e-08 -1.8674535695595296e-08 1.1179434267205579e-08 -0.00022636842913925648" pbc="T T T"
Pt      -0.00000005       0.00000022      19.95723419        4      -0.00161858      -0.00528078       0.02214084
Pt       2.80721406      -0.00000018      19.95723436        4      -0.00000247       0.00000356       0.01869577
Pt       5.61442778      -0.00000006      19.95723442        4       0.00266046      -0.00445921       0.02145545
Pt       1.40360717       2.43111838      19.95723425        4       0.00252926       0.00453559       0.02147170
Pt       4.21082080       2.43111835      19.95723435        4      -0.00375318       0.00404106       0.02208596
Pt       7.01803478       2.43111843      19.95723423        4      -0.00000204       0.00000145       0.02415621
Pt       2.80721408       4.86223724      19.95723395        4       0.00000144      -0.00000394      -0.04330881
Pt       5.61442803       4.86223730      19.95723413        4      -0.00519203      -0.00007496       0.02148841
Pt       8.42164138       4.86223726      19.95723427        4       0.00537624       0.00123626       0.02211605
Pt       1.40360728       0.81037260      22.29206790        3       0.00321643       0.00079698      -0.04675572
Pt       4.21082128       0.81037250      22.29206784        3      -0.00097835      -0.00320652      -0.04678882
Pt       7.01803477       0.81037260      22.29206779        3       0.00199362      -0.00081690      -0.07383707
Pt       2.80721450       3.24149125      22.29206775        3      -0.00146247       0.02618345      -0.08347127
Pt       5.61442762       3.24149123      22.29206790        3      -0.00173428      -0.00134087      -0.07373997
Pt       8.42164156       3.24149116      22.29206805        3      -0.00025225       0.00216612      -0.07369136
Pt       4.21082094       5.67260998      22.29206797        3      -0.02197665      -0.01431355      -0.08353061
Pt       7.01803488       5.67261038      22.29206774        3      -0.00224873       0.00241622      -0.04670284
Pt       9.82524823       5.67261061      22.29206804        3       0.02343480      -0.01187334      -0.08351500
Pt      -0.00000056       1.62074572      24.58417389        2      -0.00930977       0.00074574       0.00967957
Pt       2.80721443       1.62074548      24.58417398        2      -0.00458786      -0.15955612       0.24964821
Pt       5.61442779       1.62074532      24.58417370        2       0.00524720       0.00765512       0.00975777
Pt       1.40360636       4.05186439      24.58417390        2       0.03959558       0.02567846      -0.08192894
Pt       4.21082088       4.05186401      24.58417381        2      -0.04200079       0.02139632      -0.08179758
Pt       7.01803503       4.05186407      24.58417407        2       0.00404641      -0.00840132       0.00948222
Pt       2.80721279       6.48298345      24.58417372        2       0.00242601      -0.04707194      -0.08164174
Pt       5.61442797       6.48298324      24.58417392        2       0.14045848       0.07581619       0.24964702
Pt       8.42164222       6.48298343      24.58417383        2      -0.13586813       0.08374794       0.24960735
Pt      -0.02227892       0.00002242      26.90612534        1       0.01609564       0.00624589      -0.00729685
Pt       2.80721465       0.00000069      26.99502611        1      -0.00000117      -0.00000342       0.00945964
Pt       5.63683102      -0.00077291      26.90687008        1      -0.01621375       0.00637131      -0.00717033
Pt       1.39308570       2.45091970      26.90686254        1       0.00260053      -0.01730369      -0.00714291
Pt       4.22198778       2.45041326      26.90613562        1      -0.00264664      -0.01713914      -0.00725380
Pt       7.01803615       2.43111441      26.92861305        1       0.00000855      -0.00001352      -0.00936342
Pt       2.80721315       4.86224057      26.92229959        1      -0.00000251       0.00000910       0.00710518
Pt       5.60254848       4.84320988      26.90686479        1       0.01362492       0.01093272      -0.00713421
Pt       8.43275421       4.84292007      26.90611051        1      -0.01346309       0.01087988      -0.00728821
N        2.80721412      -0.00000166      29.15419577        0      -0.00008758       0.00009259      -0.01991155
H        1.96452334       0.48401796      29.49103639        0       0.04121954      -0.02369536       0.00173106
H        3.64773005       0.48777987      29.49103602        0      -0.04105236      -0.02381252       0.00176499
H        2.80938473      -0.97179961      29.49103459        0      -0.00008037       0.04741530       0.00177754
