40
Lattice="8.421641763931781 0.0 0.0 4.2108208819658905 7.293355709136913 0.0 0.0 0.0 46.87624170604845" Properties=species:S:1:pos:R:3:tags:I:1:forces:R:3 charge=0 spin=0 energy=-206.99403263053063 free_energy=-206.99403263053063 stress="0.01000987458974123 -9.816434243248295e-08 -6.237800498354318e-09 -9.816434243248295e-08 0.010009845718741417 2.0803470590635698e-07 -6.237800498354318e-09 2.0803470590635698e-07 -0.00023379357298836112" pbc="T T T"
Pt      -0.00000005       0.00000022      19.95723419        4       0.00000275      -0.00000260       0.02410998
Pt       2.80721406      -0.00000018      19.95723436        4       0.00275614       0.00455674       0.02160577
Pt       5.61442778      -0.00000006      19.95723442        4      -0.00392455       0.00389826       0.02174818
Pt       1.40360717       2.43111838      19.95723425        4       0.00533905       0.00145857       0.02178876
Pt       4.21082080       2.43111835      19.95723435        4       0.00000155       0.00000431      -0.04329326
Pt       7.01803478       2.43111843      19.95723423        4      -0.00532804       0.00011645       0.02162210
Pt       2.80721408       4.86223724      19.95723395        4       0.00257032      -0.00467869       0.02159761
Pt       5.61442803       4.86223730      19.95723413        4      -0.00141629      -0.00535977       0.02181152
Pt       8.42164138       4.86223726      19.95723427        4       0.00000055      -0.00000555       0.01878636
Pt       1.40360728       0.81037260      22.29206790        3      -0.00065447       0.00309710      -0.07511033
Pt       4.21082128       0.81037250      22.29206784        3      -0.00031580       0.02656138      -0.08283762
Pt       7.01803477       0.81037260      22.29206779        3      -0.00234888      -0.00216072      -0.07516079
Pt       2.80721450       3.24149125      22.29206775        3       0.02317802      -0.01304830      -0.08287812
Pt       5.61442762       3.24149123      22.29206790        3      -0.02287133      -0.01352662      -0.08289030
Pt       8.42164156       3.24149116      22.29206805        3      -0.00167825       0.00188239      -0.04589822
Pt       4.21082094       5.67260998      22.29206797        3       0.00299911      -0.00094032      -0.07525988
Pt       7.01803488       5.67261038      22.29206774        3       0.00247417       0.00056165      -0.04593773
Pt       9.82524823       5.67261061      22.29206804        3      -0.00078996      -0.00247676      -0.04598193
Pt      -0.00000056       1.62074572      24.58417389        2       0.00307226      -0.00891113       0.00686987
Pt       2.80721443       1.62074548      24.58417398        2       0.04207425       0.02435175      -0.08009873
Pt       5.61442779       1.62074532      24.58417370        2      -0.04206810       0.02427396      -0.07997879
Pt       1.40360636       4.05186439      24.58417390        2      -0.13643937       0.08394938       0.24896802
Pt       4.21082088       4.05186401      24.58417381        2       0.00000108      -0.04853734      -0.07984516
Pt       7.01803503       4.05186407      24.58417407        2       0.14090604       0.07626501       0.24901702
Pt       2.80721279       6.48298345      24.58417372        2       0.00619871       0.00706919       0.00713244
Pt       5.61442797       6.48298324      24.58417392        2      -0.00928738       0.00185462       0.00706893
Pt       8.42164222       6.48298343      24.58417383        2      -0.00445900      -0.16015160       0.24904802
Pt       0.00000036       0.00000999      26.92895300        1      -0.00000039       0.00002509      -0.01202092
Pt       2.79660626       0.01996223      26.90621988        1       0.00478431      -0.01912236      -0.00733881
Pt       5.62603298       0.01917864      26.90576083        1      -0.00215883      -0.01360796      -0.00324009
Pt       1.41435555       2.41153616      26.90573980        1      -0.01062286       0.00870300      -0.00328250
Pt       4.21081790       2.43113703      26.92403148        1      -0.00000426       0.00003045       0.00425701
Pt       7.00608415       2.41200324      26.90622400        1       0.01415930       0.01370253      -0.00735117
Pt       2.82977557       4.86146365      26.90621977        1      -0.01894039       0.00549282      -0.00734521
Pt       5.59206912       4.86271310      26.90575783        1       0.01277879       0.00495925      -0.00329348
Pt       8.42164295       4.86233287      26.99528105        1       0.00000630      -0.00006227       0.00440127
N        8.42163907       4.86223168      29.15362918        0       0.00007726       0.00005846      -0.01619935
H        7.44990369       4.86437731      29.49061613        0       0.04347467       0.00033176       0.00182003
H        8.90941890       5.70259562      29.49083185        0      -0.02132911      -0.03801562       0.00143221
H        8.90559606       4.01949862      29.49040721        0      -0.02221725       0.03740358       0.00215739
