40
Lattice="8.421641763931781 0.0 0.0 4.2108208819658905 7.293355709136913 0.0 0.0 0.0 46.87624170604845" Properties=species:S:1:pos:R:3:tags:I:1:forces:R:3 charge=0 spin=0 energy=-206.42587734183434 free_energy=-206.42587734183434 stress="0.010526628233492374 1.1991794224286423e-07 -3.102477194261155e-06 1.1991794224286423e-07 0.01051963958889246 -1.744573523865256e-06 -3.102477194261155e-06 -1.744573523865256e-06 -3.086259312112816e-05" pbc="T T T"
Pt      -0.00000005       0.00000022      19.95723419        4       0.00017192       0.00048266       0.01865078
Pt       2.80721406      -0.00000018      19.95723436        4      -0.00034229       0.00000799       0.01892671
Pt       5.61442778      -0.00000006      19.95723442        4       0.00016308      -0.00004264       0.01849070
Pt       1.40360717       2.43111838      19.95723425        4      -0.00049055       0.00001299       0.01830114
Pt       4.21082080       2.43111835      19.95723435        4      -0.00013354      -0.00030669       0.01762298
Pt       7.01803478       2.43111843      19.95723423        4       0.00024670      -0.00047985       0.01856549
Pt       2.80721408       4.86223724      19.95723395        4       0.00022297       0.00005503       0.01766113
Pt       5.61442803       4.86223730      19.95723413        4       0.00000415      -0.00038489       0.01839889
Pt       8.42164138       4.86223726      19.95723427        4      -0.00002417      -0.00029697       0.01887355
Pt       1.40360728       0.81037260      22.29206790        3       0.00030894      -0.00154149      -0.05146756
Pt       4.21082128       0.81037250      22.29206784        3      -0.00112888      -0.00168584      -0.05403121
Pt       7.01803477       0.81037260      22.29206779        3      -0.00118256      -0.00066740      -0.05324539
Pt       2.80721450       3.24149125      22.29206775        3      -0.00102902      -0.00095554      -0.04593587
Pt       5.61442762       3.24149123      22.29206790        3       0.00125583      -0.00010220      -0.05029074
Pt       8.42164156       3.24149116      22.29206805        3      -0.00005241       0.00051224      -0.05165245
Pt       4.21082094       5.67260998      22.29206797        3       0.00012051       0.00004004      -0.05092970
Pt       7.01803488       5.67261038      22.29206774        3       0.00014629      -0.00030170      -0.05302560
Pt       9.82524823       5.67261061      22.29206804        3      -0.00140640       0.00043800      -0.05362527
Pt      -0.00000056       1.62074572      24.58417389        2       0.00349325       0.00238339       0.05768270
Pt       2.80721443       1.62074548      24.58417398        2      -0.00101601       0.00544018       0.05212926
Pt       5.61442779       1.62074532      24.58417370        2      -0.00053081       0.01590731       0.04479928
Pt       1.40360636       4.05186439      24.58417390        2       0.00435707      -0.00333279       0.05020044
Pt       4.21082088       4.05186401      24.58417381        2      -0.00957796      -0.00553894       0.03737696
Pt       7.01803503       4.05186407      24.58417407        2       0.00556434      -0.00661785       0.03797652
Pt       2.80721279       6.48298345      24.58417372        2       0.01018314      -0.00546269       0.04365163
Pt       5.61442797       6.48298324      24.58417392        2      -0.00301059       0.00710017       0.03734089
Pt       8.42164222       6.48298343      24.58417383        2      -0.00140875       0.00197524       0.02559131
Pt       0.00252237       0.00272254      26.92063741        1      -0.00841330      -0.00444589      -0.01986678
Pt       2.80907260       0.00156249      26.91700998        1      -0.00751308       0.00796262      -0.00335338
Pt       5.61848992       0.00325240      26.91112976        1      -0.00536895      -0.00472646       0.01798835
Pt       1.40428751       2.43239207      26.92259156        1       0.00036773       0.00019303      -0.02796256
Pt       4.21030648       2.43180575      26.92127404        1       0.00808859       0.00393144      -0.02419429
Pt       7.02040426       2.43332772      26.92142200        1      -0.00830568      -0.00513772      -0.02253045
Pt       2.80627730       4.86259497      26.92029405        1       0.00837852       0.00421367      -0.02108728
Pt       5.61307034       4.86292701      26.91118486        1       0.00097274       0.00107998       0.01650636
Pt       8.42222877       4.86429910      26.91631565        1       0.00434094      -0.01103202      -0.00151446
N        7.70822297       6.06470737      30.84409474        0       0.00751766       0.00357962       0.00909603
H        7.73032918       5.13249002      30.41057718        0      -0.01217880       0.00601067      -0.00443033
H        6.90577216       6.56014654      30.43410530        0       0.00268464      -0.01306368      -0.00575516
H        8.55046316       6.55604222      30.51826200        0       0.00452467       0.00479670      -0.00093233
