40
Lattice="8.421641763931781 0.0 0.0 4.2108208819658905 7.293355709136913 0.0 0.0 0.0 46.87624170604845" Properties=species:S:1:pos:R:3:tags:I:1:forces:R:3 charge=0 spin=0 energy=-206.4284961315072 free_energy=-206.4284961315072 stress="0.01047690212726593 7.421081527070328e-09 -2.4258930864107242e-08 7.421081527070328e-09 0.01047696266323328 -5.046210915793381e-08 -2.4258930864107242e-08 -5.046210915793381e-08 -0.0001532413880340755" pbc="T T T"
Pt      -0.00000005       0.00000022      19.95723419        4       0.00021026       0.00033834       0.01775385
Pt       2.80721406      -0.00000018      19.95723436        4       0.00034514       0.00016056       0.01872018
Pt       5.61442778      -0.00000006      19.95723442        4      -0.00031132       0.00022383       0.01870894
Pt       1.40360717       2.43111838      19.95723425        4       0.00007572       0.00007975       0.01853612
Pt       4.21082080       2.43111835      19.95723435        4      -0.00003623      -0.00037606       0.01871155
Pt       7.01803478       2.43111843      19.95723423        4       0.00002647      -0.00010002       0.01853112
Pt       2.80721408       4.86223724      19.95723395        4      -0.00039530       0.00000372       0.01775665
Pt       5.61442803       4.86223730      19.95723413        4       0.00018693      -0.00035096       0.01775423
Pt       8.42164138       4.86223726      19.95723427        4      -0.00010394       0.00001916       0.01854151
Pt       1.40360728       0.81037260      22.29206790        3       0.00033475      -0.00124516      -0.05236856
Pt       4.21082128       0.81037250      22.29206784        3      -0.00000522       0.00001097      -0.04837092
Pt       7.01803477       0.81037260      22.29206779        3      -0.00032243      -0.00049169      -0.05210644
Pt       2.80721450       3.24149125      22.29206775        3       0.00058129      -0.00002897      -0.05209641
Pt       5.61442762       3.24149123      22.29206790        3      -0.00125635       0.00033690      -0.05237478
Pt       8.42164156       3.24149116      22.29206805        3       0.00000043       0.00000551      -0.05060631
Pt       4.21082094       5.67260998      22.29206797        3      -0.00000371       0.00000487      -0.05127066
Pt       7.01803488       5.67261038      22.29206774        3      -0.00027381       0.00052956      -0.05208049
Pt       9.82524823       5.67261061      22.29206804        3       0.00092417       0.00090850      -0.05235094
Pt      -0.00000056       1.62074572      24.58417389        2      -0.00080331       0.00339441       0.02891209
Pt       2.80721443       1.62074548      24.58417398        2       0.00020610      -0.00061033       0.02981061
Pt       5.61442779       1.62074532      24.58417370        2      -0.00062890       0.00013769       0.02982892
Pt       1.40360636       4.05186439      24.58417390        2      -0.00251936      -0.00237724       0.02893963
Pt       4.21082088       4.05186401      24.58417381        2       0.00021322      -0.00817923       0.02444628
Pt       7.01803503       4.05186407      24.58417407        2       0.00332246      -0.00098258       0.02894268
Pt       2.80721279       6.48298345      24.58417372        2      -0.00717093       0.00391008       0.02442909
Pt       5.61442797       6.48298324      24.58417392        2       0.00697865       0.00426393       0.02440869
Pt       8.42164222       6.48298343      24.58417383        2       0.00042143       0.00049132       0.02982385
Pt      -0.00027826       0.00028195      26.91031106        1       0.00036014       0.00135485       0.01744631
Pt       2.80883320       0.00167775      26.91818426        1      -0.01549440      -0.00946991      -0.00547751
Pt       5.61216569       0.00056458      26.91818411        1       0.01596017      -0.00866684      -0.00547859
Pt       1.40515851       2.43088512      26.91506183        1      -0.00823881       0.00423175       0.00150897
Pt       4.21146377       2.42888108      26.91818582        1      -0.00046772       0.01814255      -0.00551021
Pt       7.01705893       2.42988610      26.91506574        1       0.00778912       0.00501796       0.00152332
Pt       2.80709968       4.86185587      26.91032383        1      -0.00135003      -0.00039781       0.01742828
Pt       5.61482000       4.86233792      26.91032770        1       0.00098047      -0.00104558       0.01744461
Pt       8.42106403       4.86370860      26.91507586        1       0.00045682      -0.00926340       0.00155084
N        4.21082307       0.81037026      30.88561195        0      -0.00006326      -0.00001011      -0.00749684
H        3.37913666       0.34659606      30.49479565        0       0.04280989       0.02393155       0.00539864
H        4.22502306       1.76251725      30.49479491        0      -0.00067678      -0.04898036       0.00536909
H        5.02830324       0.32199773      30.49479075        0      -0.04206193       0.02507845       0.00536257
