40
Lattice="8.421641763931781 0.0 0.0 4.2108208819658905 7.293355709136913 0.0 0.0 0.0 46.87624170604845" Properties=species:S:1:pos:R:3:tags:I:1:forces:R:3 charge=0 spin=0 energy=-206.42556835135582 free_energy=-206.42556835135582 stress="0.010531795211136341 6.264082458073972e-06 1.7643474166106898e-06 6.264082458073972e-06 0.01051462534815073 3.5168379781680414e-06 1.7643474166106898e-06 3.5168379781680414e-06 -3.2262541935779154e-05" pbc="T T T"
Pt      -0.00000005       0.00000022      19.95723419        4      -0.00010922      -0.00022717       0.01754550
Pt       2.80721406      -0.00000018      19.95723436        4      -0.00031623      -0.00048634       0.01843824
Pt       5.61442778      -0.00000006      19.95723442        4      -0.00030592      -0.00044674       0.01890434
Pt       1.40360717       2.43111838      19.95723425        4      -0.00009092       0.00021957       0.01868093
Pt       4.21082080       2.43111835      19.95723435        4      -0.00064056      -0.00020840       0.01884569
Pt       7.01803478       2.43111843      19.95723423        4      -0.00023625      -0.00029132       0.01848723
Pt       2.80721408       4.86223724      19.95723395        4      -0.00078375      -0.00005811       0.01828920
Pt       5.61442803       4.86223730      19.95723413        4      -0.00056410      -0.00050712       0.01767440
Pt       8.42164138       4.86223726      19.95723427        4      -0.00006740      -0.00057198       0.01862054
Pt       1.40360728       0.81037260      22.29206790        3      -0.00158550      -0.00055518      -0.05096139
Pt       4.21082128       0.81037250      22.29206784        3      -0.00110022      -0.00071775      -0.05208337
Pt       7.01803477       0.81037260      22.29206779        3      -0.00221286       0.00003109      -0.05362389
Pt       2.80721450       3.24149125      22.29206775        3      -0.00108102      -0.00185598      -0.05177506
Pt       5.61442762       3.24149123      22.29206790        3      -0.00234031      -0.00224589      -0.05347892
Pt       8.42164156       3.24149116      22.29206805        3      -0.00249931      -0.00105432      -0.05405093
Pt       4.21082094       5.67260998      22.29206797        3      -0.00251202      -0.00137158      -0.04570105
Pt       7.01803488       5.67261038      22.29206774        3       0.00012157      -0.00071175      -0.05080977
Pt       9.82524823       5.67261061      22.29206804        3      -0.00133338      -0.00029954      -0.05175418
Pt      -0.00000056       1.62074572      24.58417389        2       0.01423019      -0.00476333       0.04340870
Pt       2.80721443       1.62074548      24.58417398        2      -0.00006745       0.00751489       0.03555412
Pt       5.61442779       1.62074532      24.58417370        2       0.00266814       0.00114879       0.02428566
Pt       1.40360636       4.05186439      24.58417390        2       0.00843772       0.00441810       0.05732581
Pt       4.21082088       4.05186401      24.58417381        2       0.00239766       0.00900833       0.05166657
Pt       7.01803503       4.05186407      24.58417407        2       0.00172005       0.01769122       0.04396694
Pt       2.80721279       6.48298345      24.58417372        2       0.00733630      -0.00108439       0.05237563
Pt       5.61442797       6.48298324      24.58417392        2      -0.00539299      -0.00378865       0.03975919
Pt       8.42164222       6.48298343      24.58417383        2       0.00973570      -0.00342998       0.03807879
Pt       0.00427314       0.00238792      26.92073268        1       0.00667083       0.00301046      -0.02286020
Pt       2.81114890       0.00293731      26.91179107        1      -0.00308846      -0.00006687       0.01473353
Pt       5.61994750       0.00441254      26.91751573        1       0.00317289      -0.01281390      -0.00540249
Pt       1.41144644       2.43566899      26.92018735        1      -0.01066866      -0.00396520      -0.01832372
Pt       4.21769084       2.43512718      26.91570340        1      -0.00989460       0.00739817       0.00169126
Pt       7.02679385       2.43599785      26.91077241        1      -0.00539697      -0.00270775       0.01884742
Pt       2.81285956       4.86658982      26.92314766        1      -0.00112599      -0.00282115      -0.02922990
Pt       5.61917314       4.86542106      26.92203785        1       0.00572970       0.00336803      -0.02628992
Pt       8.42905519       4.86673959      26.92016032        1      -0.00918294      -0.00603817      -0.01928332
N        4.91405641       1.22916368      30.84031193        0       0.00229044      -0.00939803       0.01333389
H        4.44536039       2.04003661      30.41583615        0       0.00851524      -0.00441466      -0.00538268
H        5.87126067       1.21398211      30.46536522        0      -0.00079622       0.01347778      -0.00538508
H        4.44439593       0.39325082      30.46938891        0      -0.00963305      -0.00038516      -0.00411799
