40
Lattice="8.421641763931781 0.0 0.0 4.2108208819658905 7.293355709136913 0.0 0.0 0.0 46.87624170604845" Properties=species:S:1:pos:R:3:tags:I:1:forces:R:3 charge=0 spin=0 energy=-206.4244563671029 free_energy=-206.4244563671029 stress="0.010490468703210354 3.372690571268322e-09 9.095257880176177e-09 3.372690571268322e-09 0.010490480810403824 8.830133069182011e-09 9.095257880176177e-09 8.830133069182011e-09 -5.010245513403788e-05" pbc="T T T"
Pt      -0.00000005       0.00000022      19.95723419        4      -0.00002444       0.00020224       0.01871445
Pt       2.80721406      -0.00000018      19.95723436        4       0.00013958       0.00017361       0.01789058
Pt       5.61442778      -0.00000006      19.95723442        4       0.00007753      -0.00020436       0.01788345
Pt       1.40360717       2.43111838      19.95723425        4      -0.00016471      -0.00012497       0.01870608
Pt       4.21082080       2.43111835      19.95723435        4       0.00023984       0.00066913       0.01857900
Pt       7.01803478       2.43111843      19.95723423        4       0.00019123      -0.00007498       0.01871146
Pt       2.80721408       4.86223724      19.95723395        4       0.00045737      -0.00054289       0.01858063
Pt       5.61442803       4.86223730      19.95723413        4      -0.00069624      -0.00013040       0.01858400
Pt       8.42164138       4.86223726      19.95723427        4      -0.00021967       0.00003229       0.01788805
Pt       1.40360728       0.81037260      22.29206790        3      -0.00021846       0.00056799      -0.05196645
Pt       4.21082128       0.81037250      22.29206784        3      -0.00021626       0.00072377      -0.05070061
Pt       7.01803477       0.81037260      22.29206779        3       0.00060152      -0.00008592      -0.05196050
Pt       2.80721450       3.24149125      22.29206775        3      -0.00077087       0.00019066      -0.05210757
Pt       5.61442762       3.24149123      22.29206790        3       0.00022239      -0.00075140      -0.05209617
Pt       8.42164156       3.24149116      22.29206805        3      -0.00037725      -0.00047021      -0.05197019
Pt       4.21082094       5.67260998      22.29206797        3       0.00054128       0.00056796      -0.05207776
Pt       7.01803488       5.67261038      22.29206774        3      -0.00051251      -0.00055213      -0.05067892
Pt       9.82524823       5.67261061      22.29206804        3       0.00073056      -0.00018415      -0.05068685
Pt      -0.00000056       1.62074572      24.58417389        2       0.00000346      -0.00001645       0.03619131
Pt       2.80721443       1.62074548      24.58417398        2       0.00161746       0.00262860       0.04052846
Pt       5.61442779       1.62074532      24.58417370        2      -0.00222066       0.00105557       0.03942291
Pt       1.40360636       4.05186439      24.58417390        2       0.00203265       0.00140374       0.03948447
Pt       4.21082088       4.05186401      24.58417381        2      -0.00000196       0.00003260       0.05780938
Pt       7.01803503       4.05186407      24.58417407        2      -0.00309450       0.00010428       0.04057479
Pt       2.80721279       6.48298345      24.58417372        2       0.00147428      -0.00273932       0.04056776
Pt       5.61442797       6.48298324      24.58417392        2       0.00019321      -0.00246468       0.03949358
Pt       8.42164222       6.48298343      24.58417383        2      -0.00000619      -0.00001773       0.03810241
Pt      -0.00027363      -0.00126484      26.91800400        1      -0.00087117      -0.00115482      -0.00941499
Pt       2.80465124       0.00081465      26.91602894        1       0.01610957      -0.00765094      -0.00230930
Pt       5.61641835       0.00180588      26.91603002        1      -0.01467442      -0.01010886      -0.00227440
Pt       1.40484195       2.43151069      26.91798769        1       0.00144100      -0.00015861      -0.00941085
Pt       4.21099970       2.42902799      26.91876232        1      -0.00063613       0.01429346      -0.01564525
Pt       7.01707348       2.43199065      26.91798794        1      -0.00058977       0.00131097      -0.00941700
Pt       2.80531913       4.86312433      26.91879502        1       0.01269215      -0.00655663      -0.01555865
Pt       5.61614281       4.86343640      26.91879474        1      -0.01205740      -0.00769623      -0.01560740
Pt       8.42220949       4.85960948      26.91604121        1      -0.00140641       0.01773730      -0.00220267
N        8.42164311       1.62074096      30.85120790        0      -0.00000477       0.00001788      -0.03002706
H        8.40976340       2.56792237      30.45123542        0      -0.00066439       0.03694579       0.01280762
H        9.24786155       1.15744352      30.45121934        0       0.03235368      -0.01790905       0.01279717
H        7.60730258       1.13686883      30.45122313        0      -0.03169075      -0.01906271       0.01279511
