40
Lattice="8.421641763931781 0.0 0.0 4.2108208819658905 7.293355709136913 0.0 0.0 0.0 46.87624170604845" Properties=species:S:1:pos:R:3:tags:I:1:forces:R:3 charge=0 spin=0 energy=-206.42601085623863 free_energy=-206.42601085623863 stress="0.010491258464753628 -6.400069878509385e-07 3.280184301956979e-08 -6.400069878509385e-07 0.01049100887030363 5.327464691617934e-07 3.280184301956979e-08 5.327464691617934e-07 -4.355413329903968e-05" pbc="T T T"
Pt      -0.00000005       0.00000022      19.95723419        4       0.00031795      -0.00003102       0.01852060
Pt       2.80721406      -0.00000018      19.95723436        4      -0.00013399       0.00029102       0.01852196
Pt       5.61442778      -0.00000006      19.95723442        4      -0.00002185      -0.00032999       0.01879263
Pt       1.40360717       2.43111838      19.95723425        4      -0.00017716      -0.00026135       0.01853424
Pt       4.21082080       2.43111835      19.95723435        4      -0.00012541       0.00028432       0.01784380
Pt       7.01803478       2.43111843      19.95723423        4      -0.00019189      -0.00026079       0.01783536
Pt       2.80721408       4.86223724      19.95723395        4      -0.00028080       0.00017891       0.01881553
Pt       5.61442803       4.86223730      19.95723413        4       0.00031629      -0.00003462       0.01782754
Pt       8.42164138       4.86223726      19.95723427        4       0.00030093       0.00014924       0.01881782
Pt       1.40360728       0.81037260      22.29206790        3      -0.00000147      -0.00001704      -0.05176225
Pt       4.21082128       0.81037250      22.29206784        3       0.00006550      -0.00033196      -0.05312736
Pt       7.01803477       0.81037260      22.29206779        3      -0.00082170      -0.00000963      -0.05301481
Pt       2.80721450       3.24149125      22.29206775        3       0.00038942       0.00070692      -0.05298952
Pt       5.61442762       3.24149123      22.29206790        3       0.00002796       0.00003483      -0.04715199
Pt       8.42164156       3.24149116      22.29206805        3       0.00022461       0.00018837      -0.05316724
Pt       4.21082094       5.67260998      22.29206797        3      -0.00025919       0.00007468      -0.05319255
Pt       7.01803488       5.67261038      22.29206774        3       0.00039263      -0.00073146      -0.05301495
Pt       9.82524823       5.67261061      22.29206804        3       0.00001146      -0.00000725      -0.04732088
Pt      -0.00000056       1.62074572      24.58417389        2      -0.00367799       0.00315576       0.03808407
Pt       2.80721443       1.62074548      24.58417398        2       0.00452449       0.00174386       0.03811495
Pt       5.61442779       1.62074532      24.58417370        2      -0.00021804       0.00304619       0.05155491
Pt       1.40360636       4.05186439      24.58417390        2       0.00132078       0.00723026       0.03815235
Pt       4.21082088       4.05186401      24.58417381        2       0.00248289      -0.00115694       0.05185767
Pt       7.01803503       4.05186407      24.58417407        2      -0.00234281      -0.00150034       0.05181038
Pt       2.80721279       6.48298345      24.58417372        2      -0.00673746      -0.00260382       0.03790563
Pt       5.61442797       6.48298324      24.58417392        2      -0.00084592      -0.00474018       0.03806880
Pt       8.42164222       6.48298343      24.58417383        2       0.00542873      -0.00476323       0.03784635
Pt      -0.00245516      -0.00166532      26.91404884        1       0.01414648       0.00806406       0.00673953
Pt       2.80988993      -0.00123087      26.91404449        1      -0.01400825       0.00826764       0.00673876
Pt       5.61419039       0.00129455      26.92017513        1       0.00247716       0.00044734      -0.01763619
Pt       1.40335667       2.43413330      26.91407842        1      -0.00015701      -0.01621022       0.00673486
Pt       4.20796858       2.43011995      26.91941747        1       0.02117181       0.01133517      -0.01994749
Pt       7.02039118       2.42928383      26.91940970        1      -0.02064679       0.01221226      -0.01991466
Pt       2.80836733       4.86188171      26.92037223        1      -0.00075660      -0.00239156      -0.01820949
Pt       5.61488890       4.86526813      26.91941232        1      -0.00052394      -0.02402266      -0.02011568
Pt       8.42071193       4.86147230      26.92032208        1      -0.00168372       0.00190703      -0.01809263
N        9.82523701       5.67619121      30.84433912        0      -0.00021130      -0.00136629      -0.02744216
H        9.34834848       6.48931405      30.43395810        0      -0.02100247       0.04070515       0.01197719
H       10.77224523       5.67485555      30.44417554        0       0.04653626       0.00053482       0.01225011
H        9.35513607       4.84919903      30.45443788        0      -0.02530956      -0.03978768       0.01275517
