40
Lattice="8.421641763931781 0.0 0.0 4.2108208819658905 7.293355709136913 0.0 0.0 0.0 46.87624170604845" Properties=species:S:1:pos:R:3:tags:I:1:forces:R:3 charge=0 spin=0 energy=-206.42913127860191 free_energy=-206.42913127860191 stress="0.010527624748647213 1.9936956974220266e-08 -1.2666159676655298e-08 1.9936956974220266e-08 0.010527717880904675 -8.443492127696572e-09 -1.2666159676655298e-08 -8.443492127696572e-09 -4.105226616957225e-05" pbc="T T T"
Pt      -0.00000005       0.00000022      19.95723419        4      -0.00022861      -0.00019326       0.01804560
Pt       2.80721406      -0.00000018      19.95723436        4       0.00027506      -0.00045836       0.01845186
Pt       5.61442778      -0.00000006      19.95723442        4      -0.00054009      -0.00000535       0.01844844
Pt       1.40360717       2.43111838      19.95723425        4       0.00028158      -0.00010177       0.01804628
Pt       4.21082080       2.43111835      19.95723435        4       0.00003150      -0.00012500       0.01864810
Pt       7.01803478       2.43111843      19.95723423        4      -0.00005132       0.00029658       0.01804560
Pt       2.80721408       4.86223724      19.95723395        4      -0.00012296       0.00003697       0.01865126
Pt       5.61442803       4.86223730      19.95723413        4       0.00009227       0.00008798       0.01864492
Pt       8.42164138       4.86223726      19.95723427        4       0.00026246       0.00047239       0.01845425
Pt       1.40360728       0.81037260      22.29206790        3       0.00081857      -0.00013541      -0.04940483
Pt       4.21082128       0.81037250      22.29206784        3       0.00048397       0.00086847      -0.05179386
Pt       7.01803477       0.81037260      22.29206779        3      -0.00053526      -0.00063559      -0.04939250
Pt       2.80721450       3.24149125      22.29206775        3       0.00099299       0.00016449      -0.05391930
Pt       5.61442762       3.24149123      22.29206790        3      -0.00062595       0.00079244      -0.05393074
Pt       8.42164156       3.24149116      22.29206805        3      -0.00028395       0.00079620      -0.04942973
Pt       4.21082094       5.67260998      22.29206797        3      -0.00036714      -0.00093968      -0.05390949
Pt       7.01803488       5.67261038      22.29206774        3      -0.00098607      -0.00000481      -0.05181823
Pt       9.82524823       5.67261061      22.29206804        3       0.00050280      -0.00085517      -0.05179742
Pt      -0.00000056       1.62074572      24.58417389        2       0.00000154      -0.00006893       0.03556233
Pt       2.80721443       1.62074548      24.58417398        2      -0.00358454      -0.00716373       0.04336022
Pt       5.61442779       1.62074532      24.58417370        2       0.00508791      -0.00735589       0.04283402
Pt       1.40360636       4.05186439      24.58417390        2      -0.00884714      -0.00073566       0.04278937
Pt       4.21082088       4.05186401      24.58417381        2      -0.00002204       0.00000919       0.02143608
Pt       7.01803503       4.05186407      24.58417407        2       0.00795323       0.00046397       0.04337139
Pt       2.80721279       6.48298345      24.58417372        2      -0.00436340       0.00665693       0.04347430
Pt       5.61442797       6.48298324      24.58417392        2       0.00375703       0.00804769       0.04286036
Pt       8.42164222       6.48298343      24.58417383        2       0.00001576       0.00000536       0.05851301
Pt       0.00032826      -0.00010170      26.91715786        1       0.00014698       0.00210509      -0.00867529
Pt       2.80801156      -0.00044883      26.92127626        1      -0.00240543       0.00097121      -0.02347468
Pt       5.61366083      -0.00049138      26.92130161        1       0.00200593       0.00159390      -0.02360956
Pt       1.40350874       2.43142156      26.91710645        1      -0.00191957      -0.00091987      -0.00856325
Pt       4.21048791       2.43113359      26.91429014        1      -0.00002780      -0.00831700       0.00825038
Pt       7.01781403       2.43083852      26.91711278        1       0.00175928      -0.00112214      -0.00862275
Pt       2.80739546       4.86250899      26.91431261        1      -0.00720830       0.00412776       0.00803683
Pt       5.61456659       4.86190459      26.91429651        1       0.00726360       0.00418644       0.00810023
Pt       8.42160752       4.86312047      26.92126028        1       0.00038385      -0.00253979      -0.02367099
N        4.21081974       4.05186125      31.00741335        0       0.00004522       0.00002857      -0.00523315
H        3.39762989       4.54370974      30.61326284        0       0.01646844      -0.01011647       0.00106957
H        5.04336997       4.51018466      30.61326732        0      -0.01704580      -0.00924764       0.00108759
H        4.19146366       3.10169420      30.61326303        0       0.00053552       0.01932989       0.00106346
