40
Lattice="8.421641763931781 0.0 0.0 4.2108208819658905 7.293355709136913 0.0 0.0 0.0 46.87624170604845" Properties=species:S:1:pos:R:3:tags:I:1:forces:R:3 charge=0 spin=0 energy=-206.42804790457848 free_energy=-206.42804790457848 stress="0.010447529144585133 5.8682481096639094e-09 3.0047493382312496e-09 5.8682481096639094e-09 0.010447549633681774 5.792243129576491e-09 3.0047493382312496e-09 5.792243129576491e-09 -0.00014917095541022718" pbc="T T T"
Pt      -0.00000005       0.00000022      19.95723419        4      -0.00073452      -0.00011968       0.01849369
Pt       2.80721406      -0.00000018      19.95723436        4      -0.00012664       0.00012527       0.01775983
Pt       5.61442778      -0.00000006      19.95723442        4       0.00046773      -0.00057884       0.01848004
Pt       1.40360717       2.43111838      19.95723425        4       0.00016856       0.00004653       0.01776558
Pt       4.21082080       2.43111835      19.95723435        4      -0.00004210      -0.00016637       0.01776621
Pt       7.01803478       2.43111843      19.95723423        4      -0.00004050       0.00043382       0.01876388
Pt       2.80721408       4.86223724      19.95723395        4       0.00026968       0.00069574       0.01848642
Pt       5.61442803       4.86223730      19.95723413        4       0.00039516      -0.00018377       0.01875574
Pt       8.42164138       4.86223726      19.95723427        4      -0.00035660      -0.00025450       0.01874933
Pt       1.40360728       0.81037260      22.29206790        3      -0.00005160      -0.00011199      -0.05117385
Pt       4.21082128       0.81037250      22.29206784        3       0.00011466       0.00001110      -0.05117962
Pt       7.01803477       0.81037260      22.29206779        3       0.00048205       0.00053895      -0.05164906
Pt       2.80721450       3.24149125      22.29206775        3      -0.00007170       0.00010539      -0.05119458
Pt       5.61442762       3.24149123      22.29206790        3       0.00025354      -0.00027533      -0.05168331
Pt       8.42164156       3.24149116      22.29206805        3       0.00012584       0.00036452      -0.05168805
Pt       4.21082094       5.67260998      22.29206797        3       0.00022432      -0.00068385      -0.05166687
Pt       7.01803488       5.67261038      22.29206774        3      -0.00037434      -0.00008071      -0.05168779
Pt       9.82524823       5.67261061      22.29206804        3      -0.00070350       0.00013439      -0.05167780
Pt      -0.00000056       1.62074572      24.58417389        2      -0.00377844       0.00227687       0.02511112
Pt       2.80721443       1.62074548      24.58417398        2       0.00000068      -0.00000475       0.02101158
Pt       5.61442779       1.62074532      24.58417370        2       0.00522455       0.00247270       0.02570629
Pt       1.40360636       4.05186439      24.58417390        2      -0.00474352       0.00329949       0.02568298
Pt       4.21082088       4.05186401      24.58417381        2       0.00386193       0.00214811       0.02504931
Pt       7.01803503       4.05186407      24.58417407        2      -0.00000190      -0.00001472       0.04141687
Pt       2.80721279       6.48298345      24.58417372        2       0.00000490       0.00002086       0.04170009
Pt       5.61442797       6.48298324      24.58417392        2      -0.00048359      -0.00577146       0.02570929
Pt       8.42164222       6.48298343      24.58417383        2      -0.00008762      -0.00442958       0.02510406
Pt       0.00369946       0.00203503      26.91348427        1      -0.02532632      -0.01314186       0.00667087
Pt       2.80750799      -0.00263447      26.91251579        1       0.00063489       0.01122581       0.01411879
Pt       5.61081613       0.00218915      26.91348637        1       0.02405292      -0.01534783       0.00673096
Pt       1.40117730       2.43218068      26.91250964        1       0.00943915      -0.00617956       0.01402138
Pt       4.21295517       2.43269184      26.91251153        1      -0.01008152      -0.00506766       0.01405698
Pt       7.01761355       2.42810946      26.91832829        1       0.00056810       0.01566441      -0.01012828
Pt       2.80712377       4.85801629      26.91346261        1       0.00128460       0.02851640       0.00660573
Pt       5.61203096       4.86410623      26.91831409        1       0.01325234      -0.00831882      -0.01016600
Pt       8.42445798       4.86337744      26.91831505        1      -0.01382201      -0.00734491      -0.01015773
N        7.01803449       4.05185933      30.84813427        0      -0.00002347      -0.00002170      -0.01012207
H        7.00259146       3.10283646      30.45232170        0      -0.00033596      -0.01484177       0.00682360
H        6.20387504       4.53975043      30.45233601        0      -0.01268915       0.00771548       0.00682290
H        7.84763724       4.51300236      30.45233655        0       0.01304903       0.00714404       0.00681139
