40
Lattice="8.421641763931781 0.0 0.0 4.2108208819658905 7.293355709136913 0.0 0.0 0.0 46.87624170604845" Properties=species:S:1:pos:R:3:tags:I:1:forces:R:3 charge=0 spin=0 energy=-206.42404247244957 free_energy=-206.42404247244957 stress="0.010470183566212654 1.874303201532257e-08 1.9037442733349508e-09 1.874303201532257e-08 0.010470181703567505 2.095223372577948e-08 1.9037442733349508e-09 2.095223372577948e-08 -0.00011072566849179566" pbc="T T T"
Pt      -0.00000005       0.00000022      19.95723419        4       0.00027311       0.00066112       0.01859198
Pt       2.80721406      -0.00000018      19.95723436        4       0.00010474      -0.00004887       0.01876318
Pt       5.61442778      -0.00000006      19.95723442        4      -0.00010046      -0.00006201       0.01874834
Pt       1.40360717       2.43111838      19.95723425        4      -0.00070698      -0.00009650       0.01859687
Pt       4.21082080       2.43111835      19.95723435        4      -0.00025294       0.00028688       0.01775767
Pt       7.01803478       2.43111843      19.95723423        4       0.00043521      -0.00056261       0.01859142
Pt       2.80721408       4.86223724      19.95723395        4       0.00037628       0.00007203       0.01775968
Pt       5.61442803       4.86223730      19.95723413        4      -0.00012201      -0.00036575       0.01776019
Pt       8.42164138       4.86223726      19.95723427        4      -0.00000652       0.00011353       0.01876356
Pt       1.40360728       0.81037260      22.29206790        3       0.00021812      -0.00081384      -0.05262081
Pt       4.21082128       0.81037250      22.29206784        3      -0.00039908      -0.00086456      -0.05254266
Pt       7.01803477       0.81037260      22.29206779        3      -0.00081718       0.00022235      -0.05263145
Pt       2.80721450       3.24149125      22.29206775        3      -0.00089000      -0.00080920      -0.04932391
Pt       5.61442762       3.24149123      22.29206790        3       0.00113867      -0.00036249      -0.04933204
Pt       8.42164156       3.24149116      22.29206805        3       0.00060283       0.00060016      -0.05261378
Pt       4.21082094       5.67260998      22.29206797        3      -0.00025729       0.00117485      -0.04934023
Pt       7.01803488       5.67261038      22.29206774        3       0.00094527       0.00009232      -0.05254038
Pt       9.82524823       5.67261061      22.29206804        3      -0.00054474       0.00076172      -0.05254380
Pt      -0.00000056       1.62074572      24.58417389        2       0.00000191       0.00001666       0.05511608
Pt       2.80721443       1.62074548      24.58417398        2      -0.00303819       0.00275384       0.03243405
Pt       5.61442779       1.62074532      24.58417370        2       0.00181805       0.00422580       0.03163960
Pt       1.40360636       4.05186439      24.58417390        2       0.00275000      -0.00369011       0.03163613
Pt       4.21082088       4.05186401      24.58417381        2       0.00000006      -0.00000659       0.02814601
Pt       7.01803503       4.05186407      24.58417407        2      -0.00086665      -0.00400761       0.03240700
Pt       2.80721279       6.48298345      24.58417372        2       0.00390499       0.00125874       0.03239356
Pt       5.61442797       6.48298324      24.58417392        2      -0.00456289      -0.00053633       0.03158185
Pt       8.42164222       6.48298343      24.58417383        2      -0.00000188      -0.00001017       0.02676537
Pt       0.00006830      -0.00227265      26.91855468        1      -0.00013136       0.01581119      -0.01204643
Pt       2.80451499       0.00187235      26.91439681        1       0.00913624      -0.00458574       0.00212964
Pt       5.61739967       0.00140091      26.91439929        1      -0.00853539      -0.00563691       0.00212858
Pt       1.40554037       2.43231518      26.91857277        1      -0.01363614      -0.00800987      -0.01196256
Pt       4.21131960       2.42966118      26.91487269        1      -0.00095304       0.01002080       0.00457912
Pt       7.01603506       2.43219851      26.91857609        1       0.01375352      -0.00779092      -0.01190578
Pt       2.80570150       4.86253580      26.91486049        1       0.00919080      -0.00420612       0.00447681
Pt       5.61544238       4.86339867      26.91486310        1      -0.00822828      -0.00584276       0.00450752
Pt       8.42136990       4.85896691      26.91440403        1      -0.00060218       0.01024133       0.00216395
N        8.42164048       6.48297912      30.77665482        0      -0.00005225      -0.00007857      -0.02692075
H        7.60366338       6.00166689      30.38035012        0      -0.01056295      -0.00635596       0.01298649
H        8.41379831       7.43202675      30.38036353        0      -0.00021992       0.01242524       0.01294164
H        9.24745909       6.01525014      30.38035338        0       0.01083869      -0.00599502       0.01295833
