40
Lattice="8.421641763931781 0.0 0.0 4.2108208819658905 7.293355709136913 0.0 0.0 0.0 46.87624170604845" Properties=species:S:1:pos:R:3:tags:I:1:forces:R:3 charge=0 spin=0 energy=-206.42849994620445 free_energy=-206.42849994620445 stress="0.010476942174136639 -1.0676340922444183e-09 -3.001066772867489e-08 -1.0676340922444183e-09 0.010476983152329922 -2.2554029754928706e-08 -3.001066772867489e-08 -2.2554029754928706e-08 -0.0001531951129436493" pbc="T T T"
Pt      -0.00000005       0.00000022      19.95723419        4      -0.00010153       0.00002119       0.01854147
Pt       2.80721406      -0.00000018      19.95723436        4      -0.00039847       0.00001032       0.01775455
Pt       5.61442778      -0.00000006      19.95723442        4       0.00018741      -0.00034424       0.01774490
Pt       1.40360717       2.43111838      19.95723425        4      -0.00031019       0.00022095       0.01871893
Pt       4.21082080       2.43111835      19.95723435        4       0.00020859       0.00034085       0.01775442
Pt       7.01803478       2.43111843      19.95723423        4       0.00034585       0.00015946       0.01872126
Pt       2.80721408       4.86223724      19.95723395        4       0.00002937      -0.00010533       0.01853207
Pt       5.61442803       4.86223730      19.95723413        4       0.00007354       0.00007618       0.01853517
Pt       8.42164138       4.86223726      19.95723427        4      -0.00003676      -0.00038145       0.01871068
Pt       1.40360728       0.81037260      22.29206790        3       0.00091628       0.00092076      -0.05235302
Pt       4.21082128       0.81037250      22.29206784        3      -0.00000476       0.00000667      -0.05127180
Pt       7.01803477       0.81037260      22.29206779        3      -0.00026968       0.00053541      -0.05208072
Pt       2.80721450       3.24149125      22.29206775        3      -0.00033076      -0.00049159      -0.05210833
Pt       5.61442762       3.24149123      22.29206790        3       0.00033914      -0.00124604      -0.05237078
Pt       8.42164156       3.24149116      22.29206805        3       0.00000156       0.00000888      -0.04837048
Pt       4.21082094       5.67260998      22.29206797        3      -0.00000549       0.00000649      -0.05060238
Pt       7.01803488       5.67261038      22.29206774        3       0.00058612      -0.00003481      -0.05209596
Pt       9.82524823       5.67261061      22.29206804        3      -0.00125232       0.00032599      -0.05237315
Pt      -0.00000056       1.62074572      24.58417389        2       0.00043333       0.00050339       0.02983165
Pt       2.80721443       1.62074548      24.58417398        2      -0.00718852       0.00391874       0.02444253
Pt       5.61442779       1.62074532      24.58417370        2       0.00698378       0.00427271       0.02442469
Pt       1.40360636       4.05186439      24.58417390        2      -0.00063203       0.00012400       0.02983719
Pt       4.21082088       4.05186401      24.58417381        2      -0.00080642       0.00339548       0.02890531
Pt       7.01803503       4.05186407      24.58417407        2       0.00021365      -0.00061567       0.02981820
Pt       2.80721279       6.48298345      24.58417372        2       0.00333442      -0.00099014       0.02893694
Pt       5.61442797       6.48298324      24.58417392        2      -0.00252581      -0.00237425       0.02893587
Pt       8.42164222       6.48298343      24.58417383        2       0.00020495      -0.00818854       0.02446093
Pt      -0.00057757       0.00147063      26.91507435        1       0.00045680      -0.00925104       0.00156075
Pt       2.80709695      -0.00038310      26.91032559        1      -0.00133724      -0.00036886       0.01741923
Pt       5.61482185       0.00009936      26.91032971        1       0.00096683      -0.00101984       0.01743443
Pt       1.40134603       2.43168263      26.91818781        1       0.01595061      -0.00866329      -0.00549990
Pt       4.21054250       2.43140393      26.91031300        1       0.00036922       0.00132813       0.01744726
Pt       7.01965281       2.43279566      26.91818830        1      -0.01548924      -0.00946812      -0.00549545
Pt       2.80623844       4.86100516      26.91506387        1       0.00777509       0.00501191       0.00153254
Pt       5.61597858       4.86200400      26.91506012        1      -0.00823166       0.00422538       0.00152037
Pt       8.42228325       4.86000106      26.91818991        1      -0.00046034       0.01813056      -0.00553355
N        8.42164436       3.24148910      30.88556314        0       0.00000845      -0.00004445      -0.00754816
H        8.43584410       4.19363516      30.49474130        0      -0.00068437      -0.04897523       0.00538525
H        9.23912394       2.75311731      30.49473497        0      -0.04210213       0.02509823       0.00539900
H        7.58995919       2.77771482      30.49474345        0       0.04278275       0.02392097       0.00539789
