40
Lattice="8.421641763931781 0.0 0.0 4.2108208819658905 7.293355709136913 0.0 0.0 0.0 46.87624170604845" Properties=species:S:1:pos:R:3:tags:I:1:forces:R:3 charge=0 spin=0 energy=-206.99357677420738 free_energy=-206.99357677420738 stress="0.010039512068033218 -2.9412663593575417e-07 7.364581722235641e-10 -2.9412663593575417e-07 0.010039584711194038 -5.207397180129192e-07 7.364581722235641e-10 -5.207397180129192e-07 -0.0001778499863576144" pbc="T T T"
Pt      -0.00000005       0.00000022      19.95723419        4      -0.00120447      -0.00532258       0.02173777
Pt       2.80721406      -0.00000018      19.95723436        4      -0.00000251       0.00000375       0.01864713
Pt       5.61442778      -0.00000006      19.95723442        4       0.00239264      -0.00444978       0.02174854
Pt       1.40360717       2.43111838      19.95723425        4       0.00265623       0.00429928       0.02176958
Pt       4.21082080       2.43111835      19.95723435        4      -0.00399965       0.00370449       0.02168531
Pt       7.01803478       2.43111843      19.95723423        4      -0.00000102       0.00000149       0.02433450
Pt       2.80721408       4.86223724      19.95723395        4       0.00000241      -0.00000338      -0.04317967
Pt       5.61442803       4.86223730      19.95723413        4      -0.00505178       0.00015221       0.02178633
Pt       8.42164138       4.86223726      19.95723427        4       0.00520736       0.00161365       0.02171385
Pt       1.40360728       0.81037260      22.29206790        3       0.00208972       0.00055302      -0.04447670
Pt       4.21082128       0.81037250      22.29206784        3      -0.00062665      -0.00210386      -0.04451974
Pt       7.01803477       0.81037260      22.29206779        3       0.00309224      -0.00081381      -0.07579810
Pt       2.80721450       3.24149125      22.29206775        3      -0.00059416       0.02610781      -0.08317693
Pt       5.61442762       3.24149123      22.29206790        3      -0.00227998      -0.00229661      -0.07569515
Pt       8.42164156       3.24149116      22.29206805        3      -0.00080424       0.00310901      -0.07564003
Pt       4.21082094       5.67260998      22.29206797        3      -0.02235316      -0.01352824      -0.08325411
Pt       7.01803488       5.67261038      22.29206774        3      -0.00146823       0.00155522      -0.04442222
Pt       9.82524823       5.67261061      22.29206804        3       0.02294284      -0.01258644      -0.08324488
Pt      -0.00000056       1.62074572      24.58417389        2      -0.00912282       0.00442196       0.01487940
Pt       2.80721443       1.62074548      24.58417398        2      -0.00489403      -0.15885526       0.24140936
Pt       5.61442779       1.62074532      24.58417370        2       0.00833420       0.00569074       0.01493250
Pt       1.40360636       4.05186439      24.58417390        2       0.04149437       0.01896182      -0.06492482
Pt       4.21082088       4.05186401      24.58417381        2      -0.03715662       0.02639934      -0.06483810
Pt       7.01803503       4.05186407      24.58417407        2       0.00079331      -0.01008141       0.01466431
Pt       2.80721279       6.48298345      24.58417372        2      -0.00432202      -0.04537865      -0.06467525
Pt       5.61442797       6.48298324      24.58417392        2       0.13989295       0.07518946       0.24116349
Pt       8.42164222       6.48298343      24.58417383        2      -0.13501923       0.08361520       0.24113744
Pt      -0.02007049      -0.00104938      26.90528860        1      -0.01877079       0.01363805      -0.00277673
Pt       2.80721547      -0.00004598      26.99498401        1       0.00000092      -0.00017821       0.03571050
Pt       5.62951433      -0.00186557      26.90925064        1       0.03040778       0.01243813      -0.02104358
Pt       1.39769232       2.44513489      26.90926310        1      -0.02589253       0.02001619      -0.02109705
Pt       4.21994824       2.44904361      26.90529861        1       0.02113843       0.00932732      -0.00273249
Pt       7.01803790       2.43112751      26.92862044        1       0.00000120      -0.00003653      -0.01859781
Pt       2.80721086       4.86224570      26.92607275        1       0.00000848      -0.00003362      -0.00819196
Pt       5.60525691       4.85012486      26.90923653        1      -0.00453057      -0.03265264      -0.02099969
Pt       8.43258773       4.84539976      26.90527761        1      -0.00235841      -0.02317448      -0.00281764
N        2.80721314      -0.00014913      29.15745435        0       0.00002480       0.00151347      -0.03592763
H        3.29192905       0.84229143      29.49371666        0      -0.02095982      -0.03822355       0.00207566
H        3.29431276      -0.84094273      29.49440119        0      -0.02276229       0.03748935       0.00105782
H        1.83539708      -0.00124830      29.49405851        0       0.04369507      -0.00008182       0.00157688
