40
Lattice="8.421641763931781 0.0 0.0 4.2108208819658905 7.293355709136913 0.0 0.0 0.0 46.87624170604845" Properties=species:S:1:pos:R:3:tags:I:1:forces:R:3 charge=0 spin=0 energy=-206.4229743572152 free_energy=-206.4229743572152 stress="0.010540513321757317 1.8302901025890606e-06 -3.877525500683987e-07 1.8302901025890606e-06 0.010558107867836952 -6.191205102368258e-06 -3.877525500683987e-07 -6.191205102368258e-06 -1.5025771062937565e-06" pbc="T T T"
Pt      -0.00000005       0.00000022      19.95723419        4      -0.00010778       0.00039347       0.01855033
Pt       2.80721406      -0.00000018      19.95723436        4       0.00033024       0.00050664       0.01854318
Pt       5.61442778      -0.00000006      19.95723442        4       0.00020171       0.00028965       0.01844548
Pt       1.40360717       2.43111838      19.95723425        4       0.00046645       0.00014212       0.01845659
Pt       4.21082080       2.43111835      19.95723435        4      -0.00054744       0.00048106       0.01834543
Pt       7.01803478       2.43111843      19.95723423        4      -0.00019279      -0.00004270       0.01890298
Pt       2.80721408       4.86223724      19.95723395        4      -0.00026167       0.00047871       0.01861507
Pt       5.61442803       4.86223730      19.95723413        4      -0.00053596       0.00049602       0.01779030
Pt       8.42164138       4.86223726      19.95723427        4       0.00018650       0.00007481       0.01780031
Pt       1.40360728       0.81037260      22.29206790        3      -0.00084142       0.00173499      -0.05165101
Pt       4.21082128       0.81037250      22.29206784        3       0.00065062       0.00123759      -0.05238760
Pt       7.01803477       0.81037260      22.29206779        3      -0.00030679       0.00181058      -0.05125751
Pt       2.80721450       3.24149125      22.29206775        3       0.00010332       0.00224260      -0.05218815
Pt       5.61442762       3.24149123      22.29206790        3       0.00036920       0.00036805      -0.05395522
Pt       8.42164156       3.24149116      22.29206805        3      -0.00095182       0.00051732      -0.05391236
Pt       4.21082094       5.67260998      22.29206797        3       0.00001653       0.00246179      -0.05137495
Pt       7.01803488       5.67261038      22.29206774        3       0.00011710       0.00076176      -0.04714817
Pt       9.82524823       5.67261061      22.29206804        3       0.00069842       0.00200708      -0.05117128
Pt      -0.00000056       1.62074572      24.58417389        2      -0.00320805      -0.00128652       0.03300411
Pt       2.80721443       1.62074548      24.58417398        2      -0.00182377      -0.01718117       0.04881218
Pt       5.61442779       1.62074532      24.58417370        2       0.00267783      -0.00382176       0.03183728
Pt       1.40360636       4.05186439      24.58417390        2       0.00389806       0.00344632       0.05478432
Pt       4.21082088       4.05186401      24.58417381        2      -0.00250367       0.00123405       0.05270922
Pt       7.01803503       4.05186407      24.58417407        2       0.00064368       0.00414137       0.05464076
Pt       2.80721279       6.48298345      24.58417372        2       0.00207186      -0.01546122       0.03738635
Pt       5.61442797       6.48298324      24.58417392        2       0.00645020      -0.00328110       0.05025407
Pt       8.42164222       6.48298343      24.58417383        2      -0.00729443      -0.00555511       0.05024283
Pt      -0.00239437      -0.00414955      26.91601710        1       0.01870466      -0.00581554       0.00454098
Pt       2.80733933      -0.01017060      26.92457146        1       0.00019718       0.01819046      -0.04389483
Pt       5.61678033      -0.00507887      26.91555537        1      -0.01951643      -0.00011229       0.00695916
Pt       1.40289399       2.42279187      26.91374582        1       0.01038298       0.01757190       0.00565041
Pt       4.21195560       2.42271363      26.91311146        1      -0.01034853       0.01936251       0.00813840
Pt       7.01789761       2.42841269      26.91836665        1       0.00271293       0.00667135      -0.01289481
Pt       2.80753398       4.85761921      26.92590051        1      -0.00228804      -0.01305513      -0.04065519
Pt       5.61037029       4.85893832      26.91938121        1       0.02086264      -0.01241793      -0.01620097
Pt       8.42603919       4.85822386      26.92036296        1      -0.02120490      -0.00937295      -0.01974072
N        7.02037814       0.35729557      30.99213496        0      -0.00163068       0.01891703      -0.01818235
H        7.84913389       0.88703849      30.68906418        0      -0.03254563      -0.00808645       0.00337067
H        7.02189369      -0.51319817      30.44410614        0       0.00129869      -0.00286132       0.00388523
H        6.20181834       0.89356231      30.67326379        0       0.03306899      -0.00718785       0.00494953
