40
Lattice="8.421641763931781 0.0 0.0 4.2108208819658905 7.293355709136913 0.0 0.0 0.0 46.87624170604845" Properties=species:S:1:pos:R:3:tags:I:1:forces:R:3 charge=0 spin=0 energy=-206.4269969554818 free_energy=-206.4269969554818 stress="0.01052487175911665 -7.411244951072149e-07 8.008245799828728e-08 -7.411244951072149e-07 0.010525116696953773 -7.179914405242016e-07 8.008245799828728e-08 -7.179914405242016e-07 -2.2793761672801338e-05" pbc="T T T"
Pt      -0.00000005       0.00000022      19.95723419        4      -0.00002144       0.00018888       0.01848101
Pt       2.80721406      -0.00000018      19.95723436        4      -0.00017749      -0.00006031       0.01869539
Pt       5.61442778      -0.00000006      19.95723442        4       0.00017921      -0.00007198       0.01846536
Pt       1.40360717       2.43111838      19.95723425        4      -0.00030859       0.00014530       0.01805432
Pt       4.21082080       2.43111835      19.95723435        4       0.00003045      -0.00033586       0.01805029
Pt       7.01803478       2.43111843      19.95723423        4      -0.00015224      -0.00011766       0.01847955
Pt       2.80721408       4.86223724      19.95723395        4       0.00028361       0.00018872       0.01805235
Pt       5.61442803       4.86223730      19.95723413        4       0.00013923      -0.00012652       0.01868759
Pt       8.42164138       4.86223726      19.95723427        4       0.00003922       0.00017271       0.01868063
Pt       1.40360728       0.81037260      22.29206790        3      -0.00030685      -0.00112219      -0.05190507
Pt       4.21082128       0.81037250      22.29206784        3      -0.00055025      -0.00048022      -0.05272278
Pt       7.01803477       0.81037260      22.29206779        3       0.00000093      -0.00000227      -0.05438736
Pt       2.80721450       3.24149125      22.29206775        3       0.00000341      -0.00002578      -0.04626995
Pt       5.61442762       3.24149123      22.29206790        3       0.00113307       0.00029010      -0.05192637
Pt       8.42164156       3.24149116      22.29206805        3      -0.00014378       0.00072842      -0.05268832
Pt       4.21082094       5.67260998      22.29206797        3       0.00071863      -0.00022625      -0.05268976
Pt       7.01803488       5.67261038      22.29206774        3       0.00000547      -0.00001877      -0.05136860
Pt       9.82524823       5.67261061      22.29206804        3      -0.00082545       0.00081678      -0.05193872
Pt      -0.00000056       1.62074572      24.58417389        2       0.00924903       0.00373333       0.05033289
Pt       2.80721443       1.62074548      24.58417398        2       0.00038043       0.00997348       0.05316858
Pt       5.61442779       1.62074532      24.58417370        2      -0.00784434       0.00613765       0.05028988
Pt       1.40360636       4.05186439      24.58417390        2       0.00853589      -0.00543198       0.05307711
Pt       4.21082088       4.05186401      24.58417381        2      -0.00901634      -0.00465240       0.05295344
Pt       7.01803503       4.05186407      24.58417407        2       0.00052787      -0.00415530       0.02972717
Pt       2.80721279       6.48298345      24.58417372        2      -0.00135584      -0.00987584       0.05030811
Pt       5.61442797       6.48298324      24.58417392        2      -0.00382204       0.00172457       0.02975621
Pt       8.42164222       6.48298343      24.58417383        2       0.00326896       0.00257120       0.02980293
Pt       0.00032759      -0.00013092      26.91620439        1      -0.00342138       0.00373541      -0.00392007
Pt       2.80816698      -0.00065028      26.91502320        1      -0.00165958       0.01445293       0.00572534
Pt       5.61409736      -0.00021468      26.91618559        1       0.00504211       0.00111757      -0.00387105
Pt       1.40484249       2.43045398      26.92347165        1      -0.00332145       0.00206022      -0.03361935
Pt       4.21075876       2.43252322      26.92342296        1      -0.00022828      -0.00411330      -0.03344603
Pt       7.01799679       2.43150817      26.91620869        1      -0.00158731      -0.00488262      -0.00392499
Pt       2.80600948       4.86150692      26.92346040        1       0.00358851       0.00180476      -0.03367707
Pt       5.61446735       4.86341572      26.91490848        1      -0.01160107      -0.00870904       0.00613883
Pt       8.42061336       4.86171120      26.91494625        1       0.01324452      -0.00571947       0.00598145
N        7.01808091       5.66988870      31.01267231        0      -0.00014165       0.00112267       0.03316734
H        6.06841397       5.66249483      30.61940148        0      -0.01272533      -0.00378359      -0.01255660
H        7.48304249       6.50150384      30.62695501        0       0.00596809       0.01259640      -0.01227505
H        7.50265785       4.85677081      30.61187796        0       0.00687193      -0.00964959      -0.01288851
