40
Lattice="8.421641763931781 0.0 0.0 4.2108208819658905 7.293355709136913 0.0 0.0 0.0 46.87624170604845" Properties=species:S:1:pos:R:3:tags:I:1:forces:R:3 charge=0 spin=0 energy=-206.42514110526207 free_energy=-206.42514110526207 stress="0.01047390978783369 4.123156486457447e-06 -1.130404257310147e-06 4.123156486457447e-06 0.0105014992877841 -2.660477093741065e-06 -1.130404257310147e-06 -2.660477093741065e-06 -9.13554904400371e-05" pbc="T T T"
Pt      -0.00000005       0.00000022      19.95723419        4      -0.00034142       0.00096221       0.01862319
Pt       2.80721406      -0.00000018      19.95723436        4       0.00039304       0.00061282       0.01854092
Pt       5.61442778      -0.00000006      19.95723442        4      -0.00085140       0.00097796       0.01850343
Pt       1.40360717       2.43111838      19.95723425        4      -0.00044777       0.00071601       0.01733280
Pt       4.21082080       2.43111835      19.95723435        4      -0.00026547       0.00078424       0.01869003
Pt       7.01803478       2.43111843      19.95723423        4       0.00003628       0.00112424       0.01726929
Pt       2.80721408       4.86223724      19.95723395        4       0.00003201       0.00097485       0.01886689
Pt       5.61442803       4.86223730      19.95723413        4      -0.00023385       0.00099166       0.01887925
Pt       8.42164138       4.86223726      19.95723427        4       0.00015518       0.00122428       0.01851369
Pt       1.40360728       0.81037260      22.29206790        3      -0.00060885       0.00328315      -0.05238765
Pt       4.21082128       0.81037250      22.29206784        3       0.00022145       0.00473750      -0.05125072
Pt       7.01803477       0.81037260      22.29206779        3       0.00003846       0.00271706      -0.05187342
Pt       2.80721450       3.24149125      22.29206775        3       0.00072718       0.00452664      -0.05291724
Pt       5.61442762       3.24149123      22.29206790        3      -0.00022502       0.00528515      -0.05347201
Pt       8.42164156       3.24149116      22.29206805        3      -0.00007906       0.00495735      -0.04568961
Pt       4.21082094       5.67260998      22.29206797        3      -0.00028026       0.00368928      -0.05081527
Pt       7.01803488       5.67261038      22.29206774        3      -0.00121253       0.00396485      -0.05255203
Pt       9.82524823       5.67261061      22.29206804        3       0.00045553       0.00335666      -0.05295348
Pt      -0.00000056       1.62074572      24.58417389        2       0.00053626      -0.00736203       0.03145247
Pt       2.80721443       1.62074548      24.58417398        2       0.00007292      -0.01136974       0.03046761
Pt       5.61442779       1.62074532      24.58417370        2       0.00296533      -0.01258056       0.03034290
Pt       1.40360636       4.05186439      24.58417390        2      -0.00187394      -0.01036979       0.03752911
Pt       4.21082088       4.05186401      24.58417381        2       0.00203905      -0.00962132       0.03586532
Pt       7.01803503       4.05186407      24.58417407        2       0.00220222      -0.01003635       0.03868595
Pt       2.80721279       6.48298345      24.58417372        2       0.00207132      -0.01533036       0.03565720
Pt       5.61442797       6.48298324      24.58417392        2      -0.00300142      -0.01338645       0.03445557
Pt       8.42164222       6.48298343      24.58417383        2      -0.00022360      -0.01489387       0.04295300
Pt       0.00103953      -0.01283202      26.91626613        1      -0.00003257      -0.00401622      -0.00686359
Pt       2.80600411      -0.01608341      26.91518817        1       0.01172554       0.00881991       0.00422855
Pt       5.61700882      -0.01550888      26.91543602        1      -0.01156718       0.00770881       0.00347177
Pt       1.40687457       2.41630851      26.91507135        1      -0.01668594       0.00411517       0.00326530
Pt       4.21105251       2.41364180      26.91595842        1      -0.00008133       0.01214438      -0.00299753
Pt       7.01568203       2.41573372      26.91538427        1       0.01585697       0.00507662       0.00215218
Pt       2.80454818       4.84637777      26.91726913        1       0.01556242       0.01282026      -0.00654797
Pt       5.61840570       4.84620672      26.91739325        1      -0.01722569       0.00986254      -0.00657125
Pt       8.42218124       4.84670839      26.91922585        1       0.00023096       0.00600624      -0.01555746
N        4.20676774       4.87202843      30.75551919        0      -0.00001845      -0.01011684      -0.03836130
H        4.20959624       3.92658746      30.35118407        0       0.00040435      -0.02474586       0.02046689
H        3.38483871       5.34864483      30.36056548        0       0.02627274       0.01660532       0.01294746
H        5.03453700       5.34857266      30.37288975        0      -0.02674348       0.01578433       0.01164965
