40
Lattice="8.421641763931781 0.0 0.0 4.2108208819658905 7.293355709136913 0.0 0.0 0.0 46.87624170604845" Properties=species:S:1:pos:R:3:tags:I:1:forces:R:3 charge=0 spin=0 energy=-206.42601085623863 free_energy=-206.42601085623863 stress="0.010491274297237396 -6.349920340653625e-07 2.3220525946499038e-08 -6.349920340653625e-07 0.010491017252206802 5.484808980327216e-07 2.3220525946499038e-08 5.484808980327216e-07 -4.3543426727410406e-05" pbc="T T T"
Pt      -0.00000005       0.00000022      19.95723419        4      -0.00017443      -0.00026391       0.01853307
Pt       2.80721406      -0.00000018      19.95723436        4      -0.00012879       0.00028536       0.01784257
Pt       5.61442778      -0.00000006      19.95723442        4      -0.00019136      -0.00025868       0.01782569
Pt       1.40360717       2.43111838      19.95723425        4      -0.00028144       0.00018391       0.01881524
Pt       4.21082080       2.43111835      19.95723435        4       0.00031918      -0.00003031       0.01782773
Pt       7.01803478       2.43111843      19.95723423        4       0.00029845       0.00015480       0.01881871
Pt       2.80721408       4.86223724      19.95723395        4       0.00031594      -0.00003331       0.01852198
Pt       5.61442803       4.86223730      19.95723413        4      -0.00013317       0.00028571       0.01852289
Pt       8.42164138       4.86223726      19.95723427        4      -0.00002000      -0.00033748       0.01880143
Pt       1.40360728       0.81037260      22.29206790        3       0.00039482       0.00070677      -0.05299052
Pt       4.21082128       0.81037250      22.29206784        3       0.00002148       0.00003908      -0.04714831
Pt       7.01803477       0.81037260      22.29206779        3       0.00022314       0.00018742      -0.05316414
Pt       2.80721450       3.24149125      22.29206775        3      -0.00026368       0.00007294      -0.05319360
Pt       5.61442762       3.24149123      22.29206790        3       0.00039798      -0.00072586      -0.05301726
Pt       8.42164156       3.24149116      22.29206805        3       0.00000775       0.00000631      -0.04732468
Pt       4.21082094       5.67260998      22.29206797        3      -0.00000260      -0.00001560      -0.05176342
Pt       7.01803488       5.67261038      22.29206774        3       0.00006575      -0.00034208      -0.05312727
Pt       9.82524823       5.67261061      22.29206804        3      -0.00081666      -0.00002221      -0.05301632
Pt      -0.00000056       1.62074572      24.58417389        2       0.00131906       0.00722987       0.03815831
Pt       2.80721443       1.62074548      24.58417398        2       0.00247975      -0.00115871       0.05186533
Pt       5.61442779       1.62074532      24.58417370        2      -0.00233903      -0.00149879       0.05182315
Pt       1.40360636       4.05186439      24.58417390        2      -0.00674185      -0.00260083       0.03790319
Pt       4.21082088       4.05186401      24.58417381        2      -0.00084242      -0.00474065       0.03807643
Pt       7.01803503       4.05186407      24.58417407        2       0.00543161      -0.00475584       0.03784432
Pt       2.80721279       6.48298345      24.58417372        2      -0.00367523       0.00315498       0.03809500
Pt       5.61442797       6.48298324      24.58417392        2       0.00453010       0.00174295       0.03812298
Pt       8.42164222       6.48298343      24.58417383        2      -0.00022650       0.00303892       0.05156427
Pt      -0.00025038       0.00301369      26.91407950        1      -0.00015436      -0.01620493       0.00672776
Pt       2.80436305      -0.00099762      26.91942159        1       0.02115855       0.01133933      -0.01996148
Pt       5.61678223      -0.00183365      26.91941418        1      -0.02064173       0.01220647      -0.01994267
Pt       1.40476083       2.43076272      26.92037203        1      -0.00075611      -0.00239384      -0.01821149
Pt       4.21128221       2.43414772      26.91941605        1      -0.00052070      -0.02401551      -0.02013551
Pt       7.01710495       2.43035318      26.92032230        1      -0.00168824       0.00190635      -0.01809478
Pt       2.80475966       4.86057277      26.91404867        1       0.01414329       0.00806090       0.00673849
Pt       5.61710242       4.86100681      26.91404465        1      -0.01400246       0.00826359       0.00673660
Pt       8.42140352       4.86353205      26.92017397        1       0.00247845       0.00044967      -0.01763377
N        8.42162955       3.24507334      30.84428288        0      -0.00017664      -0.00146561      -0.02735501
H        7.94474146       4.05819637      30.43390869        0      -0.02103743       0.04076219       0.01192632
H        9.36864032       3.24373643      30.44412368        0       0.04652905       0.00054138       0.01223640
H        7.95152804       2.41807828      30.45438571        0      -0.02529929      -0.03975464       0.01275207
