40
Lattice="8.421641763931781 0.0 0.0 4.2108208819658905 7.293355709136913 0.0 0.0 0.0 46.87624170604845" Properties=species:S:1:pos:R:3:tags:I:1:forces:R:3 charge=0 spin=0 energy=-206.99298931082848 free_energy=-206.99298931082848 stress="0.01001353282481432 -7.517396483081029e-08 -5.449790396738763e-09 -7.517396483081029e-08 0.010013535618782043 -4.235370809624328e-08 -5.449790396738763e-09 -4.235370809624328e-08 -0.0002266350929858163" pbc="T T T"
Pt      -0.00000005       0.00000022      19.95723419        4       0.00545005       0.00166078       0.02207994
Pt       2.80721406      -0.00000018      19.95723436        4      -0.00000194       0.00000259      -0.04326810
Pt       5.61442778      -0.00000006      19.95723442        4      -0.00520032       0.00028159       0.02142000
Pt       1.40360717       2.43111838      19.95723425        4       0.00236447      -0.00464335       0.02140319
Pt       4.21082080       2.43111835      19.95723435        4      -0.00128995      -0.00554932       0.02210571
Pt       7.01803478       2.43111843      19.95723423        4      -0.00000174       0.00000229       0.01877083
Pt       2.80721408       4.86223724      19.95723395        4       0.00000059      -0.00000373       0.02404794
Pt       5.61442803       4.86223730      19.95723413        4       0.00283349       0.00436361       0.02141097
Pt       8.42164138       4.86223726      19.95723427        4      -0.00415478       0.00388534       0.02204966
Pt       1.40360728       0.81037260      22.29206790        3       0.02426528      -0.01201037      -0.08230591
Pt       4.21082128       0.81037250      22.29206784        3      -0.02252577      -0.01496315      -0.08231788
Pt       7.01803477       0.81037260      22.29206779        3      -0.00225363       0.00173490      -0.04532809
Pt       2.80721450       3.24149125      22.29206775        3       0.00197417      -0.00095091      -0.07640029
Pt       5.61442762       3.24149123      22.29206790        3       0.00263461       0.00114901      -0.04538690
Pt       8.42164156       3.24149116      22.29206805        3      -0.00037487      -0.00287597      -0.04542128
Pt       4.21082094       5.67260998      22.29206797        3      -0.00013213       0.00222464      -0.07625125
Pt       7.01803488       5.67261038      22.29206774        3      -0.00174718       0.02697783      -0.08226205
Pt       9.82524823       5.67261061      22.29206804        3      -0.00184196      -0.00127714      -0.07629750
Pt      -0.00000056       1.62074572      24.58417389        2      -0.13652289       0.08350924       0.25021055
Pt       2.80721443       1.62074548      24.58417398        2       0.00204881      -0.04777966      -0.07762763
Pt       5.61442779       1.62074532      24.58417370        2       0.14057973       0.07652238       0.25026727
Pt       1.40360636       4.05186439      24.58417390        2       0.00394202       0.00722338       0.00551774
Pt       4.21082088       4.05186401      24.58417381        2      -0.00829454      -0.00017785       0.00544929
Pt       7.01803503       4.05186407      24.58417407        2      -0.00404469      -0.16001323       0.25025046
Pt       2.80721279       6.48298345      24.58417372        2       0.00434437      -0.00707259       0.00525418
Pt       5.61442797       6.48298324      24.58417392        2       0.04038709       0.02572335      -0.07790887
Pt       8.42164222       6.48298343      24.58417383        2      -0.04244395       0.02205716      -0.07777632
Pt       0.01123258      -0.01957827      26.90644276        1      -0.01143972       0.01102205      -0.00770457
Pt       2.80721326       0.00000151      26.92456280        1      -0.00000519       0.00000773       0.00628760
Pt       5.60269900      -0.01898891      26.90670378        1       0.01184690       0.01163859      -0.00704663
Pt       1.42590154       2.43045021      26.90670236        1      -0.01593099       0.00448188      -0.00707251
Pt       4.18825417       2.43115899      26.90646119        1       0.01520373       0.00443200      -0.00773036
Pt       7.01803425       2.43111861      26.99499370        1      -0.00000301       0.00000868       0.00851837
Pt       2.80721521       4.86223098      26.92626527        1       0.00000420      -0.00001484      -0.00834158
Pt       5.60386218       4.88189032      26.90669730        1       0.00410162      -0.01611564      -0.00706381
Pt       8.43297334       4.88177008      26.90646775        1      -0.00377199      -0.01545862      -0.00767939
N        7.01803478       2.43111947      29.15419952        0       0.00001063      -0.00001717      -0.01947108
H        7.01511231       3.40288168      29.49105853        0       0.00011352      -0.04649140       0.00187478
H        7.86106776       1.94776966      29.49105823        0      -0.04033690       0.02315372       0.00186920
H        6.17792579       1.94270668      29.49105922        0       0.04021293       0.02335207       0.00187445
