40
Lattice="8.421641763931781 0.0 0.0 4.2108208819658905 7.293355709136913 0.0 0.0 0.0 46.87624170604845" Properties=species:S:1:pos:R:3:tags:I:1:forces:R:3 charge=0 spin=0 energy=-206.42411685904625 free_energy=-206.42411685904625 stress="0.010515169240534306 4.027044919752143e-09 -3.313774143975934e-08 4.027044919752143e-09 0.010515247471630573 5.1916615007030487e-08 -3.313774143975934e-08 5.1916615007030487e-08 -1.8582768461783417e-05" pbc="T T T"
Pt      -0.00000005       0.00000022      19.95723419        4      -0.00001720       0.00031929       0.01876394
Pt       2.80721406      -0.00000018      19.95723436        4       0.00009237       0.00014640       0.01788483
Pt       5.61442778      -0.00000006      19.95723442        4       0.00007723      -0.00015033       0.01787836
Pt       1.40360717       2.43111838      19.95723425        4      -0.00027170      -0.00017715       0.01875203
Pt       4.21082080       2.43111835      19.95723435        4       0.00020171       0.00076324       0.01857001
Pt       7.01803478       2.43111843      19.95723423        4       0.00028963      -0.00014077       0.01875690
Pt       2.80721408       4.86223724      19.95723395        4       0.00055686      -0.00055850       0.01857334
Pt       5.61442803       4.86223730      19.95723413        4      -0.00075866      -0.00021080       0.01857582
Pt       8.42164138       4.86223726      19.95723427        4      -0.00017278       0.00000560       0.01788000
Pt       1.40360728       0.81037260      22.29206790        3       0.00005557       0.00040831      -0.05171119
Pt       4.21082128       0.81037250      22.29206784        3      -0.00009807       0.00017273      -0.05200540
Pt       7.01803477       0.81037260      22.29206779        3       0.00032070      -0.00024271      -0.05170535
Pt       2.80721450       3.24149125      22.29206775        3      -0.00090594       0.00003632      -0.05118413
Pt       5.61442762       3.24149123      22.29206790        3       0.00042138      -0.00078607      -0.05117551
Pt       8.42164156       3.24149116      22.29206805        3      -0.00037786      -0.00014580      -0.05171495
Pt       4.21082094       5.67260998      22.29206797        3       0.00046999       0.00076452      -0.05116024
Pt       7.01803488       5.67261038      22.29206774        3      -0.00009727      -0.00016696      -0.05198825
Pt       9.82524823       5.67261061      22.29206804        3       0.00019013      -0.00000792      -0.05199410
Pt      -0.00000056       1.62074572      24.58417389        2       0.00000389       0.00000415       0.05912984
Pt       2.80721443       1.62074548      24.58417398        2      -0.00391259       0.00655043       0.04402969
Pt       5.61442779       1.62074532      24.58417370        2       0.00280781       0.00523373       0.04311693
Pt       1.40360636       4.05186439      24.58417390        2       0.00311296      -0.00504940       0.04312176
Pt       4.21082088       4.05186401      24.58417381        2      -0.00000013       0.00001806       0.05539715
Pt       7.01803503       4.05186407      24.58417407        2      -0.00369573      -0.00665919       0.04402362
Pt       2.80721279       6.48298345      24.58417372        2       0.00761593       0.00012893       0.04400116
Pt       5.61442797       6.48298324      24.58417392        2      -0.00590947      -0.00015918       0.04312933
Pt       8.42164222       6.48298343      24.58417383        2      -0.00000461      -0.00000097       0.03608185
Pt      -0.00007546      -0.00217367      26.92337152        1      -0.00149894       0.00990046      -0.03200402
Pt       2.80367858       0.00136168      26.91430420        1       0.01850504      -0.00914905       0.00384857
Pt       5.61737075       0.00238493      26.91430520        1      -0.01716271      -0.01145899       0.00386899
Pt       1.40552937       2.43214612      26.92337129        1      -0.00780559      -0.00626820      -0.03206554
Pt       4.21062821       2.42913650      26.91818449        1       0.00085860       0.01246018      -0.01252764
Pt       7.01618619       2.43227574      26.92337168        1       0.00930334      -0.00367500      -0.03211164
Pt       2.80559052       4.86339938      26.91818868        1       0.01038832      -0.00697648      -0.01232967
Pt       5.61624311       4.86306622      26.91818739        1      -0.01124662      -0.00550157      -0.01238964
Pt       8.42223189       4.85850029      26.91430732        1      -0.00133948       0.02057320       0.00394513
N        8.42164149       1.62073990      30.84225354        0       0.00002156       0.00002647      -0.02901493
H        9.24619552       1.15285148      30.44370358        0       0.02018311      -0.01129931       0.01258268
H        7.60415822       1.14060135      30.44370756        0      -0.01989235      -0.01183616       0.01257511
H        8.41456801       2.56877242      30.44371021        0      -0.00030843       0.02310867       0.01259500
