40
Lattice="8.421641763931781 0.0 0.0 4.2108208819658905 7.293355709136913 0.0 0.0 0.0 46.87624170604845" Properties=species:S:1:pos:R:3:tags:I:1:forces:R:3 charge=0 spin=0 energy=-206.42417980155113 free_energy=-206.42417980155113 stress="0.010423660278320312 -4.183081969699742e-08 -2.9347855701189474e-08 -4.183081969699742e-08 0.010423839092254639 1.02404499102704e-07 -2.9347855701189474e-08 1.02404499102704e-07 -0.00023298029555007815" pbc="T T T"
Pt      -0.00000005       0.00000022      19.95723419        4       0.00014427      -0.00012642       0.01865868
Pt       2.80721406      -0.00000018      19.95723436        4       0.00003492       0.00018452       0.01865578
Pt       5.61442778      -0.00000006      19.95723442        4       0.00020246       0.00052103       0.01767279
Pt       1.40360717       2.43111838      19.95723425        4      -0.00017897      -0.00005565       0.01865538
Pt       4.21082080       2.43111835      19.95723435        4       0.00028375       0.00004930       0.01850663
Pt       7.01803478       2.43111843      19.95723423        4      -0.00018264       0.00022464       0.01851203
Pt       2.80721408       4.86223724      19.95723395        4       0.00034781      -0.00043835       0.01767898
Pt       5.61442803       4.86223730      19.95723413        4      -0.00010366      -0.00027284       0.01851021
Pt       8.42164138       4.86223726      19.95723427        4      -0.00055015      -0.00008804       0.01768048
Pt       1.40360728       0.81037260      22.29206790        3      -0.00000306       0.00000542      -0.05368127
Pt       4.21082128       0.81037250      22.29206784        3      -0.00177599       0.00007568      -0.05153221
Pt       7.01803477       0.81037260      22.29206779        3       0.00138732      -0.00059511      -0.05229016
Pt       2.80721450       3.24149125      22.29206775        3      -0.00122800      -0.00089540      -0.05229943
Pt       5.61442762       3.24149123      22.29206790        3       0.00000042       0.00000580      -0.05011018
Pt       8.42164156       3.24149116      22.29206805        3       0.00083022      -0.00156649      -0.05151592
Pt       4.21082094       5.67260998      22.29206797        3       0.00093815       0.00151440      -0.05151557
Pt       7.01803488       5.67261038      22.29206774        3      -0.00017501       0.00150104      -0.05228352
Pt       9.82524823       5.67261061      22.29206804        3       0.00000375      -0.00000824      -0.04671384
Pt      -0.00000056       1.62074572      24.58417389        2      -0.01216551       0.00676814       0.00255136
Pt       2.80721443       1.62074548      24.58417398        2       0.01193806       0.00717258       0.00255734
Pt       5.61442779       1.62074532      24.58417370        2      -0.00147446       0.00332462       0.03535174
Pt       1.40360636       4.05186439      24.58417390        2      -0.00067683       0.00368268       0.01122828
Pt       4.21082088       4.05186401      24.58417381        2       0.00359136      -0.00035794       0.03536027
Pt       7.01803503       4.05186407      24.58417407        2      -0.00211583      -0.00292308       0.03537898
Pt       2.80721279       6.48298345      24.58417372        2      -0.00284534      -0.00243428       0.01120922
Pt       5.61442797       6.48298324      24.58417392        2       0.00022966      -0.01392144       0.00257107
Pt       8.42164222       6.48298343      24.58417383        2       0.00353415      -0.00124796       0.01124119
Pt       0.00111597       0.00234029      26.90747892        1      -0.02174641      -0.01884075       0.03890396
Pt       2.80462914      -0.00019870      26.90747801        1       0.02719178      -0.00940213       0.03886560
Pt       5.61487794      -0.00099060      26.91183614        1      -0.00257953       0.01344920       0.01322617
Pt       1.40507138       2.42898277      26.90748192        1      -0.00544451       0.02821545       0.03898492
Pt       4.21016746       2.43043891      26.91713690        1       0.01662444       0.00755722      -0.00547119
Pt       7.01895020       2.43089906      26.91713773        1      -0.01487016       0.01057426      -0.00548692
Pt       2.80612845       4.86234444      26.91184214        1       0.01293791      -0.00449862       0.01345043
Pt       5.61416207       4.86314442      26.91714157        1      -0.00175528      -0.01817233      -0.00539208
Pt       8.42227349       4.86312585      26.91184028        1      -0.01034556      -0.00897659       0.01340174
N        1.40356898       0.81032848      30.80475743        0       0.00004618       0.00002447      -0.02139969
H        0.67069867       1.41717867      30.41255420        0       0.02828733      -0.02177984       0.01029436
H        2.29558485       1.14160448      30.41265168        0      -0.03278570      -0.01368413       0.01030600
H        1.24451101      -0.12782234      30.41263248        0       0.00444857       0.03543514       0.01027844
