40
Lattice="8.421641763931781 0.0 0.0 4.2108208819658905 7.293355709136913 0.0 0.0 0.0 46.87624170604845" Properties=species:S:1:pos:R:3:tags:I:1:forces:R:3 charge=0 spin=0 energy=-206.99264026602867 free_energy=-206.99264026602867 stress="0.010042599402368069 -9.607694551050372e-08 1.4669066850103718e-08 -9.607694551050372e-08 0.01004263199865818 -4.7324800078740736e-08 1.4669066850103718e-08 -4.7324800078740736e-08 -0.00017182124429382384" pbc="T T T"
Pt      -0.00000005       0.00000022      19.95723419        4       0.00221624      -0.00452034       0.02144988
Pt       2.80721406      -0.00000018      19.95723436        4      -0.00109461      -0.00537337       0.02212994
Pt       5.61442778      -0.00000006      19.95723442        4      -0.00000107       0.00000401       0.01863704
Pt       1.40360717       2.43111838      19.95723425        4      -0.00000008       0.00000104       0.02424480
Pt       4.21082080       2.43111835      19.95723435        4       0.00280444       0.00417419       0.02146122
Pt       7.01803478       2.43111843      19.95723423        4      -0.00410658       0.00363188       0.02207744
Pt       2.80721408       4.86223724      19.95723395        4       0.00519839       0.00174257       0.02210825
Pt       5.61442803       4.86223730      19.95723413        4      -0.00000128      -0.00000242      -0.04310103
Pt       8.42164138       4.86223726      19.95723427        4      -0.00501539       0.00034230       0.02147765
Pt       1.40360728       0.81037260      22.29206790        3       0.00200843      -0.00081863      -0.07691354
Pt       4.21082128       0.81037250      22.29206784        3       0.00236955       0.00127275      -0.04392885
Pt       7.01803477       0.81037260      22.29206779        3      -0.00014260      -0.00271030      -0.04396390
Pt       2.80721450       3.24149125      22.29206775        3      -0.00026422       0.00218138      -0.07676221
Pt       5.61442762       3.24149123      22.29206790        3      -0.00178508       0.02659877      -0.08267909
Pt       8.42164156       3.24149116      22.29206805        3      -0.00174821      -0.00135568      -0.07681390
Pt       4.21082094       5.67260998      22.29206797        3       0.02395324      -0.01177482      -0.08271635
Pt       7.01803488       5.67261038      22.29206774        3      -0.02216898      -0.01482240      -0.08272900
Pt       9.82524823       5.67261061      22.29206804        3      -0.00222354       0.00143305      -0.04386760
Pt      -0.00000056       1.62074572      24.58417389        2       0.00559592       0.00800973       0.01262762
Pt       2.80721443       1.62074548      24.58417398        2      -0.00979592       0.00086436       0.01256429
Pt       5.61442779       1.62074532      24.58417370        2      -0.00401036      -0.15917456       0.24256746
Pt       1.40360636       4.05186439      24.58417390        2       0.00420212      -0.00888075       0.01238560
Pt       4.21082088       4.05186401      24.58417381        2       0.03840996       0.02434975      -0.06183905
Pt       7.01803503       4.05186407      24.58417407        2      -0.04027079       0.02103772      -0.06174004
Pt       2.80721279       6.48298345      24.58417372        2      -0.13581198       0.08305842       0.24253614
Pt       5.61442797       6.48298324      24.58417392        2       0.00184766      -0.04540395      -0.06159880
Pt       8.42164222       6.48298343      24.58417383        2       0.13983223       0.07612604       0.24257125
Pt       0.01729415      -0.00151704      26.90783504        1       0.02544657       0.00968471      -0.01309251
Pt       2.78945756      -0.00108474      26.90739051        1      -0.02555327       0.01052201      -0.01285812
Pt       5.61442835      -0.00000029      26.99511482        1      -0.00000461       0.00001182       0.03556415
Pt       1.40361050       2.43111759      26.92644844        1       0.00000008      -0.00000463      -0.01634493
Pt       4.20349285       2.44685209      26.90783822        1      -0.02110365       0.01719924      -0.01312555
Pt       7.02598636       2.44703656      26.90739737        1       0.02189392       0.01686935      -0.01282644
Pt       2.81702091       4.84740075      26.90738430        1       0.00366023      -0.02739487      -0.01289459
Pt       5.61442538       4.86223483      26.92736219        1       0.00000083      -0.00000049      -0.00955979
Pt       8.41167664       4.84801785      26.90783189        1      -0.00434017      -0.02687352      -0.01306198
N        5.61442649       0.00000069      29.15795979        0       0.00014867       0.00002045      -0.03661124
H        6.45567191      -0.48639205      29.49462544        0      -0.03814690       0.02208646       0.00151958
H        4.77257901      -0.48534062      29.49462597        0       0.03806181       0.02191411       0.00157360
H        5.61503466       0.97173469      29.49462711        0      -0.00006133      -0.04402545       0.00153252
