40
Lattice="8.421641763931781 0.0 0.0 4.2108208819658905 7.293355709136913 0.0 0.0 0.0 46.87624170604845" Properties=species:S:1:pos:R:3:tags:I:1:forces:R:3 charge=0 spin=0 energy=-206.42906452139977 free_energy=-206.42906452139977 stress="0.010530756786465645 -1.1791845722086691e-08 -4.028426037194777e-09 -1.1791845722086691e-08 0.010530716739594936 -4.0195885731009184e-08 -4.028426037194777e-09 -4.0195885731009184e-08 -4.5773533202009276e-05" pbc="T T T"
Pt      -0.00000005       0.00000022      19.95723419        4       0.00011117      -0.00012336       0.01848470
Pt       2.80721406      -0.00000018      19.95723436        4       0.00004953       0.00015569       0.01849051
Pt       5.61442778      -0.00000006      19.95723442        4      -0.00012857      -0.00008749       0.01870398
Pt       1.40360717       2.43111838      19.95723425        4      -0.00015698      -0.00003334       0.01849348
Pt       4.21082080       2.43111835      19.95723435        4      -0.00021750       0.00025755       0.01795014
Pt       7.01803478       2.43111843      19.95723423        4      -0.00011726      -0.00031758       0.01794751
Pt       2.80721408       4.86223724      19.95723395        4      -0.00001034       0.00014840       0.01871151
Pt       5.61442803       4.86223730      19.95723413        4       0.00033187       0.00005777       0.01794386
Pt       8.42164138       4.86223726      19.95723427        4       0.00014206      -0.00007004       0.01871411
Pt       1.40360728       0.81037260      22.29206790        3      -0.00000421      -0.00000187      -0.05500043
Pt       4.21082128       0.81037250      22.29206784        3      -0.00044837      -0.00083706      -0.05223569
Pt       7.01803477       0.81037260      22.29206779        3      -0.00039335      -0.00027704      -0.05246101
Pt       2.80721450       3.24149125      22.29206775        3      -0.00004734       0.00047332      -0.05243850
Pt       5.61442762       3.24149123      22.29206790        3       0.00000469      -0.00000745      -0.04615261
Pt       8.42164156       3.24149116      22.29206805        3       0.00094898       0.00002772      -0.05224495
Pt       4.21082094       5.67260998      22.29206797        3      -0.00050165       0.00080507      -0.05225551
Pt       7.01803488       5.67261038      22.29206774        3       0.00043561      -0.00021281      -0.05244230
Pt       9.82524823       5.67261061      22.29206804        3       0.00000991      -0.00001474      -0.05015375
Pt      -0.00000056       1.62074572      24.58417389        2      -0.00796795       0.00590160       0.04571605
Pt       2.80721443       1.62074548      24.58417398        2       0.00907976       0.00403154       0.04575728
Pt       5.61442779       1.62074532      24.58417370        2       0.00001705       0.00897086       0.04870235
Pt       1.40360636       4.05186439      24.58417390        2       0.00054285      -0.00194401       0.02942733
Pt       4.21082088       4.05186401      24.58417381        2       0.00772011      -0.00449032       0.04880005
Pt       7.01803503       4.05186407      24.58417407        2      -0.00778477      -0.00437802       0.04872549
Pt       2.80721279       6.48298345      24.58417372        2       0.00146484       0.00139293       0.02936062
Pt       5.61442797       6.48298324      24.58417392        2      -0.00108707      -0.00987918       0.04571082
Pt       8.42164222       6.48298343      24.58417383        2      -0.00200591       0.00052972       0.02932958
Pt      -0.00035926      -0.00036187      26.91505561        1       0.00360216       0.00101103       0.00024381
Pt       2.80769875      -0.00009118      26.91506314        1      -0.00261850       0.00257293       0.00022750
Pt       5.61493934       0.00032365      26.91509695        1      -0.00016983       0.00634171       0.00516243
Pt       1.40345948       2.43164038      26.91508428        1      -0.00094656      -0.00361845       0.00015172
Pt       4.21181415       2.43116825      26.92233889        1      -0.00264827      -0.00011642      -0.02937019
Pt       7.01750675       2.43198986      26.92229999        1       0.00143152      -0.00226216      -0.02923196
Pt       2.80723043       4.86164179      26.91513924        1       0.00555432      -0.00297428       0.00500987
Pt       5.61395464       4.86137548      26.92233372        1       0.00122285       0.00234865      -0.02935257
Pt       8.42111442       4.86256209      26.91511695        1      -0.00541620      -0.00338454       0.00510501
N        9.82524949       5.67260933      30.99539157        0       0.00000208      -0.00002452      -0.00936711
H        8.99268101       5.21323480      30.60183869        0       0.02805103       0.01536760       0.00328320
H        9.84369971       6.62332529      30.60184576        0      -0.00071975      -0.03196565       0.00327128
H       10.63936348       5.18127482      30.60183221        0      -0.02733186       0.01662595       0.00328273
