40
Lattice="8.421641763931781 0.0 0.0 4.2108208819658905 7.293355709136913 0.0 0.0 0.0 46.87624170604845" Properties=species:S:1:pos:R:3:tags:I:1:forces:R:3 charge=0 spin=0 energy=-206.42858005484703 free_energy=-206.42858005484703 stress="0.010264153592288494 -1.3023801592737527e-08 1.1417172096628292e-08 -1.3023801592737527e-08 0.010264099575579166 5.891664933699303e-11 1.1417172096628292e-08 5.891664933699303e-11 -0.00026109034661203623" pbc="T T T"
Pt      -0.00000005       0.00000022      19.95723419        4      -0.00032056       0.00181692       0.01995143
Pt       2.80721406      -0.00000018      19.95723436        4      -0.00077085       0.00085563       0.01999229
Pt       5.61442778      -0.00000006      19.95723442        4      -0.00000167       0.00000380       0.02028822
Pt       1.40360717       2.43111838      19.95723425        4       0.00000081       0.00000055      -0.00013109
Pt       4.21082080       2.43111835      19.95723435        4      -0.00140898      -0.00118811       0.01995595
Pt       7.01803478       2.43111843      19.95723423        4       0.00112476       0.00024042       0.02001555
Pt       2.80721408       4.86223724      19.95723395        4      -0.00035634      -0.00109580       0.02001812
Pt       5.61442803       4.86223730      19.95723413        4      -0.00000177      -0.00000242       0.02017435
Pt       8.42164138       4.86223726      19.95723427        4       0.00173488      -0.00063248       0.01994163
Pt       1.40360728       0.81037260      22.29206790        3      -0.00138038      -0.00405295      -0.04471418
Pt       4.21082128       0.81037250      22.29206784        3       0.00087204       0.00094647      -0.06093883
Pt       7.01803477       0.81037260      22.29206779        3       0.00040706      -0.00124329      -0.06091109
Pt       2.80721450       3.24149125      22.29206775        3       0.00416655       0.00085841      -0.04472340
Pt       5.61442762       3.24149123      22.29206790        3      -0.00066219       0.00111673      -0.05527559
Pt       8.42164156       3.24149116      22.29206805        3      -0.00279350       0.00320303      -0.04473352
Pt       4.21082094       5.67260998      22.29206797        3       0.00129555       0.00005574      -0.05527738
Pt       7.01803488       5.67261038      22.29206774        3      -0.00063869      -0.00116977      -0.05531392
Pt       9.82524823       5.67261061      22.29206804        3      -0.00126970       0.00029150      -0.06096045
Pt      -0.00000056       1.62074572      24.58417389        2       0.02255653       0.01272098      -0.01358102
Pt       2.80721443       1.62074548      24.58417398        2      -0.02226870       0.01314281      -0.01347661
Pt       5.61442779       1.62074532      24.58417370        2       0.00342764      -0.00873015       0.01364746
Pt       1.40360636       4.05186439      24.58417390        2      -0.00025812      -0.02588157      -0.01352096
Pt       4.21082088       4.05186401      24.58417381        2       0.03732131       0.01898348       0.07019516
Pt       7.01803503       4.05186407      24.58417407        2      -0.03513311       0.02282284       0.07014637
Pt       2.80721279       6.48298345      24.58417372        2      -0.00928501       0.00138404       0.01364916
Pt       5.61442797       6.48298324      24.58417392        2      -0.00216634      -0.04181572       0.07018527
Pt       8.42164222       6.48298343      24.58417383        2       0.00580975       0.00737608       0.01370274
Pt      -0.00558875       0.00752559      26.91021848        1       0.00360630      -0.00422761       0.00503241
Pt       2.81274193       0.00735450      26.91002249        1      -0.00381970      -0.00428984       0.00498796
Pt       5.61442817      -0.00000058      26.92112109        1       0.00000054       0.00000231       0.00085487
Pt       1.40360787       2.43111943      26.91866724        1      -0.00000075      -0.00000351       0.00054266
Pt       4.20709821       2.42250537      26.91024173        1       0.00184526       0.00525354       0.00501072
Pt       7.02163166       2.42265479      26.90998959        1      -0.00178180       0.00545836       0.00501332
Pt       2.79808775       4.86334676      26.90999362        1       0.00560046      -0.00117041       0.00504867
Pt       5.61442674       4.86223637      26.93320408        1       0.00000346      -0.00000165       0.03794330
Pt       8.43095402       4.86332563      26.91021355        1      -0.00545522      -0.00102747       0.00509248
N        5.61442970       4.86223923      29.84016516        0      -0.00014722      -0.00019862       0.04955041
H        6.46655769       4.37031163      29.56531947        0       0.02014757      -0.01149588      -0.00246581
H        4.76234176       4.37023311      29.56531905        0      -0.01990181      -0.01160264      -0.00241936
H        5.61438318       5.84616511      29.56531970        0      -0.00009791       0.02329620      -0.00249735
