40
Lattice="8.421641763931781 0.0 0.0 4.2108208819658905 7.293355709136913 0.0 0.0 0.0 46.87624170604845" Properties=species:S:1:pos:R:3:tags:I:1:forces:R:3 charge=0 spin=0 energy=-206.42495418509606 free_energy=-206.42495418509606 stress="0.010533741675317287 1.448290909422667e-08 -8.939566420451683e-09 1.448290909422667e-08 0.010533901862800121 1.7083986847410415e-07 -8.939566420451683e-09 1.7083986847410415e-07 -7.184804417192936e-06" pbc="T T T"
Pt      -0.00000005       0.00000022      19.95723419        4       0.00001380       0.00030459       0.01809124
Pt       2.80721406      -0.00000018      19.95723436        4       0.00025835      -0.00015869       0.01809034
Pt       5.61442778      -0.00000006      19.95723442        4       0.00002840      -0.00012330       0.01860894
Pt       1.40360717       2.43111838      19.95723425        4       0.00026760       0.00038669       0.01854753
Pt       4.21082080       2.43111835      19.95723435        4      -0.00012295       0.00004237       0.01862105
Pt       7.01803478       2.43111843      19.95723423        4       0.00009334       0.00009032       0.01861609
Pt       2.80721408       4.86223724      19.95723395        4      -0.00046316       0.00003732       0.01855239
Pt       5.61442803       4.86223730      19.95723413        4      -0.00027487      -0.00014874       0.01809361
Pt       8.42164138       4.86223726      19.95723427        4       0.00019675      -0.00042472       0.01854552
Pt       1.40360728       0.81037260      22.29206790        3      -0.00039310       0.00132677      -0.04923869
Pt       4.21082128       0.81037250      22.29206784        3       0.00101970       0.00020835      -0.05321992
Pt       7.01803477       0.81037260      22.29206779        3      -0.00067654       0.00080212      -0.05323017
Pt       2.80721450       3.24149125      22.29206775        3       0.00020358      -0.00077765      -0.05280492
Pt       5.61442762       3.24149123      22.29206790        3      -0.00034207      -0.00098020      -0.05322137
Pt       8.42164156       3.24149116      22.29206805        3      -0.00078618       0.00021846      -0.05283331
Pt       4.21082094       5.67260998      22.29206797        3      -0.00094574      -0.00098592      -0.04920019
Pt       7.01803488       5.67261038      22.29206774        3       0.00132408      -0.00031700      -0.04921794
Pt       9.82524823       5.67261061      22.29206804        3       0.00057620       0.00057309      -0.05279520
Pt      -0.00000056       1.62074572      24.58417389        2       0.01081435      -0.00157845       0.04809947
Pt       2.80721443       1.62074548      24.58417398        2      -0.01102321      -0.00317739       0.04825298
Pt       5.61442779       1.62074532      24.58417370        2      -0.00002790       0.00001039       0.01577746
Pt       1.40360636       4.05186439      24.58417390        2       0.00004836       0.00003205       0.06726696
Pt       4.21082088       4.05186401      24.58417381        2      -0.00407474       0.01018562       0.04823457
Pt       7.01803503       4.05186407      24.58417407        2       0.00273188       0.01118283       0.04835090
Pt       2.80721279       6.48298345      24.58417372        2       0.00829991      -0.00801958       0.04834972
Pt       5.61442797       6.48298324      24.58417392        2      -0.00001099      -0.00005081       0.04549573
Pt       8.42164222       6.48298343      24.58417383        2      -0.00674480      -0.00861506       0.04811003
Pt       0.00004615      -0.00048446      26.91983530        1       0.00324200      -0.00143536      -0.01894815
Pt       2.80680829       0.00017476      26.91981692        1      -0.00294360      -0.00204567      -0.01883561
Pt       5.61375617       0.00094545      26.91332629        1       0.00111307      -0.01744483       0.01201996
Pt       1.40375672       2.43164882      26.92280067        1      -0.00036599      -0.00038649      -0.03104972
Pt       4.21196960       2.43124168      26.91333350        1      -0.01563065       0.00765309       0.01201316
Pt       7.01754277       2.43003997      26.91331607        1       0.01454733       0.00973786       0.01206012
Pt       2.80664818       4.86209324      26.92287213        1       0.00062545      -0.00017264      -0.03122165
Pt       5.61479645       4.86249349      26.91987273        1      -0.00032451       0.00348634      -0.01894462
Pt       8.42204994       4.86180987      26.92282775        1      -0.00024596       0.00056539      -0.03103359
N        5.61442915       1.62074207      31.01116326        0      -0.00008029       0.00004138       0.02768987
H        6.44355261       1.15749358      30.61772023        0       0.00693802      -0.00372999      -0.01058848
H        4.79867832       1.13432456      30.61772213        0      -0.00663136      -0.00408508      -0.01055493
H        5.60105245       2.57041438      30.61772634        0      -0.00023349       0.00777279      -0.01054910
