40
Lattice="8.421641763931781 0.0 0.0 4.2108208819658905 7.293355709136913 0.0 0.0 0.0 46.87624170604845" Properties=species:S:1:pos:R:3:tags:I:1:forces:R:3 charge=0 spin=0 energy=-206.42912174185875 free_energy=-206.42912174185875 stress="0.010478147305548191 3.831078121407927e-09 1.156929663181927e-09 3.831078121407927e-09 0.010478147305548191 -4.617592530564707e-09 1.156929663181927e-09 -4.617592530564707e-09 -7.635197107447311e-05" pbc="T T T"
Pt      -0.00000005       0.00000022      19.95723419        4      -0.00014887       0.00020846       0.01786643
Pt       2.80721406      -0.00000018      19.95723436        4      -0.00010984      -0.00023551       0.01786386
Pt       5.61442778      -0.00000006      19.95723442        4      -0.00011966      -0.00018423       0.01850341
Pt       1.40360717       2.43111838      19.95723425        4       0.00026028       0.00002847       0.01786473
Pt       4.21082080       2.43111835      19.95723435        4       0.00023494       0.00000318       0.01876002
Pt       7.01803478       2.43111843      19.95723423        4      -0.00011895       0.00020159       0.01875697
Pt       2.80721408       4.86223724      19.95723395        4      -0.00009999       0.00019285       0.01851227
Pt       5.61442803       4.86223730      19.95723413        4      -0.00011762      -0.00020541       0.01875680
Pt       8.42164138       4.86223726      19.95723427        4       0.00022051      -0.00001257       0.01850599
Pt       1.40360728       0.81037260      22.29206790        3      -0.00000231       0.00000218      -0.04675353
Pt       4.21082128       0.81037250      22.29206784        3       0.00054188       0.00053038      -0.05241628
Pt       7.01803477       0.81037260      22.29206779        3       0.00022342       0.00085937      -0.05271495
Pt       2.80721450       3.24149125      22.29206775        3       0.00062858      -0.00061613      -0.05272702
Pt       5.61442762       3.24149123      22.29206790        3       0.00000276      -0.00000110      -0.05015511
Pt       8.42164156       3.24149116      22.29206805        3      -0.00071950       0.00021221      -0.05244388
Pt       4.21082094       5.67260998      22.29206797        3       0.00017502      -0.00073477      -0.05241844
Pt       7.01803488       5.67261038      22.29206774        3      -0.00085969      -0.00024669      -0.05272366
Pt       9.82524823       5.67261061      22.29206804        3       0.00000749      -0.00001161      -0.05190817
Pt      -0.00000056       1.62074572      24.58417389        2       0.00387713      -0.00223510       0.03634809
Pt       2.80721443       1.62074548      24.58417398        2      -0.00386598      -0.00224770       0.03634470
Pt       5.61442779       1.62074532      24.58417370        2       0.00037351      -0.00154513       0.03539890
Pt       1.40360636       4.05186439      24.58417390        2      -0.00095295      -0.00162528       0.04178404
Pt       4.21082088       4.05186401      24.58417381        2      -0.00153010       0.00046646       0.03540432
Pt       7.01803503       4.05186407      24.58417407        2       0.00114885       0.00112018       0.03540426
Pt       2.80721279       6.48298345      24.58417372        2       0.00190794      -0.00001502       0.04182679
Pt       5.61442797       6.48298324      24.58417392        2      -0.00000663       0.00444711       0.03638914
Pt       8.42164222       6.48298343      24.58417383        2      -0.00094965       0.00165469       0.04182956
Pt      -0.00051408      -0.00061041      26.91724950        1       0.00310794       0.00202732      -0.00932394
Pt       2.80800134      -0.00013631      26.91725466        1      -0.00333135       0.00164962      -0.00929830
Pt       5.61393372       0.00049635      26.91711975        1       0.00004021      -0.00212731      -0.00687994
Pt       1.40333419       2.43187214      26.91723419        1       0.00022714      -0.00372681      -0.00945358
Pt       4.20856470       2.43075642      26.91578186        1       0.01039787       0.00450075       0.00055812
Pt       7.01948267       2.42935479      26.91577479        1      -0.00907296       0.00677849       0.00055490
Pt       2.80787697       4.86242654      26.91711393        1      -0.00186491       0.00102022      -0.00695560
Pt       5.61523559       4.86436932      26.91579361        1      -0.00132693      -0.01124489       0.00062088
Pt       8.42147247       4.86156836      26.91711236        1       0.00181737       0.00110796      -0.00691735
N        5.61443040       3.24148584      30.95658954        0      -0.00005907      -0.00002731      -0.00109749
H        6.42911599       2.75762632      30.55803062        0       0.03437522      -0.02043039       0.00209794
H        4.78804991       2.77787755      30.55803303        0      -0.03482179      -0.01951979       0.00213401
H        5.62612161       4.18895629      30.55803632        0       0.00051080       0.03998144       0.00210074
