40
Lattice="8.421641763931781 0.0 0.0 4.2108208819658905 7.293355709136913 0.0 0.0 0.0 46.87624170604845" Properties=species:S:1:pos:R:3:tags:I:1:forces:R:3 charge=0 spin=0 energy=-206.99356914481285 free_energy=-206.99356914481285 stress="0.010039497166872025 2.448640543661895e-07 1.5171036649164193e-09 2.448640543661895e-07 0.01003952231258154 3.1261083677236456e-07 1.5171036649164193e-09 3.1261083677236456e-07 -0.00017721312178764492" pbc="T T T"
Pt      -0.00000005       0.00000022      19.95723419        4       0.00000249      -0.00000125       0.02428713
Pt       2.80721406      -0.00000018      19.95723436        4       0.00268215       0.00425429       0.02109032
Pt       5.61442778      -0.00000006      19.95723442        4      -0.00382780       0.00373551       0.02244040
Pt       1.40360717       2.43111838      19.95723425        4       0.00514461       0.00145781       0.02248094
Pt       4.21082080       2.43111835      19.95723435        4       0.00000162       0.00000225      -0.04322719
Pt       7.01803478       2.43111843      19.95723423        4      -0.00502519       0.00020565       0.02110764
Pt       2.80721408       4.86223724      19.95723395        4       0.00234090      -0.00445798       0.02108404
Pt       5.61442803       4.86223730      19.95723413        4      -0.00131961      -0.00518817       0.02250212
Pt       8.42164138       4.86223726      19.95723427        4       0.00000069      -0.00000337       0.01846901
Pt       1.40360728       0.81037260      22.29206790        3       0.00020306       0.00109296      -0.07531768
Pt       4.21082128       0.81037250      22.29206784        3      -0.00267017       0.02620316      -0.08330761
Pt       7.01803477       0.81037260      22.29206779        3      -0.00103428      -0.00040853      -0.07535797
Pt       2.80721450       3.24149125      22.29206775        3       0.02403566      -0.01081319      -0.08333605
Pt       5.61442762       3.24149123      22.29206790        3      -0.02137295      -0.01537291      -0.08335721
Pt       8.42164156       3.24149116      22.29206805        3      -0.00301317       0.00217094      -0.04453299
Pt       4.21082094       5.67260998      22.29206797        3       0.00083215      -0.00066707      -0.07545888
Pt       7.01803488       5.67261038      22.29206774        3       0.00338631       0.00158283      -0.04459292
Pt       9.82524823       5.67261061      22.29206804        3      -0.00036853      -0.00376041      -0.04462257
Pt      -0.00000056       1.62074572      24.58417389        2       0.00732371      -0.01041169       0.01464415
Pt       2.80721443       1.62074548      24.58417398        2       0.03515905       0.03075021      -0.06512589
Pt       5.61442779       1.62074532      24.58417370        2      -0.04418470       0.01502960      -0.06501769
Pt       1.40360636       4.05186439      24.58417390        2      -0.13576433       0.08264863       0.24124910
Pt       4.21082088       4.05186401      24.58417381        2       0.00901323      -0.04579523      -0.06488214
Pt       7.01803503       4.05186407      24.58417407        2       0.13946971       0.07625574       0.24127904
Pt       2.80721279       6.48298345      24.58417372        2       0.00538022       0.01146778       0.01486500
Pt       5.61442797       6.48298324      24.58417392        2      -0.01269664      -0.00108981       0.01478960
Pt       8.42164222       6.48298343      24.58417383        2      -0.00370670      -0.15891328       0.24117357
Pt       0.00000377      -0.00000976      26.92785423        1      -0.00000668       0.00000949      -0.01782446
Pt       2.79872375       0.01820976      26.90590152        1      -0.01881785       0.01020303      -0.00254944
Pt       5.62088943       0.01361360      26.90866652        1       0.02525060       0.02164813      -0.02083959
Pt       1.41218048       2.41869319      26.90866476        1       0.00602530      -0.03254488      -0.02097923
Pt       4.21081737       2.43110656      26.92670236        1       0.00000597       0.00001909      -0.00936613
Pt       7.00648931       2.41462669      26.90590777        1       0.00065750      -0.02126505      -0.00254493
Pt       2.82724848       4.86047479      26.90590655        1       0.01817417       0.01119089      -0.00255469
Pt       5.59939186       4.86100134      26.90866502        1      -0.03128119       0.01101964      -0.02090965
Pt       8.42164086       4.86225917      26.99498351        1       0.00000311       0.00000448       0.03636318
N        8.42164079       4.86225473      29.15756412        0       0.00007282       0.00096752      -0.03635805
H        7.93727258       4.01971628      29.49406744        0       0.02170289       0.03756493       0.00195710
H        7.93422525       5.70290356      29.49440666        0       0.02145426      -0.03724919       0.00088735
H        9.39342852       4.86415903      29.49423742        0      -0.04323233      -0.00154260       0.00139324
