40
Lattice="8.421641763931781 0.0 0.0 4.2108208819658905 7.293355709136913 0.0 0.0 0.0 46.87624170604845" Properties=species:S:1:pos:R:3:tags:I:1:forces:R:3 charge=0 spin=0 energy=-206.42907024344566 free_energy=-206.42907024344566 stress="0.010530708357691765 4.502060502176164e-09 1.3270975429691134e-08 4.502060502176164e-09 0.010530659928917885 -3.948888505078685e-08 1.3270975429691134e-08 -3.948888505078685e-08 -4.586618524626829e-05" pbc="T T T"
Pt      -0.00000005       0.00000022      19.95723419        4      -0.00011291      -0.00032085       0.01794652
Pt       2.80721406      -0.00000018      19.95723436        4      -0.00015929      -0.00003201       0.01849149
Pt       5.61442778      -0.00000006      19.95723442        4      -0.00021999       0.00025989       0.01794039
Pt       1.40360717       2.43111838      19.95723425        4       0.00014133      -0.00006526       0.01871517
Pt       4.21082080       2.43111835      19.95723435        4      -0.00000997       0.00015345       0.01871062
Pt       7.01803478       2.43111843      19.95723423        4       0.00033209       0.00006237       0.01794440
Pt       2.80721408       4.86223724      19.95723395        4      -0.00012646      -0.00009474       0.01871411
Pt       5.61442803       4.86223730      19.95723413        4       0.00010639      -0.00012451       0.01848506
Pt       8.42164138       4.86223726      19.95723427        4       0.00005245       0.00014926       0.01849087
Pt       1.40360728       0.81037260      22.29206790        3       0.00094549       0.00002706      -0.05224492
Pt       4.21082128       0.81037250      22.29206784        3      -0.00004390       0.00047722      -0.05243803
Pt       7.01803477       0.81037260      22.29206779        3       0.00000344      -0.00000613      -0.04614666
Pt       2.80721450       3.24149125      22.29206775        3      -0.00000363      -0.00000172      -0.05015703
Pt       5.61442762       3.24149123      22.29206790        3      -0.00049593       0.00080312      -0.05225861
Pt       8.42164156       3.24149116      22.29206805        3       0.00044183      -0.00020536      -0.05244500
Pt       4.21082094       5.67260998      22.29206797        3      -0.00039704      -0.00027556      -0.05246222
Pt       7.01803488       5.67261038      22.29206774        3      -0.00000511      -0.00000771      -0.05499962
Pt       9.82524823       5.67261061      22.29206804        3      -0.00043772      -0.00085365      -0.05223472
Pt      -0.00000056       1.62074572      24.58417389        2      -0.00778537      -0.00438397       0.04871999
Pt       2.80721443       1.62074548      24.58417398        2       0.00053223      -0.00194312       0.02941543
Pt       5.61442779       1.62074532      24.58417370        2       0.00772726      -0.00449068       0.04879920
Pt       1.40360636       4.05186439      24.58417390        2      -0.00199589       0.00053439       0.02930797
Pt       4.21082088       4.05186401      24.58417381        2       0.00145636       0.00140414       0.02934690
Pt       7.01803503       4.05186407      24.58417407        2      -0.00108722      -0.00987931       0.04570679
Pt       2.80721279       6.48298345      24.58417372        2       0.00002479       0.00896423       0.04869485
Pt       5.61442797       6.48298324      24.58417392        2      -0.00797525       0.00590164       0.04571077
Pt       8.42164222       6.48298343      24.58417383        2       0.00907831       0.00402590       0.04575678
Pt      -0.00052745       0.00087089      26.92229999        1       0.00142500      -0.00225693      -0.02923645
Pt       2.80706608       0.00052182      26.91508573        1      -0.00094430      -0.00361929       0.00015564
Pt       5.61541991       0.00004887      26.92234085        1      -0.00264243      -0.00010944      -0.02938054
Pt       1.40307888       2.43144291      26.91511208        1      -0.00541717      -0.00338273       0.00512628
Pt       4.21083761       2.43052275      26.91513649        1       0.00555403      -0.00297352       0.00502698
Pt       7.01756082       2.43025678      26.92233644        1       0.00122963       0.00234370      -0.02936678
Pt       2.80772497       4.86256164      26.91509078        1      -0.00016992       0.00633914       0.00518527
Pt       5.61406885       4.86187554      26.91505518        1       0.00359908       0.00101036       0.00025348
Pt       8.42212526       4.86214660      26.91506172        1      -0.00261555       0.00256891       0.00023617
N        2.80721527       3.24149068      30.99533997        0      -0.00006801       0.00000714      -0.00930320
H        1.97464588       2.78211545      30.60179040        0       0.02805879       0.01536067       0.00327855
H        2.82566349       4.19220670      30.60179664        0      -0.00071303      -0.03195788       0.00326494
H        3.62132980       2.75015732      30.60178584        0      -0.02728199       0.01659181       0.00324908
