40
Lattice="8.421641763931781 0.0 0.0 4.2108208819658905 7.293355709136913 0.0 0.0 0.0 46.87624170604845" Properties=species:S:1:pos:R:3:tags:I:1:forces:R:3 charge=0 spin=0 energy=-206.99322010001305 free_energy=-206.99322010001305 stress="0.010000776499509811 -7.243433941539479e-08 -6.524835782784066e-09 -7.243433941539479e-08 0.010000740177929401 -1.2784913572261303e-08 -6.524835782784066e-09 -1.2784913572261303e-08 -0.0002698941680137068" pbc="T T T"
Pt      -0.00000005       0.00000022      19.95723419        4       0.00000296      -0.00000128       0.01852274
Pt       2.80721406      -0.00000018      19.95723436        4       0.00253604      -0.00447666       0.02148334
Pt       5.61442778      -0.00000006      19.95723442        4      -0.00147068      -0.00519656       0.02213635
Pt       1.40360717       2.43111838      19.95723425        4      -0.00376352       0.00386956       0.02209317
Pt       4.21082080       2.43111835      19.95723435        4       0.00000150       0.00000104       0.02421717
Pt       7.01803478       2.43111843      19.95723423        4       0.00260527       0.00443721       0.02149492
Pt       2.80721408       4.86223724      19.95723395        4      -0.00514357       0.00004030       0.02151215
Pt       5.61442803       4.86223730      19.95723413        4       0.00523126       0.00132947       0.02212322
Pt       8.42164138       4.86223726      19.95723427        4       0.00000125      -0.00000290      -0.04379307
Pt       1.40360728       0.81037260      22.29206790        3      -0.00061372      -0.00299815      -0.04524492
Pt       4.21082128       0.81037250      22.29206784        3       0.00208810      -0.00072796      -0.07488423
Pt       7.01803477       0.81037260      22.29206779        3       0.00285533       0.00100131      -0.04520809
Pt       2.80721450       3.24149125      22.29206775        3      -0.00171912      -0.00146935      -0.07478830
Pt       5.61442762       3.24149123      22.29206790        3      -0.00037624       0.00220682      -0.07473702
Pt       8.42164156       3.24149116      22.29206805        3      -0.00152991       0.02691095      -0.08493512
Pt       4.21082094       5.67260998      22.29206797        3      -0.00224525       0.00199779      -0.04515734
Pt       7.01803488       5.67261038      22.29206774        3       0.02409214      -0.01215891      -0.08497959
Pt       9.82524823       5.67261061      22.29206804        3      -0.02255435      -0.01476255      -0.08499666
Pt      -0.00000056       1.62074572      24.58417389        2      -0.00493998      -0.15909036       0.24278176
Pt       2.80721443       1.62074548      24.58417398        2       0.00296245       0.00599630       0.00754968
Pt       5.61442779       1.62074532      24.58417370        2      -0.00674983      -0.00042177       0.00748469
Pt       1.40360636       4.05186439      24.58417390        2      -0.04263729       0.02188243      -0.07125653
Pt       4.21082088       4.05186401      24.58417381        2       0.00378392      -0.00559672       0.00729494
Pt       7.01803503       4.05186407      24.58417407        2       0.04033414       0.02597673      -0.07136159
Pt       2.80721279       6.48298345      24.58417372        2       0.14022124       0.07528464       0.24278697
Pt       5.61442797       6.48298324      24.58417392        2      -0.13526390       0.08382843       0.24275179
Pt       8.42164222       6.48298343      24.58417383        2       0.00229110      -0.04788021      -0.07107878
Pt       0.00000182       0.00000017      26.99488435        1      -0.00000359      -0.00000480      -0.02588597
Pt       2.82658003      -0.00109438      26.90744393        1       0.01222619       0.00605313      -0.01102091
Pt       5.59561927      -0.00061692      26.90627943        1      -0.01349282       0.00686445      -0.00970147
Pt       1.41248642       2.44770803      26.90627146        1       0.01267922       0.00827257      -0.00962080
Pt       4.21082247       2.43112050      26.92364718        1       0.00000624      -0.00001031       0.00319685
Pt       7.00930456       2.44842838      26.90742802        1      -0.01131813       0.00758454      -0.01098204
Pt       2.79657784       4.84601993      26.90741925        1      -0.00089314      -0.01362446      -0.01092750
Pt       5.62436363       4.84626248      26.90625619        1       0.00079405      -0.01513487      -0.00968461
Pt       8.42164024       4.86223364      26.92579453        1      -0.00000071       0.00000837      -0.00888740
N       -0.00000035      -0.00000756      29.14522412        0       0.00000060       0.00026468       0.04898064
H       -0.83993746       0.48553001      29.48557877        0       0.01600270      -0.00923672      -0.00245493
H        0.84045450       0.48463609      29.48557520        0      -0.01599397      -0.00925761      -0.00244531
H       -0.00051593      -0.97017570      29.48558100        0      -0.00000572       0.01824156      -0.00237813
