40
Lattice="8.421641763931781 0.0 0.0 4.2108208819658905 7.293355709136913 0.0 0.0 0.0 46.87624170604845" Properties=species:S:1:pos:R:3:tags:I:1:forces:R:3 charge=0 spin=0 energy=-206.42412067374352 free_energy=-206.42412067374352 stress="0.010430369526147842 9.951206436653592e-08 -2.0830718483466626e-08 9.951206436653592e-08 0.01043036300688982 -5.5657825015487106e-09 -2.0830718483466626e-08 -5.5657825015487106e-09 -0.0001785514468792826" pbc="T T T"
Pt      -0.00000005       0.00000022      19.95723419        4       0.00011137       0.00017413       0.01854643
Pt       2.80721406      -0.00000018      19.95723436        4       0.00009289      -0.00017514       0.01853850
Pt       5.61442778      -0.00000006      19.95723442        4       0.00020609       0.00021462       0.01848540
Pt       1.40360717       2.43111838      19.95723425        4      -0.00024811      -0.00047869       0.01783099
Pt       4.21082080       2.43111835      19.95723435        4       0.00007508      -0.00027989       0.01850313
Pt       7.01803478       2.43111843      19.95723423        4      -0.00028130       0.00007619       0.01850680
Pt       2.80721408       4.86223724      19.95723395        4       0.00054046       0.00002273       0.01783250
Pt       5.61442803       4.86223730      19.95723413        4      -0.00020489       0.00000170       0.01855317
Pt       8.42164138       4.86223726      19.95723427        4      -0.00028858       0.00045049       0.01782760
Pt       1.40360728       0.81037260      22.29206790        3      -0.00088355       0.00078751      -0.04909850
Pt       4.21082128       0.81037250      22.29206784        3       0.00000192       0.00045479      -0.05297097
Pt       7.01803477       0.81037260      22.29206779        3      -0.00038368      -0.00021596      -0.05295724
Pt       2.80721450       3.24149125      22.29206775        3       0.00065053      -0.00005088      -0.05219969
Pt       5.61442762       3.24149123      22.29206790        3       0.00039314      -0.00022703      -0.05293188
Pt       8.42164156       3.24149116      22.29206805        3      -0.00036824      -0.00053797      -0.05219670
Pt       4.21082094       5.67260998      22.29206797        3      -0.00023730      -0.00114711      -0.04909432
Pt       7.01803488       5.67261038      22.29206774        3       0.00112162       0.00037250      -0.04910181
Pt       9.82524823       5.67261061      22.29206804        3      -0.00027092       0.00059361      -0.05222743
Pt      -0.00000056       1.62074572      24.58417389        2       0.00879403      -0.00429154       0.03282751
Pt       2.80721443       1.62074548      24.58417398        2      -0.00840336      -0.00304896       0.02661000
Pt       5.61442779       1.62074532      24.58417370        2      -0.00001479       0.00003350      -0.00175645
Pt       1.40360636       4.05186439      24.58417390        2       0.00000441      -0.00004613       0.03961989
Pt       4.21082088       4.05186401      24.58417381        2      -0.00069749       0.00973364       0.03280001
Pt       7.01803503       4.05186407      24.58417407        2       0.00153389       0.00877908       0.02658283
Pt       2.80721279       6.48298345      24.58417372        2       0.00684683      -0.00575760       0.02655528
Pt       5.61442797       6.48298324      24.58417392        2      -0.00001130      -0.00001011       0.00466414
Pt       8.42164222       6.48298343      24.58417383        2      -0.00812571      -0.00546822       0.03279117
Pt       0.00460278      -0.00385364      26.91732287        1      -0.03701118       0.03136359      -0.00142349
Pt       2.80156944      -0.00208319      26.91732148        1       0.04569626       0.01641073      -0.00141518
Pt       5.61487729       0.00206581      26.90687206        1      -0.00336834      -0.02340223       0.03484030
Pt       1.40580657       2.42964530      26.91764689        1      -0.01021252       0.02063666      -0.01100082
Pt       4.21237929       2.42968026      26.90690363        1      -0.01859018       0.01458290       0.03469751
Pt       7.01600409       2.43046568      26.90689858        1       0.02193643       0.00880016       0.03472537
Pt       2.80736449       4.86486591      26.91761503        1      -0.01277729      -0.01916689      -0.01089902
Pt       5.61543948       4.86814260      26.91732209        1      -0.00861807      -0.04774890      -0.00143435
Pt       8.41926400       4.86103741      26.91760945        1       0.02298785      -0.00143941      -0.01086564
N        5.61448405       6.48303656      30.81916953        0       0.00002291      -0.00000500      -0.00116866
H        6.51908389       6.19513727      30.42424825        0       0.01598045      -0.00379412       0.00380677
H        4.91286080       5.84359919      30.42420067        0      -0.01103886      -0.01198398       0.00379971
H        5.41155608       7.41037966      30.42419970        0      -0.00496076       0.01578719       0.00379723
