40
Lattice="8.421641763931781 0.0 0.0 4.2108208819658905 7.293355709136913 0.0 0.0 0.0 46.87624170604845" Properties=species:S:1:pos:R:3:tags:I:1:forces:R:3 charge=0 spin=0 energy=-206.42544246634606 free_energy=-206.42544246634606 stress="0.010507317259907722 3.853473117487738e-06 -3.4821728149836417e-06 3.853473117487738e-06 0.010538538917899132 -4.157081548328279e-06 -3.4821728149836417e-06 -4.157081548328279e-06 -3.3755077311070636e-05" pbc="T T T"
Pt      -0.00000005       0.00000022      19.95723419        4       0.00025738       0.00021557       0.01870765
Pt       2.80721406      -0.00000018      19.95723436        4      -0.00050189       0.00060370       0.01861958
Pt       5.61442778      -0.00000006      19.95723442        4      -0.00041963       0.00070837       0.01838852
Pt       1.40360717       2.43111838      19.95723425        4      -0.00015989       0.00056203       0.01848863
Pt       4.21082080       2.43111835      19.95723435        4      -0.00014446       0.00098148       0.01755063
Pt       7.01803478       2.43111843      19.95723423        4      -0.00014455       0.00046369       0.01766410
Pt       2.80721408       4.86223724      19.95723395        4       0.00012022       0.00087864       0.01890334
Pt       5.61442803       4.86223730      19.95723413        4       0.00021684       0.00091309       0.01832650
Pt       8.42164138       4.86223726      19.95723427        4      -0.00019329       0.00077744       0.01882266
Pt       1.40360728       0.81037260      22.29206790        3       0.00030587       0.00371810      -0.05386410
Pt       4.21082128       0.81037250      22.29206784        3      -0.00064223       0.00156001      -0.05058201
Pt       7.01803477       0.81037260      22.29206779        3       0.00026555       0.00214880      -0.05157281
Pt       2.80721450       3.24149125      22.29206775        3      -0.00058673       0.00381245      -0.05399353
Pt       5.61442762       3.24149123      22.29206790        3      -0.00020846       0.00375706      -0.04557697
Pt       8.42164156       3.24149116      22.29206805        3       0.00150354       0.00319662      -0.05311546
Pt       4.21082094       5.67260998      22.29206797        3      -0.00106780       0.00301957      -0.05170422
Pt       7.01803488       5.67261038      22.29206774        3       0.00027576       0.00204552      -0.05201243
Pt       9.82524823       5.67261061      22.29206804        3      -0.00020664       0.00227723      -0.05181991
Pt      -0.00000056       1.62074572      24.58417389        2      -0.01099024      -0.01211869       0.04259279
Pt       2.80721443       1.62074548      24.58417398        2       0.01410124      -0.01349400       0.04442669
Pt       5.61442779       1.62074532      24.58417370        2       0.00007284       0.00370843       0.03988313
Pt       1.40360636       4.05186439      24.58417390        2       0.00214113      -0.00611493       0.02394844
Pt       4.21082088       4.05186401      24.58417381        2       0.00476152      -0.00840579       0.05338740
Pt       7.01803503       4.05186407      24.58417407        2      -0.00648492      -0.00896038       0.05069119
Pt       2.80721279       6.48298345      24.58417372        2       0.00633177      -0.00824012       0.03671439
Pt       5.61442797       6.48298324      24.58417392        2       0.00002732      -0.01224956       0.05728466
Pt       8.42164222       6.48298343      24.58417383        2      -0.00818299      -0.00774353       0.03631106
Pt       0.00028136      -0.01283906      26.91952376        1       0.00222214       0.01221270      -0.01703250
Pt       2.80783402      -0.01252448      26.92077624        1      -0.00217513       0.01334502      -0.02044837
Pt       5.61512186      -0.00869287      26.91177850        1      -0.00040587       0.00498306       0.01530573
Pt       1.40379400       2.41750282      26.91087226        1      -0.00229397       0.00643164       0.01817853
Pt       4.21133836       2.42156388      26.92170888        1       0.00029225      -0.00454895      -0.02573820
Pt       7.01815831       2.42236761      26.92092448        1      -0.00100056      -0.00594191      -0.02246495
Pt       2.80672102       4.85049577      26.91738596        1       0.01236015       0.00623527      -0.00495083
Pt       5.61367380       4.85157803      26.92323639        1       0.00246419       0.00391625      -0.02960278
Pt       8.42219825       4.85151469      26.91580226        1      -0.01270154       0.00535662       0.00151632
N        9.81600273       4.86229063      30.83568147        0       0.00888538      -0.00152778       0.01419262
H       10.30517245       5.69339422      30.47935920        0      -0.01038506       0.00607199      -0.00593864
H       10.30335750       4.04759020      30.44110116        0      -0.00544212      -0.00746783      -0.00384895
H        8.87696512       4.87244487      30.41684494        0       0.00773302       0.00291332      -0.00563824
