40
Lattice="8.421641763931781 0.0 0.0 4.2108208819658905 7.293355709136913 0.0 0.0 0.0 46.87624170604845" Properties=species:S:1:pos:R:3:tags:I:1:forces:R:3 charge=0 spin=0 energy=-206.42559314688805 free_energy=-206.42559314688805 stress="0.010524553246796131 -1.1122152500320226e-05 -3.664313680928899e-06 -1.1122152500320226e-05 0.0105210579931736 1.745626718729909e-07 -3.664313680928899e-06 1.745626718729909e-07 -3.272403046139516e-05" pbc="T T T"
Pt      -0.00000005       0.00000022      19.95723419        4       0.00024777       0.00000735       0.01755258
Pt       2.80721406      -0.00000018      19.95723436        4       0.00043911      -0.00065451       0.01828108
Pt       5.61442778      -0.00000006      19.95723442        4      -0.00013973      -0.00018798       0.01867120
Pt       1.40360717       2.43111838      19.95723425        4       0.00071410      -0.00023420       0.01767412
Pt       4.21082080       2.43111835      19.95723435        4       0.00050820      -0.00045066       0.01885198
Pt       7.01803478       2.43111843      19.95723423        4       0.00057739      -0.00003270       0.01843672
Pt       2.80721408       4.86223724      19.95723395        4       0.00037152      -0.00005865       0.01849395
Pt       5.61442803       4.86223730      19.95723413        4       0.00053587      -0.00005044       0.01890559
Pt       8.42164138       4.86223726      19.95723427        4       0.00053215       0.00022321       0.01861880
Pt       1.40360728       0.81037260      22.29206790        3       0.00246729      -0.00149165      -0.04572824
Pt       4.21082128       0.81037250      22.29206784        3       0.00211853      -0.00002931      -0.05177009
Pt       7.01803477       0.81037260      22.29206779        3       0.00126163      -0.00108941      -0.05090347
Pt       2.80721450       3.24149125      22.29206775        3       0.00308423      -0.00091866      -0.05344604
Pt       5.61442762       3.24149123      22.29206790        3       0.00118858      -0.00058532      -0.05208791
Pt       8.42164156       3.24149116      22.29206805        3       0.00054311       0.00045302      -0.05085468
Pt       4.21082094       5.67260998      22.29206797        3       0.00109203      -0.00196933      -0.05359263
Pt       7.01803488       5.67261038      22.29206774        3       0.00089959      -0.00102756      -0.05183737
Pt       9.82524823       5.67261061      22.29206804        3       0.00216039      -0.00165919      -0.05400341
Pt      -0.00000056       1.62074572      24.58417389        2       0.00590872      -0.00281974       0.03986687
Pt       2.80721443       1.62074548      24.58417398        2      -0.00881015      -0.00228910       0.05161574
Pt       5.61442779       1.62074532      24.58417370        2      -0.00652046      -0.00381147       0.03576074
Pt       1.40360636       4.05186439      24.58417390        2      -0.01600795      -0.00719808       0.04379468
Pt       4.21082088       4.05186401      24.58417381        2      -0.00252497       0.00161910       0.02404728
Pt       7.01803503       4.05186407      24.58417407        2      -0.00177997       0.01000301       0.03772883
Pt       2.80721279       6.48298345      24.58417372        2      -0.00306798       0.01476042       0.04362337
Pt       5.61442797       6.48298324      24.58417392        2      -0.00281689       0.00712256       0.05211395
Pt       8.42164222       6.48298343      24.58417383        2      -0.00781643       0.00523124       0.05731988
Pt      -0.00423766       0.00252390      26.92079177        1      -0.00571174       0.00455084      -0.02293951
Pt       2.80066473       0.00278749      26.92305951        1       0.00294313       0.00035682      -0.02898686
Pt       5.60659514       0.00461125      26.92030835        1       0.00867752      -0.00749776      -0.01861929
Pt       1.39853262       2.43372376      26.92193059        1      -0.00599108       0.00297930      -0.02610890
Pt       4.20397295       2.43517727      26.91578707        1      -0.00168744      -0.01264973       0.00158471
Pt       7.01350445       2.43308319      26.91183474        1       0.00195690      -0.00268713       0.01460015
Pt       2.79868637       4.86744267      26.91081717        1       0.00462955      -0.00323589       0.01869743
Pt       5.60787367       4.86484731      26.91732168        1       0.00967518       0.00935399      -0.00469888
Pt       8.41407071       4.86641829      26.92006058        1       0.00990412      -0.00467019      -0.01907537
N        4.90204642       3.64264593      30.83996023        0       0.00662055       0.00590396       0.01389572
H        4.42962579       2.82995157      30.42325892        0      -0.00146480       0.00840367      -0.00574646
H        4.43562659       4.47803927      30.46361919        0      -0.00966965      -0.00730244      -0.00554146
H        5.85828327       3.64956585      30.46251212        0       0.00495223      -0.00636713      -0.00419481
