40
Lattice="8.421641763931781 0.0 0.0 4.2108208819658905 7.293355709136913 0.0 0.0 0.0 46.87624170604845" Properties=species:S:1:pos:R:3:tags:I:1:forces:R:3 charge=0 spin=0 energy=-206.99357105216149 free_energy=-206.99357105216149 stress="0.010039487853646278 1.8304481841369125e-07 -1.4033210149477782e-08 1.8304481841369125e-07 0.010039569810032845 2.1828711282978475e-07 -1.4033210149477782e-08 2.1828711282978475e-07 -0.00017721342737786472" pbc="T T T"
Pt      -0.00000005       0.00000022      19.95723419        4       0.00268745       0.00425045       0.02109093
Pt       2.80721406      -0.00000018      19.95723436        4      -0.00382895       0.00373445       0.02244873
Pt       5.61442778      -0.00000006      19.95723442        4      -0.00000148       0.00000399       0.02427820
Pt       1.40360717       2.43111838      19.95723425        4       0.00000027       0.00000166      -0.04322654
Pt       4.21082080       2.43111835      19.95723435        4      -0.00502202       0.00020545       0.02110794
Pt       7.01803478       2.43111843      19.95723423        4       0.00514278       0.00145851       0.02248062
Pt       2.80721408       4.86223724      19.95723395        4      -0.00131680      -0.00518893       0.02250329
Pt       5.61442803       4.86223730      19.95723413        4      -0.00000185      -0.00000249       0.01846933
Pt       8.42164138       4.86223726      19.95723427        4       0.00234024      -0.00445790       0.02108262
Pt       1.40360728       0.81037260      22.29206790        3      -0.00266785       0.02619897      -0.08330538
Pt       4.21082128       0.81037250      22.29206784        3      -0.00103932      -0.00040492      -0.07535957
Pt       7.01803477       0.81037260      22.29206779        3       0.00020518       0.00109312      -0.07531493
Pt       2.80721450       3.24149125      22.29206775        3      -0.02138328      -0.01537151      -0.08335597
Pt       5.61442762       3.24149123      22.29206790        3      -0.00301338       0.00216895      -0.04453255
Pt       8.42164156       3.24149116      22.29206805        3       0.02404625      -0.01081174      -0.08333834
Pt       4.21082094       5.67260998      22.29206797        3       0.00338656       0.00159078      -0.04459258
Pt       7.01803488       5.67261038      22.29206774        3      -0.00037781      -0.00375377      -0.04462335
Pt       9.82524823       5.67261061      22.29206804        3       0.00084094      -0.00068158      -0.07545927
Pt      -0.00000056       1.62074572      24.58417389        2       0.03516751       0.03074519      -0.06512874
Pt       2.80721443       1.62074548      24.58417398        2      -0.04419286       0.01502449      -0.06502309
Pt       5.61442779       1.62074532      24.58417370        2       0.00732464      -0.01040443       0.01464336
Pt       1.40360636       4.05186439      24.58417390        2       0.00901890      -0.04580114      -0.06488889
Pt       4.21082088       4.05186401      24.58417381        2       0.13947189       0.07625702       0.24127367
Pt       7.01803503       4.05186407      24.58417407        2      -0.13577096       0.08265234       0.24124402
Pt       2.80721279       6.48298345      24.58417372        2      -0.01268195      -0.00109406       0.01478981
Pt       5.61442797       6.48298324      24.58417392        2      -0.00370123      -0.15891375       0.24117400
Pt       8.42164222       6.48298343      24.58417383        2       0.00536000       0.01146957       0.01486872
Pt      -0.00849033       0.01820941      26.90590159        1      -0.01881829       0.01020022      -0.00254674
Pt       2.81367583       0.01361310      26.90866655        1       0.02525050       0.02164525      -0.02084348
Pt       5.61443121      -0.00000977      26.92785541        1      -0.00000721       0.00000818      -0.01782151
Pt       1.40360362       2.43110659      26.92670122        1       0.00000703       0.00001598      -0.00936149
Pt       4.19927563       2.41462623      26.90590762        1       0.00065550      -0.02126973      -0.00253936
Pt       7.02660845       2.41869296      26.90866515        1       0.00602659      -0.03254944      -0.02097664
Pt       2.79217803       4.86100137      26.90866484        1      -0.03127987       0.01102012      -0.02090989
Pt       5.61442706       4.86225601      26.99498177        1       0.00000322      -0.00002650       0.03637263
Pt       8.44167597       4.86047481      26.90590709        1       0.01817373       0.01119120      -0.00255356
N        5.61442859       4.86225692      29.15756244        0      -0.00007507       0.00063130      -0.03627585
H        5.13011717       4.01969945      29.49411419        0       0.02164075       0.03770629       0.00176043
H        5.12695260       5.70288788      29.49436431        0       0.02161974      -0.03725848       0.00099385
H        6.58621461       4.86419437      29.49423904        0      -0.04318947      -0.00128304       0.00139579
