40
Lattice="8.421641763931781 0.0 0.0 4.2108208819658905 7.293355709136913 0.0 0.0 0.0 46.87624170604845" Properties=species:S:1:pos:R:3:tags:I:1:forces:R:3 charge=0 spin=0 energy=-206.42747379264 free_energy=-206.42747379264 stress="0.010509423911571503 1.2577324071116891e-08 3.228632294849376e-08 1.2577324071116891e-08 0.010509357787668705 -3.225318678801159e-08 3.228632294849376e-08 -3.225318678801159e-08 -1.4373040357895661e-05" pbc="T T T"
Pt      -0.00000005       0.00000022      19.95723419        4      -0.00026346      -0.00018663       0.01778462
Pt       2.80721406      -0.00000018      19.95723436        4      -0.00019529      -0.00005749       0.01860419
Pt       5.61442778      -0.00000006      19.95723442        4      -0.00002702       0.00032449       0.01777669
Pt       1.40360717       2.43111838      19.95723425        4       0.00033667       0.00014108       0.01882641
Pt       4.21082080       2.43111835      19.95723435        4      -0.00028670       0.00022029       0.01882145
Pt       7.01803478       2.43111843      19.95723423        4       0.00029281      -0.00013480       0.01777923
Pt       2.80721408       4.86223724      19.95723395        4      -0.00004575      -0.00036413       0.01882175
Pt       5.61442803       4.86223730      19.95723413        4       0.00014412      -0.00014098       0.01859276
Pt       8.42164138       4.86223726      19.95723427        4       0.00004959       0.00019393       0.01859764
Pt       1.40360728       0.81037260      22.29206790        3       0.00010378      -0.00020100      -0.05281022
Pt       4.21082128       0.81037250      22.29206784        3       0.00071167       0.00037751      -0.05321815
Pt       7.01803477       0.81037260      22.29206779        3       0.00000480      -0.00000111      -0.04806095
Pt       2.80721450       3.24149125      22.29206775        3      -0.00000570      -0.00000304      -0.04577115
Pt       5.61442762       3.24149123      22.29206790        3       0.00012883       0.00018472      -0.05284514
Pt       8.42164156       3.24149116      22.29206805        3      -0.00002088      -0.00080395      -0.05323909
Pt       4.21082094       5.67260998      22.29206797        3      -0.00068548       0.00042353      -0.05323347
Pt       7.01803488       5.67261038      22.29206774        3       0.00000067      -0.00001286      -0.05313757
Pt       9.82524823       5.67261061      22.29206804        3      -0.00021592      -0.00000765      -0.05281346
Pt      -0.00000056       1.62074572      24.58417389        2      -0.00011334      -0.00001140       0.05515499
Pt       2.80721443       1.62074548      24.58417398        2       0.00081195       0.00921656       0.04425720
Pt       5.61442779       1.62074532      24.58417370        2       0.00005387      -0.00010376       0.05517777
Pt       1.40360636       4.05186439      24.58417390        2       0.00756868      -0.00532445       0.04421610
Pt       4.21082088       4.05186401      24.58417381        2      -0.00839516      -0.00389790       0.04423241
Pt       7.01803503       4.05186407      24.58417407        2      -0.00085105      -0.00632238       0.04065078
Pt       2.80721279       6.48298345      24.58417372        2       0.00006551       0.00007609       0.05516841
Pt       5.61442797       6.48298324      24.58417392        2      -0.00506392       0.00390860       0.04068346
Pt       8.42164222       6.48298343      24.58417383        2       0.00589491       0.00244405       0.04069444
Pt       0.00151011      -0.00066364      26.92017313        1      -0.01245900       0.00731905      -0.02247861
Pt       2.80708153       0.00288962      26.91398348        1      -0.00112822      -0.01424865       0.00501930
Pt       5.61309153      -0.00097411      26.92017797        1       0.01255474       0.00715221      -0.02254358
Pt       1.40256889       2.43063692      26.92245960        1      -0.00034226       0.00155073      -0.02655304
Pt       4.21176118       2.43046822      26.92246271        1      -0.00115782      -0.00105240      -0.02660234
Pt       7.01785465       2.43276946      26.92015440        1      -0.00009363      -0.01446687      -0.02263615
Pt       2.80730555       4.86338280      26.92246837        1       0.00151773      -0.00048301      -0.02646615
Pt       5.61199374       4.86068490      26.91396938        1       0.01293267       0.00618982       0.00502664
Pt       8.42420486       4.86091727      26.91396908        1      -0.01182629       0.00810152       0.00500868
N        2.80721638       3.24148478      30.84144373        0      -0.00008560       0.00000448      -0.04185332
H        1.97756267       2.78500339      30.44045301        0      -0.03676631      -0.02013296       0.01781193
H        2.82671253       4.18822942      30.44046225        0       0.00095905       0.04195510       0.01778685
H        3.61736711       2.75123169      30.44044823        0       0.03589647      -0.02182621       0.01776893
