40
Lattice="8.421641763931781 0.0 0.0 4.2108208819658905 7.293355709136913 0.0 0.0 0.0 46.87624170604845" Properties=species:S:1:pos:R:3:tags:I:1:forces:R:3 charge=0 spin=0 energy=-206.42471004447106 free_energy=-206.42471004447106 stress="0.010500462725758553 1.7197839042637497e-05 6.073010354157304e-06 1.7197839042637497e-05 0.01047104224562645 3.1000761282484746e-06 6.073010354157304e-06 3.1000761282484746e-06 -9.676684567239136e-05" pbc="T T T"
Pt      -0.00000005       0.00000022      19.95723419        4      -0.00073671      -0.00103856       0.01722296
Pt       2.80721406      -0.00000018      19.95723436        4      -0.00106114      -0.00092440       0.01864098
Pt       5.61442778      -0.00000006      19.95723442        4      -0.00121085      -0.00066197       0.01881059
Pt       1.40360717       2.43111838      19.95723425        4      -0.00101917      -0.00027214       0.01851700
Pt       4.21082080       2.43111835      19.95723435        4      -0.00112188      -0.00096528       0.01889200
Pt       7.01803478       2.43111843      19.95723423        4      -0.00101227      -0.00087725       0.01869480
Pt       2.80721408       4.86223724      19.95723395        4      -0.00152447      -0.00062856       0.01846074
Pt       5.61442803       4.86223730      19.95723413        4      -0.00143071      -0.00074838       0.01729346
Pt       8.42164138       4.86223726      19.95723427        4      -0.00079009      -0.00139175       0.01858551
Pt       1.40360728       0.81037260      22.29206790        3      -0.00443138      -0.00268912      -0.05216581
Pt       4.21082128       0.81037250      22.29206784        3      -0.00448421      -0.00270571      -0.04998257
Pt       7.01803477       0.81037260      22.29206779        3      -0.00546039      -0.00221266      -0.05324262
Pt       2.80721450       3.24149125      22.29206775        3      -0.00446592      -0.00319745      -0.05277780
Pt       5.61442762       3.24149123      22.29206790        3      -0.00590264      -0.00337463      -0.05263905
Pt       8.42164156       3.24149116      22.29206805        3      -0.00558000      -0.00269992      -0.05179632
Pt       4.21082094       5.67260998      22.29206797        3      -0.00603041      -0.00331154      -0.04589933
Pt       7.01803488       5.67261038      22.29206774        3      -0.00378301      -0.00203160      -0.05215475
Pt       9.82524823       5.67261061      22.29206804        3      -0.00443076      -0.00202098      -0.05312161
Pt      -0.00000056       1.62074572      24.58417389        2       0.01436930       0.00848975       0.03037503
Pt       2.80721443       1.62074548      24.58417398        2       0.01783181       0.00627053       0.03451274
Pt       5.61442779       1.62074532      24.58417370        2       0.01096661       0.00938328       0.03403449
Pt       1.40360636       4.05186439      24.58417390        2       0.01762686       0.00871864       0.04286490
Pt       4.21082088       4.05186401      24.58417381        2       0.01187045       0.00801036       0.03954041
Pt       7.01803503       4.05186407      24.58417407        2       0.01256990       0.01019426       0.02987713
Pt       2.80721279       6.48298345      24.58417372        2       0.01490390       0.00441573       0.03603203
Pt       5.61442797       6.48298324      24.58417392        2       0.01098717       0.00542016       0.03192959
Pt       8.42164222       6.48298343      24.58417383        2       0.01520134       0.01121602       0.03284425
Pt       0.01720541       0.01286673      26.91476402        1       0.00304316      -0.01970890       0.00438519
Pt       2.82377262       0.01001742      26.91654894        1      -0.00106977      -0.00034081      -0.00722697
Pt       5.63513139       0.00825001      26.91635577        1      -0.01987568       0.00415825      -0.00406740
Pt       1.42428611       2.44034073      26.91527779        1      -0.01548264       0.00608774       0.00415889
Pt       4.22873444       2.44490654      26.91789706        1      -0.00371388      -0.01898694      -0.00604222
Pt       7.03849883       2.44223986      26.91610792        1      -0.01049650      -0.00494443      -0.00401337
Pt       2.82636524       4.87311033      26.91934443        1      -0.00859555      -0.00329844      -0.01547576
Pt       5.63473499       4.87033635      26.91586789        1      -0.01462698       0.01167504       0.00148895
Pt       8.43934200       4.87471131      26.91458592        1      -0.00096026      -0.01509065       0.00607842
N        4.91773481       1.20277386      30.74901199        0       0.00342045      -0.00664717      -0.03591767
H        5.85731635       1.21682025      30.33100638        0       0.01253296       0.02598469       0.01730871
H        4.43454041       0.39660941      30.33147828        0      -0.02869364       0.00158765       0.01720273
H        4.43334741       2.04274462      30.40443813        0       0.01266703      -0.02084295       0.00877163
