40
Lattice="8.421641763931781 0.0 0.0 4.2108208819658905 7.293355709136913 0.0 0.0 0.0 46.87624170604845" Properties=species:S:1:pos:R:3:tags:I:1:forces:R:3 charge=0 spin=0 energy=-206.42411876639488 free_energy=-206.42411876639488 stress="0.010430313646793365 8.237284276901846e-08 -2.1648185466460745e-08 8.237284276901846e-08 0.010430330410599709 -1.7761529136350873e-08 -2.1648185466460745e-08 -1.7761529136350873e-08 -0.0001785852073226124" pbc="T T T"
Pt      -0.00000005       0.00000022      19.95723419        4       0.00011169       0.00017407       0.01854662
Pt       2.80721406      -0.00000018      19.95723436        4       0.00009276      -0.00017520       0.01853867
Pt       5.61442778      -0.00000006      19.95723442        4       0.00020613       0.00021448       0.01848547
Pt       1.40360717       2.43111838      19.95723425        4      -0.00024790      -0.00047869       0.01783087
Pt       4.21082080       2.43111835      19.95723435        4       0.00007507      -0.00027991       0.01850345
Pt       7.01803478       2.43111843      19.95723423        4      -0.00028139       0.00007617       0.01850693
Pt       2.80721408       4.86223724      19.95723395        4       0.00054038       0.00002258       0.01783237
Pt       5.61442803       4.86223730      19.95723413        4      -0.00020485       0.00000194       0.01855321
Pt       8.42164138       4.86223726      19.95723427        4      -0.00028853       0.00045057       0.01782750
Pt       1.40360728       0.81037260      22.29206790        3      -0.00088346       0.00078749      -0.04909817
Pt       4.21082128       0.81037250      22.29206784        3       0.00000190       0.00045461      -0.05297130
Pt       7.01803477       0.81037260      22.29206779        3      -0.00038395      -0.00021572      -0.05295708
Pt       2.80721450       3.24149125      22.29206775        3       0.00065016      -0.00005076      -0.05219936
Pt       5.61442762       3.24149123      22.29206790        3       0.00039285      -0.00022695      -0.05293186
Pt       8.42164156       3.24149116      22.29206805        3      -0.00036859      -0.00053774      -0.05219725
Pt       4.21082094       5.67260998      22.29206797        3      -0.00023719      -0.00114723      -0.04909393
Pt       7.01803488       5.67261038      22.29206774        3       0.00112158       0.00037223      -0.04910161
Pt       9.82524823       5.67261061      22.29206804        3      -0.00027112       0.00059357      -0.05222778
Pt      -0.00000056       1.62074572      24.58417389        2       0.00879239      -0.00429594       0.03282563
Pt       2.80721443       1.62074548      24.58417398        2      -0.00840246      -0.00305134       0.02660639
Pt       5.61442779       1.62074532      24.58417370        2      -0.00001467       0.00003379      -0.00174610
Pt       1.40360636       4.05186439      24.58417390        2       0.00000506      -0.00004636       0.03960874
Pt       4.21082088       4.05186401      24.58417381        2      -0.00069414       0.00973313       0.03279712
Pt       7.01803503       4.05186407      24.58417407        2       0.00153138       0.00877820       0.02657997
Pt       2.80721279       6.48298345      24.58417372        2       0.00684905      -0.00575425       0.02655321
Pt       5.61442797       6.48298324      24.58417392        2      -0.00001310      -0.00000908       0.00466547
Pt       8.42164222       6.48298343      24.58417383        2      -0.00812605      -0.00546523       0.03278793
Pt       0.00460276      -0.00385410      26.91732331        1      -0.03701249       0.03136573      -0.00143174
Pt       2.80156939      -0.00208289      26.91732149        1       0.04569775       0.01641191      -0.00141687
Pt       5.61487723       0.00206341      26.90687169        1      -0.00336755      -0.02338050       0.03483722
Pt       1.40580613       2.42964558      26.91764492        1      -0.01021067       0.02063019      -0.01099019
Pt       4.21237722       2.42968121      26.90690380        1      -0.01856759       0.01457781       0.03469407
Pt       7.01600658       2.43046648      26.90689847        1       0.02191734       0.00878797       0.03472143
Pt       2.80736391       4.86486555      26.91761352        1      -0.01277185      -0.01916618      -0.01088945
Pt       5.61543984       4.86814275      26.91732180        1      -0.00861983      -0.04775277      -0.00143787
Pt       8.41926485       4.86103674      26.91760873        1       0.02298030      -0.00143583      -0.01085608
N        5.61448393       6.48303648      30.81910964        0       0.00004225       0.00008122      -0.00106747
H        5.41157099       7.41038401      30.42414269        0      -0.00496001       0.01579372       0.00378941
H        6.51907925       6.19512227      30.42419186        0       0.01604190      -0.00381157       0.00377418
H        4.91285123       5.84361163      30.42414511        0      -0.01112274      -0.01205991       0.00374814
