40
Lattice="8.421641763931781 0.0 0.0 4.2108208819658905 7.293355709136913 0.0 0.0 0.0 46.87624170604845" Properties=species:S:1:pos:R:3:tags:I:1:forces:R:3 charge=0 spin=0 energy=-206.42616344412926 free_energy=-206.42616344412926 stress="0.010511226952075958 -3.373811239271163e-07 -2.0760754892990008e-08 -3.373811239271163e-07 0.010511486791074276 -4.5275234583641577e-07 -2.0760754892990008e-08 -4.5275234583641577e-07 -1.7154938177554868e-05" pbc="T T T"
Pt      -0.00000005       0.00000022      19.95723419        4       0.00047973      -0.00051942       0.01859032
Pt       2.80721406      -0.00000018      19.95723436        4      -0.00069274      -0.00014732       0.01858750
Pt       5.61442778      -0.00000006      19.95723442        4      -0.00028879      -0.00003113       0.01786339
Pt       1.40360717       2.43111838      19.95723425        4      -0.00004213       0.00012650       0.01876403
Pt       4.21082080       2.43111835      19.95723435        4       0.00011234       0.00026581       0.01787448
Pt       7.01803478       2.43111843      19.95723423        4       0.00017021      -0.00021582       0.01788432
Pt       2.80721408       4.86223724      19.95723395        4      -0.00008845      -0.00009991       0.01876462
Pt       5.61442803       4.86223730      19.95723413        4       0.00021804       0.00066951       0.01858046
Pt       8.42164138       4.86223726      19.95723427        4       0.00012770      -0.00002351       0.01876625
Pt       1.40360728       0.81037260      22.29206790        3       0.00049270       0.00081612      -0.05145353
Pt       4.21082128       0.81037250      22.29206784        3      -0.00033133      -0.00015087      -0.05111779
Pt       7.01803477       0.81037260      22.29206779        3       0.00029078      -0.00023465      -0.05112627
Pt       2.80721450       3.24149125      22.29206775        3      -0.00008962       0.00058979      -0.05240050
Pt       5.61442762       3.24149123      22.29206790        3       0.00000933       0.00040533      -0.05106277
Pt       8.42164156       3.24149116      22.29206805        3       0.00056915      -0.00019706      -0.05234786
Pt       4.21082094       5.67260998      22.29206797        3      -0.00093093       0.00004504      -0.05149437
Pt       7.01803488       5.67261038      22.29206774        3       0.00041681      -0.00080875      -0.05145434
Pt       9.82524823       5.67261061      22.29206804        3      -0.00045429      -0.00034149      -0.05236174
Pt      -0.00000056       1.62074572      24.58417389        2       0.00369267      -0.00138238       0.04553654
Pt       2.80721443       1.62074548      24.58417398        2      -0.00136750      -0.00233688       0.04506835
Pt       5.61442779       1.62074532      24.58417370        2       0.00000193      -0.00008242       0.03843208
Pt       1.40360636       4.05186439      24.58417390        2      -0.00003915       0.00010638       0.04546951
Pt       4.21082088       4.05186401      24.58417381        2      -0.00084292       0.00395162       0.04581838
Pt       7.01803503       4.05186407      24.58417407        2      -0.00104486       0.00240557       0.04521050
Pt       2.80721279       6.48298345      24.58417372        2       0.00259619      -0.00029504       0.04523978
Pt       5.61442797       6.48298324      24.58417392        2       0.00000741      -0.00004449       0.05688583
Pt       8.42164222       6.48298343      24.58417383        2      -0.00294453      -0.00282146       0.04585536
Pt      -0.00023901       0.00126504      26.91949868        1       0.00463224      -0.00536013      -0.01749713
Pt       2.80853554      -0.00057836      26.91951308        1      -0.00726045      -0.00085270      -0.01754520
Pt       5.61467602      -0.00234761      26.91609667        1       0.00033880       0.01352170      -0.00369995
Pt       1.40426569       2.42974151      26.92034827        1      -0.00344503       0.00154199      -0.01970205
Pt       4.20873050       2.43198819      26.91605873        1       0.01158977      -0.00708581      -0.00372851
Pt       7.01990207       2.43241989      26.91605431        1      -0.01192385      -0.00650249      -0.00368055
Pt       2.80798036       4.86337712      26.92049305        1       0.00045152      -0.00372803      -0.02010090
Pt       5.61338480       4.86130001      26.91948988        1       0.00263487       0.00669573      -0.01764696
Pt       8.42023793       4.86224730      26.92054336        1       0.00295792       0.00222016      -0.02019379
N        9.82526390       4.04817321      30.84495839        0       0.00005242       0.00141149      -0.03884883
H        8.87796326       4.04873618      30.44467815        0      -0.03455368      -0.00004230       0.01606346
H       10.29477522       4.87600758      30.45529240        0       0.01893576       0.02918050       0.01634054
H       10.30300971       3.23540058      30.43411458        0       0.01556185      -0.03064915       0.01586717
