40
Lattice="8.421641763931781 0.0 0.0 4.2108208819658905 7.293355709136913 0.0 0.0 0.0 46.87624170604845" Properties=species:S:1:pos:R:3:tags:I:1:forces:R:3 charge=0 spin=0 energy=-206.42411685904625 free_energy=-206.42411685904625 stress="0.010515134781599045 -9.573034809307046e-09 -4.0681946700260596e-08 -9.573034809307046e-09 0.010515193454921246 6.790880746621042e-08 -4.0681946700260596e-08 6.790880746621042e-08 -1.8656324755284004e-05" pbc="T T T"
Pt      -0.00000005       0.00000022      19.95723419        4       0.00020326       0.00076018       0.01856939
Pt       2.80721406      -0.00000018      19.95723436        4       0.00028898      -0.00013989       0.01875540
Pt       5.61442778      -0.00000006      19.95723442        4      -0.00027283      -0.00017463       0.01874174
Pt       1.40360717       2.43111838      19.95723425        4      -0.00075697      -0.00020686       0.01857684
Pt       4.21082080       2.43111835      19.95723435        4      -0.00017218       0.00001131       0.01788053
Pt       7.01803478       2.43111843      19.95723423        4       0.00055402      -0.00055303       0.01857257
Pt       2.80721408       4.86223724      19.95723395        4       0.00009599       0.00014017       0.01788663
Pt       5.61442803       4.86223730      19.95723413        4       0.00007657      -0.00015692       0.01788738
Pt       8.42164138       4.86223726      19.95723427        4      -0.00001944       0.00031709       0.01876365
Pt       1.40360728       0.81037260      22.29206790        3       0.00041701      -0.00078467      -0.05117489
Pt       4.21082128       0.81037250      22.29206784        3      -0.00038537      -0.00014320      -0.05171311
Pt       7.01803477       0.81037260      22.29206779        3      -0.00089715       0.00003637      -0.05118244
Pt       2.80721450       3.24149125      22.29206775        3      -0.00010195      -0.00016124      -0.05198848
Pt       5.61442762       3.24149123      22.29206790        3       0.00018632       0.00000312      -0.05199482
Pt       8.42164156       3.24149116      22.29206805        3       0.00047583       0.00076295      -0.05116419
Pt       4.21082094       5.67260998      22.29206797        3      -0.00009672       0.00017132      -0.05200311
Pt       7.01803488       5.67261038      22.29206774        3       0.00031619      -0.00024855      -0.05170666
Pt       9.82524823       5.67261061      22.29206804        3       0.00006350       0.00039583      -0.05170931
Pt      -0.00000056       1.62074572      24.58417389        2       0.00000097       0.00001389       0.05538551
Pt       2.80721443       1.62074548      24.58417398        2      -0.00369350      -0.00665541       0.04400861
Pt       5.61442779       1.62074532      24.58417370        2       0.00310785      -0.00503883       0.04311732
Pt       1.40360636       4.05186439      24.58417390        2      -0.00589691      -0.00015894       0.04310922
Pt       4.21082088       4.05186401      24.58417381        2       0.00000638       0.00000707       0.03607472
Pt       7.01803503       4.05186407      24.58417407        2       0.00759600       0.00013685       0.04398828
Pt       2.80721279       6.48298345      24.58417372        2      -0.00389708       0.00653847       0.04401704
Pt       5.61442797       6.48298324      24.58417392        2       0.00280071       0.00521934       0.04310129
Pt       8.42164222       6.48298343      24.58417383        2      -0.00000470       0.00000103       0.05911915
Pt      -0.00019322      -0.00198387      26.91818120        1       0.00086188       0.01246725      -0.01251084
Pt       2.80536438       0.00115781      26.92336721        1       0.00931122      -0.00368059      -0.03208861
Pt       5.61635144       0.00102799      26.92336788        1      -0.00781404      -0.00627327      -0.03205451
Pt       1.40542314       2.43194817      26.91818465        1      -0.01125259      -0.00550069      -0.01236757
Pt       4.21141139       2.42738100      26.91430715        1      -0.00133861       0.02057487       0.00394647
Pt       7.01641033       2.43228101      26.91818573        1       0.01039390      -0.00698041      -0.01232213
Pt       2.80367861       4.86359854      26.91430347        1       0.01850250      -0.00914712       0.00385807
Pt       5.61737124       4.86462143      26.91430416        1      -0.01716501      -0.01145850       0.00386795
Pt       8.42156610       4.86006158      26.92336732        1      -0.00149795       0.00991007      -0.03197890
N        8.42164008       6.48297730      30.84225524        0       0.00007728      -0.00006061      -0.02905450
H        8.41456828       7.43100739      30.44371036        0      -0.00031037       0.02315651       0.01258383
H        9.24619510       6.01508792      30.44370298        0       0.02012955      -0.01126740       0.01261807
H        7.60415893       6.00283862      30.44370575        0      -0.01989265      -0.01183305       0.01258408
