40
Lattice="8.421641763931781 0.0 0.0 4.2108208819658905 7.293355709136913 0.0 0.0 0.0 46.87624170604845" Properties=species:S:1:pos:R:3:tags:I:1:forces:R:3 charge=0 spin=0 energy=-206.41997600516441 free_energy=-206.41997600516441 stress="0.010521077550947666 -7.337922579608858e-05 1.6281322814393206e-06 -7.337922579608858e-05 0.010410417802631855 2.6200741558568552e-05 1.6281322814393206e-06 2.6200741558568552e-05 -0.00017290792311541736" pbc="T T T"
Pt      -0.00000005       0.00000022      19.95723419        4       0.00257762      -0.00191632       0.01854781
Pt       2.80721406      -0.00000018      19.95723436        4       0.00289512      -0.00157914       0.01854776
Pt       5.61442778      -0.00000006      19.95723442        4       0.00251076      -0.00153668       0.01841051
Pt       1.40360717       2.43111838      19.95723425        4       0.00288792      -0.00249699       0.01822749
Pt       4.21082080       2.43111835      19.95723435        4       0.00249911      -0.00183889       0.01841144
Pt       7.01803478       2.43111843      19.95723423        4       0.00219746      -0.00188980       0.01740165
Pt       2.80721408       4.86223724      19.95723395        4       0.00274900      -0.00172885       0.01881971
Pt       5.61442803       4.86223730      19.95723413        4       0.00240830      -0.00156887       0.01829819
Pt       8.42164138       4.86223726      19.95723427        4       0.00280258      -0.00154042       0.01754194
Pt       1.40360728       0.81037260      22.29206790        3       0.00805388      -0.00861283      -0.05282005
Pt       4.21082128       0.81037250      22.29206784        3       0.00922453      -0.00945720      -0.05075319
Pt       7.01803477       0.81037260      22.29206779        3       0.00954261      -0.00998981      -0.05069509
Pt       2.80721450       3.24149125      22.29206775        3       0.00879984      -0.00838678      -0.05382728
Pt       5.61442762       3.24149123      22.29206790        3       0.00846722      -0.00781491      -0.05094295
Pt       8.42164156       3.24149116      22.29206805        3       0.01103977      -0.00899485      -0.04911587
Pt       4.21082094       5.67260998      22.29206797        3       0.00911122      -0.00854823      -0.05129728
Pt       7.01803488       5.67261038      22.29206774        3       0.00777500      -0.00885953      -0.05202359
Pt       9.82524823       5.67261061      22.29206804        3       0.01014080      -0.01011172      -0.05148610
Pt      -0.00000056       1.62074572      24.58417389        2      -0.02929748       0.02699236       0.02524932
Pt       2.80721443       1.62074548      24.58417398        2      -0.02305877       0.02375370       0.03400792
Pt       5.61442779       1.62074532      24.58417370        2      -0.02599362       0.02647904       0.02880275
Pt       1.40360636       4.05186439      24.58417390        2      -0.02583216       0.02954044       0.03096514
Pt       4.21082088       4.05186401      24.58417381        2      -0.02557028       0.02284539       0.02377666
Pt       7.01803503       4.05186407      24.58417407        2      -0.02478765       0.02369877       0.02423699
Pt       2.80721279       6.48298345      24.58417372        2      -0.03071031       0.02446082       0.00835292
Pt       5.61442797       6.48298324      24.58417392        2      -0.02064560       0.02911061       0.02282371
Pt       8.42164222       6.48298343      24.58417383        2      -0.02877864       0.02554333       0.02984273
Pt      -0.03634988       0.03076000      26.91365483        1       0.02786077       0.01425818       0.01029096
Pt       2.77149225       0.03289204      26.91714185        1       0.01782090      -0.00849372      -0.00220487
Pt       5.58072033       0.03323502      26.91501360        1      -0.00761911      -0.00664912       0.00726328
Pt       1.36732376       2.46414973      26.91249122        1       0.01254679      -0.01467035       0.01091513
Pt       4.17466435       2.46529152      26.91571220        1       0.01237762      -0.02227732       0.00401797
Pt       6.98082592       2.46457217      26.91514497        1       0.02043273      -0.00942758       0.00332686
Pt       2.77252902       4.89758179      26.91510503        1      -0.00385545      -0.03708842       0.01497653
Pt       5.57703770       4.89623506      26.91512735        1       0.03109990      -0.02626249       0.00882623
Pt       8.38400807       4.89771125      26.91483772        1       0.01882553      -0.02391371       0.00578340
N        3.57811903       6.12570253      30.81714707        0      -0.00433635      -0.01342111       0.01168610
H        3.03972151       6.84847046      30.32131177        0       0.03120199      -0.00725732      -0.00224064
H        4.46687549       6.01927468      30.31054359        0      -0.01519932       0.02861391      -0.00286100
H        3.06591850       5.24368150      30.68902968        0      -0.01216434      -0.00896338       0.00091695
