40
Lattice="8.421641763931781 0.0 0.0 4.2108208819658905 7.293355709136913 0.0 0.0 0.0 46.87624170604845" Properties=species:S:1:pos:R:3:tags:I:1:forces:R:3 charge=0 spin=0 energy=-206.99323345145348 free_energy=-206.99323345145348 stress="0.01000017300248146 -6.254646933712138e-08 3.5386813479476587e-09 -6.254646933712138e-08 0.010000191628932953 -2.9638757226280177e-08 3.5386813479476587e-09 -2.9638757226280177e-08 -0.00027019731351174414" pbc="T T T"
Pt      -0.00000005       0.00000022      19.95723419        4       0.00261030       0.00443714       0.02149337
Pt       2.80721406      -0.00000018      19.95723436        4      -0.00376649       0.00387457       0.02209120
Pt       5.61442778      -0.00000006      19.95723442        4      -0.00000075       0.00000319       0.02420634
Pt       1.40360717       2.43111838      19.95723425        4       0.00000062       0.00000158      -0.04378921
Pt       4.21082080       2.43111835      19.95723435        4      -0.00514605       0.00004434       0.02151059
Pt       7.01803478       2.43111843      19.95723423        4       0.00523481       0.00133276       0.02212362
Pt       2.80721408       4.86223724      19.95723395        4      -0.00147139      -0.00520621       0.02214614
Pt       5.61442803       4.86223730      19.95723413        4      -0.00000180      -0.00000283       0.01852709
Pt       8.42164138       4.86223726      19.95723427        4       0.00254125      -0.00448484       0.02148285
Pt       1.40360728       0.81037260      22.29206790        3      -0.00153456       0.02691124      -0.08492406
Pt       4.21082128       0.81037250      22.29206784        3      -0.00171618      -0.00146500      -0.07478184
Pt       7.01803477       0.81037260      22.29206779        3      -0.00037725       0.00220900      -0.07472728
Pt       2.80721450       3.24149125      22.29206775        3      -0.02256958      -0.01475064      -0.08498733
Pt       5.61442762       3.24149123      22.29206790        3      -0.00224061       0.00199869      -0.04517451
Pt       8.42164156       3.24149116      22.29206805        3       0.02409892      -0.01215274      -0.08497287
Pt       4.21082094       5.67260998      22.29206797        3       0.00285460       0.00100220      -0.04522289
Pt       7.01803488       5.67261038      22.29206774        3      -0.00061766      -0.00300608      -0.04525915
Pt       9.82524823       5.67261061      22.29206804        3       0.00209861      -0.00074392      -0.07487669
Pt      -0.00000056       1.62074572      24.58417389        2       0.04038174       0.02599642      -0.07154924
Pt       2.80721443       1.62074548      24.58417398        2      -0.04269016       0.02191288      -0.07144347
Pt       5.61442779       1.62074532      24.58417370        2       0.00378861      -0.00556600       0.00716240
Pt       1.40360636       4.05186439      24.58417390        2       0.00230671      -0.04792623      -0.07127554
Pt       4.21082088       4.05186401      24.58417381        2       0.14026481       0.07532682       0.24294874
Pt       7.01803503       4.05186407      24.58417407        2      -0.13532063       0.08386147       0.24291284
Pt       2.80721279       6.48298345      24.58417372        2      -0.00671780      -0.00045137       0.00734694
Pt       5.61442797       6.48298324      24.58417392        2      -0.00494748      -0.15915388       0.24293853
Pt       8.42164222       6.48298343      24.58417383        2       0.00293595       0.00597804       0.00741517
Pt      -0.00877872       0.01735370      26.90740525        1      -0.01092527       0.00717108      -0.01086522
Pt       2.81614340       0.01663458      26.90624939        1       0.01228532       0.00785637      -0.00951021
Pt       5.61442985       0.00000143      26.92363848        1       0.00000326      -0.00000856       0.00333642
Pt       1.40360550       2.43111472      26.92577420        1       0.00000194       0.00000678      -0.00875400
Pt       4.20016971       2.41483595      26.90739691        1      -0.00072306      -0.01307567      -0.01080774
Pt       7.02798565       2.41507703      26.90623669        1       0.00062429      -0.01458195      -0.00957935
Pt       2.78834070       4.86164040      26.90625836        1      -0.01293355       0.00672890      -0.00959432
Pt       5.61442968       4.86223654      26.99493274        1      -0.00000323      -0.00000183      -0.02622602
Pt       8.44107059       4.86116205      26.90741893        1       0.01166947       0.00591953      -0.01089541
N        5.61442723       4.86223370      29.14527204        0       0.00006471       0.00004470       0.04862626
H        6.45486419       5.34686459      29.48564103        0      -0.01548109      -0.00894853      -0.00236337
H        5.61391142       3.89208177      29.48564434        0      -0.00001376       0.01781243      -0.00234785
H        4.77450848       5.34775881      29.48564162        0       0.01543233      -0.00890371      -0.00234131
