40
Lattice="8.421641763931781 0.0 0.0 4.2108208819658905 7.293355709136913 0.0 0.0 0.0 46.87624170604845" Properties=species:S:1:pos:R:3:tags:I:1:forces:R:3 charge=0 spin=0 energy=-206.9926421733773 free_energy=-206.9926421733773 stress="0.010042608715593815 -6.70715394335275e-08 -6.245164829721261e-09 -6.70715394335275e-08 0.010042622685432434 -5.828329818768907e-08 -6.245164829721261e-09 -5.828329818768907e-08 -0.00017181102884933352" pbc="T T T"
Pt      -0.00000005       0.00000022      19.95723419        4      -0.00108936      -0.00537750       0.02213058
Pt       2.80721406      -0.00000018      19.95723436        4      -0.00000246       0.00000276       0.01864552
Pt       5.61442778      -0.00000006      19.95723442        4       0.00221230      -0.00451535       0.02144084
Pt       1.40360717       2.43111838      19.95723425        4       0.00280334       0.00417349       0.02146177
Pt       4.21082080       2.43111835      19.95723435        4      -0.00410368       0.00363176       0.02207748
Pt       7.01803478       2.43111843      19.95723423        4      -0.00000169       0.00000161       0.02424444
Pt       2.80721408       4.86223724      19.95723395        4       0.00000137      -0.00000325      -0.04309971
Pt       5.61442803       4.86223730      19.95723413        4      -0.00501786       0.00034351       0.02147806
Pt       8.42164138       4.86223726      19.95723427        4       0.00519812       0.00174266       0.02210689
Pt       1.40360728       0.81037260      22.29206790        3       0.00237161       0.00126917      -0.04392892
Pt       4.21082128       0.81037250      22.29206784        3      -0.00014793      -0.00270642      -0.04396535
Pt       7.01803477       0.81037260      22.29206779        3       0.00201169      -0.00081858      -0.07691183
Pt       2.80721450       3.24149125      22.29206775        3      -0.00179500       0.02659988      -0.08267763
Pt       5.61442762       3.24149123      22.29206790        3      -0.00174862      -0.00135760      -0.07681354
Pt       8.42164156       3.24149116      22.29206805        3      -0.00025413       0.00218197      -0.07676379
Pt       4.21082094       5.67260998      22.29206797        3      -0.02216908      -0.01481471      -0.08272816
Pt       7.01803488       5.67261038      22.29206774        3      -0.00223325       0.00143965      -0.04386896
Pt       9.82524823       5.67261061      22.29206804        3       0.02396270      -0.01178932      -0.08271677
Pt      -0.00000056       1.62074572      24.58417389        2      -0.00978807       0.00086025       0.01256274
Pt       2.80721443       1.62074548      24.58417398        2      -0.00401721      -0.15918136       0.24256507
Pt       5.61442779       1.62074532      24.58417370        2       0.00559481       0.00801555       0.01263122
Pt       1.40360636       4.05186439      24.58417390        2       0.03841592       0.02434404      -0.06184461
Pt       4.21082088       4.05186401      24.58417381        2      -0.04026606       0.02103941      -0.06173931
Pt       7.01803503       4.05186407      24.58417407        2       0.00419316      -0.00887511       0.01238827
Pt       2.80721279       6.48298345      24.58417372        2       0.00186151      -0.04540774      -0.06159816
Pt       5.61442797       6.48298324      24.58417392        2       0.13984011       0.07613061       0.24256989
Pt       8.42164222       6.48298343      24.58417383        2      -0.13583294       0.08306093       0.24254076
Pt      -0.01775722      -0.00108477      26.90739013        1      -0.02555025       0.01052119      -0.01285802
Pt       2.80721420       0.00000018      26.99511567        1       0.00000348       0.00000832       0.03556924
Pt       5.63172216      -0.00151701      26.90783605        1       0.02544509       0.00968543      -0.01309688
Pt       1.39627852       2.44685231      26.90783763        1      -0.02110541       0.01719872      -0.01312084
Pt       4.21877300       2.44703669      26.90739749        1       0.02189302       0.01686801      -0.01282541
Pt       7.01803803       2.43111751      26.92644874        1       0.00000123      -0.00000373      -0.01634372
Pt       2.80721110       4.86223512      26.92736283        1      -0.00000084       0.00000068      -0.00955943
Pt       5.60446308       4.84801753      26.90783166        1      -0.00434023      -0.02687304      -0.01306214
Pt       8.43144887       4.84740053      26.90738400        1       0.00365708      -0.02739261      -0.01289352
N        2.80721533       0.00000073      29.15796012        0      -0.00005717      -0.00005303      -0.03662542
H        2.80782095       0.97173393      29.49462712        0      -0.00005230      -0.04397949       0.00155324
H        3.64845740      -0.48639189      29.49462659        0      -0.03807250       0.02205077       0.00154786
H        1.96536433      -0.48534136      29.49462617        0       0.03817948       0.02197855       0.00152809
