36
Lattice="8.421641763931781 0.0 0.0 4.2108208819658905 7.293355709136913 0.0 0.0 0.0 46.87624170604845" Properties=species:S:1:pos:R:3:tags:I:1:forces:R:3 charge=0 spin=0 energy=-186.93033381965532 free_energy=-186.93033381965532 stress="0.00856211967766285 -2.121988806891295e-09 -2.384197839155888e-10 -2.121988806891295e-09 0.008562121540307999 -2.134348697779842e-09 -2.384197839155888e-10 -2.134348697779842e-09 -0.0033283426892012358" pbc="T T T"
Pt       0.00000000       0.00000000      20.00000000        4       0.00000205      -0.00000293      -0.22563674
Pt       2.80721392       0.00000000      20.00000000        4       0.00000027      -0.00000214      -0.22563583
Pt       5.61442784       0.00000000      20.00000000        4      -0.00000253      -0.00000135      -0.22563508
Pt       1.40360696       2.43111857      20.00000000        4       0.00000120       0.00000006      -0.22563803
Pt       4.21082088       2.43111857      20.00000000        4       0.00000189       0.00000012      -0.22563611
Pt       7.01803480       2.43111857      20.00000000        4      -0.00000255      -0.00000025      -0.22563812
Pt       2.80721392       4.86223714      20.00000000        4       0.00000079       0.00000098      -0.22563757
Pt       5.61442784       4.86223714      20.00000000        4      -0.00000231       0.00000165      -0.22563598
Pt       8.42164176       4.86223714      20.00000000        4       0.00000143       0.00000263      -0.22563738
Pt       1.40360696       0.81037286      22.29208057        3       0.00000145      -0.00000387       0.21236134
Pt       4.21082088       0.81037286      22.29208057        3       0.00000369      -0.00000313       0.21236086
Pt       7.01803480       0.81037286      22.29208057        3      -0.00000393      -0.00000293       0.21236154
Pt       2.80721392       3.24149143      22.29208057        3       0.00000093      -0.00000075       0.21235913
Pt       5.61442784       3.24149143      22.29208057        3      -0.00000341       0.00000011       0.21236055
Pt       8.42164176       3.24149143      22.29208057        3       0.00000269       0.00000090       0.21236099
Pt       4.21082088       5.67261000      22.29208057        3       0.00000482       0.00000159       0.21235870
Pt       7.01803480       5.67261000      22.29208057        3      -0.00000231       0.00000347       0.21235974
Pt       9.82524872       5.67261000      22.29208057        3      -0.00000259       0.00000395       0.21236129
Pt       0.00000000       1.62074571      24.58416114        2       0.00000320      -0.00000152      -0.21236046
Pt       2.80721392       1.62074571      24.58416114        2       0.00000092      -0.00000287      -0.21235998
Pt       5.61442784       1.62074571      24.58416114        2      -0.00000300      -0.00000311      -0.21236071
Pt       1.40360696       4.05186428      24.58416114        2      -0.00000295       0.00000157      -0.21236056
Pt       4.21082088       4.05186428      24.58416114        2       0.00000484      -0.00000005      -0.21235989
Pt       7.01803480       4.05186428      24.58416114        2      -0.00000248       0.00000014      -0.21236068
Pt       2.80721392       6.48298285      24.58416114        2      -0.00000714       0.00000226      -0.21236083
Pt       5.61442784       6.48298285      24.58416114        2      -0.00000173       0.00000227      -0.21236086
Pt       8.42164176       6.48298285      24.58416114        2       0.00000525       0.00000382      -0.21235976
Pt       0.00000000       0.00000000      26.87624171        1       0.00000260      -0.00000209       0.22563732
Pt       2.80721392       0.00000000      26.87624171        1       0.00000058      -0.00000143       0.22563598
Pt       5.61442784       0.00000000      26.87624171        1      -0.00000212      -0.00000205       0.22563441
Pt       1.40360696       2.43111857      26.87624171        1       0.00000123      -0.00000027       0.22563820
Pt       4.21082088       2.43111857      26.87624171        1       0.00000204      -0.00000039       0.22563641
Pt       7.01803480       2.43111857      26.87624171        1      -0.00000246       0.00000009       0.22563824
Pt       2.80721392       4.86223714      26.87624171        1       0.00000036       0.00000172       0.22563738
Pt       5.61442784       4.86223714      26.87624171        1      -0.00000226       0.00000105       0.22563586
Pt       8.42164176       4.86223714      26.87624171        1       0.00000162       0.00000277       0.22563691
