36
Lattice="8.421641763931781 0.0 0.0 4.2108208819658905 7.293355709136913 0.0 0.0 0.0 46.87624170604845" Properties=species:S:1:pos:R:3:tags:I:1:forces:R:3 charge=0 spin=0 energy=-187.00367709663286 free_energy=-187.00367709663286 stress="0.010496623814105988 4.621824256645368e-09 5.496592070386441e-10 4.621824256645368e-09 0.010496651753783226 1.3662648790102594e-10 5.496592070386441e-10 1.3662648790102594e-10 4.618333332473412e-05" pbc="T T T"
Pt      -0.00000010      -0.00000005      19.95723451        4      -0.00000115       0.00000324       0.01626881
Pt       2.80721394      -0.00000020      19.95723457        4      -0.00000035       0.00000327       0.01627057
Pt       5.61442787      -0.00000008      19.95723465        4       0.00000011       0.00000300       0.01627042
Pt       1.40360721       2.43111841      19.95723445        4       0.00000028       0.00000186       0.01627336
Pt       4.21082082       2.43111837      19.95723453        4       0.00000190      -0.00000025       0.01627222
Pt       7.01803480       2.43111844      19.95723439        4      -0.00000116      -0.00000046       0.01627292
Pt       2.80721416       4.86223734      19.95723425        4      -0.00000307      -0.00000346       0.01627843
Pt       5.61442796       4.86223739      19.95723443        4       0.00000025      -0.00000460       0.01626840
Pt       8.42164143       4.86223725      19.95723447        4       0.00000328      -0.00000334       0.01627131
Pt       1.40360729       0.81037262      22.29206795        3      -0.00000049       0.00000179      -0.04297804
Pt       4.21082131       0.81037249      22.29206793        3      -0.00000082       0.00000545      -0.04298224
Pt       7.01803470       0.81037255      22.29206785        3       0.00000010       0.00000184      -0.04298123
Pt       2.80721448       3.24149122      22.29206774        3      -0.00000671       0.00000379      -0.04298159
Pt       5.61442764       3.24149121      22.29206791        3       0.00000273       0.00000059      -0.04297997
Pt       8.42164154       3.24149129      22.29206806        3       0.00000385       0.00000137      -0.04298105
Pt       4.21082091       5.67260997      22.29206741        3      -0.00000367       0.00000136      -0.04296220
Pt       7.01803487       5.67261038      22.29206779        3      -0.00000280      -0.00000292      -0.04297699
Pt       9.82524821       5.67261068      22.29206808        3       0.00000918      -0.00001042      -0.04298211
Pt      -0.00000053       1.62074567      24.58417372        2       0.00000458      -0.00000276       0.04298443
Pt       2.80721436       1.62074552      24.58417391        2      -0.00000524       0.00000187       0.04298317
Pt       5.61442781       1.62074537      24.58417374        2      -0.00000218       0.00000517       0.04298165
Pt       1.40360639       4.05186438      24.58417385        2       0.00000809       0.00000124       0.04298259
Pt       4.21082087       4.05186396      24.58417384        2      -0.00000191       0.00000736       0.04297824
Pt       7.01803504       4.05186408      24.58417403        2      -0.00000394       0.00000361       0.04297854
Pt       2.80721276       6.48298348      24.58417381        2       0.00001521      -0.00001120       0.04297887
Pt       5.61442804       6.48298329      24.58417396        2      -0.00000718      -0.00000300       0.04297737
Pt       8.42164223       6.48298338      24.58417376        2      -0.00000829      -0.00000557       0.04298229
Pt       0.00000040       0.00000002      26.91900738        1       0.00000124       0.00000066      -0.01627949
Pt       2.80721395      -0.00000013      26.91900717        1      -0.00000030       0.00000322      -0.01627127
Pt       5.61442780      -0.00000003      26.91900702        1      -0.00000110       0.00000145      -0.01626912
Pt       1.40360732       2.43111849      26.91900734        1       0.00000047       0.00000076      -0.01628013
Pt       4.21082087       2.43111855      26.91900714        1       0.00000099       0.00000041      -0.01627211
Pt       7.01803488       2.43111865      26.91900720        1      -0.00000030      -0.00000184      -0.01627054
Pt       2.80721396       4.86223724      26.91900746        1      -0.00000353      -0.00000208      -0.01628153
Pt       5.61442797       4.86223736      26.91900723        1      -0.00000182      -0.00000156      -0.01627239
Pt       8.42164127       4.86223710      26.91900726        1       0.00000396       0.00000014      -0.01627133
