31
Lattice="8.421641763931781 0.0 0.0 4.2108208819658905 7.293355709136913 0.0 0.0 0.0 44.584161137365626" Properties=species:S:1:pos:R:3:tags:I:1:forces:R:3 energy=-172.575439453125 free_energy=-172.575439453125 stress="0.010469960980117321 -8.93875338192629e-08 1.2789540960511658e-05 -8.93875338192629e-08 0.010570453479886055 -1.0501798897166736e-06 1.2789540960511658e-05 -1.0501798897166736e-06 -0.00012014404637739062" pbc="T T T"
Pt       1.40360696       0.81037286      20.00000000        3       0.00093813       0.00073815      -0.00392652
Pt       4.21082088       0.81037286      20.00000000        3      -0.00098487       0.00061802      -0.00410905
Pt       7.01803480       0.81037286      20.00000000        3       0.00001895       0.00035889      -0.00612956
Pt       2.80721392       3.24149143      20.00000000        3      -0.00002622      -0.00077806      -0.00524309
Pt       5.61442784       3.24149143      20.00000000        3      -0.00041762       0.00095409       0.00243342
Pt       8.42164176       3.24149143      20.00000000        3       0.00052938       0.00021912       0.00005654
Pt       4.21082088       5.67261000      20.00000000        3       0.00087271      -0.00086007      -0.00139078
Pt       7.01803480       5.67261000      20.00000000        3      -0.00055812      -0.00071368       0.00689486
Pt       9.82524872       5.67261000      20.00000000        3      -0.00040698      -0.00048984      -0.00394031
Pt       0.00000000       1.62074571      22.29208057        2      -0.00206522       0.01968029      -0.02391506
Pt       2.80721392       1.62074571      22.29208057        2      -0.00002192      -0.01154306      -0.04594883
Pt       5.61442784       1.62074571      22.29208057        2       0.00319368       0.02480791      -0.02192630
Pt       1.40360696       4.05186428      22.29208057        2      -0.03941622       0.01502926      -0.00910889
Pt       4.21082088       4.05186428      22.29208057        2       0.05324088       0.02312236       0.00318425
Pt       7.01803480       4.05186428      22.29208057        2      -0.01416172       0.03304801       0.04391043
Pt       2.80721392       6.48298285      22.29208057        2       0.00405614      -0.01219991      -0.02985540
Pt       5.61442784       6.48298285      22.29208057        2       0.01937369      -0.05234597       0.02674780
Pt       8.42164176       6.48298285      22.29208057        2      -0.02242421      -0.03906742       0.01556577
Pt      -0.00404630       0.00368543      24.57862980        1       0.01120077      -0.00318180      -0.00653705
Pt       2.80796420       0.00922650      24.58337331        1       0.00087562      -0.03398447       0.00005147
Pt       5.61923931       0.00379644      24.57851454        1      -0.00677373      -0.00102977      -0.00741059
Pt       1.40871881       2.42715752      24.57873351        1      -0.00641649       0.00014833      -0.00410116
Pt       4.20644034       2.42732743      24.57886124        1       0.00970130       0.00266813      -0.00327274
Pt       7.01865208       2.42255873      24.58331982        1       0.00138488       0.03314624      -0.00194615
Pt       2.80655302       4.86219316      24.57622548        1       0.00035348      -0.00012374      -0.00779504
Pt       5.59913480       4.86173744      24.59781666        1       0.01189633       0.00036864       0.02197295
Pt       8.43607322       4.86180196      24.58785902        1      -0.01518305      -0.00016157       0.00253724
N        7.01759914       4.86233453      27.58833512        0      -0.02067963       0.00044332      -0.00559017
H        7.49050888       4.04099093      27.20180051        0      -0.00346354       0.02411868       0.03897991
H        6.07227710       4.86226166      27.19136926        0       0.01930942      -0.00015990      -0.00838508
H        7.49031400       5.68364433      27.20167706        0      -0.00394572      -0.02282989       0.03819713
