31
Lattice="8.421641763931781 0.0 0.0 4.2108208819658905 7.293355709136913 0.0 0.0 0.0 44.584161137365626" Properties=species:S:1:pos:R:3:tags:I:1:forces:R:3 energy=-172.76148986816406 free_energy=-172.76148986816406 stress="0.010289757512509823 1.793717274267692e-05 0.00014317763270810246 1.793717274267692e-05 0.010455879382789135 2.1219243535597343e-06 0.00014317763270810246 2.1219243535597343e-06 3.075920540140942e-05" pbc="T T T"
Pt       1.40360696       0.81037286      20.00000000        3       0.00218893       0.00061524       0.00321913
Pt       4.21082088       0.81037286      20.00000000        3      -0.00350599       0.00066636       0.00237894
Pt       7.01803480       0.81037286      20.00000000        3      -0.00084099       0.00284050      -0.00485629
Pt       2.80721392       3.24149143      20.00000000        3      -0.00090219      -0.00002926      -0.00353932
Pt       5.61442784       3.24149143      20.00000000        3      -0.00228700       0.00241124       0.01940918
Pt       8.42164176       3.24149143      20.00000000        3       0.00146529       0.00183527       0.01590341
Pt       4.21082088       5.67261000      20.00000000        3       0.00199745      -0.00220218       0.00399816
Pt       7.01803480       5.67261000      20.00000000        3      -0.00195542      -0.00240376       0.03659678
Pt       9.82524872       5.67261000      20.00000000        3      -0.00348701      -0.00157504       0.00172231
Pt       0.00000000       1.62074571      22.29208057        2       0.00069768       0.04354740      -0.04281931
Pt       2.80721392       1.62074571      22.29208057        2       0.01690078      -0.06630175      -0.05670003
Pt       5.61442784       1.62074571      22.29208057        2       0.02897342       0.06047672      -0.03392630
Pt       1.40360696       4.05186428      22.29208057        2      -0.11816500       0.05243620       0.01836821
Pt       4.21082088       4.05186428      22.29208057        2       0.18250249       0.07137752       0.06492770
Pt       7.01803480       4.05186428      22.29208057        2      -0.02831156       0.06735663       0.02687028
Pt       2.80721392       6.48298285      22.29208057        2       0.01798185      -0.01325046      -0.05894188
Pt       5.61442784       6.48298285      22.29208057        2       0.05331473      -0.12697561       0.02739328
Pt       8.42164176       6.48298285      22.29208057        2      -0.03652172      -0.09004814      -0.01966968
Pt       0.01051446       0.00627067      24.57091282        1       0.00372362      -0.00178787      -0.01212938
Pt       2.83566350      -0.01586952      24.60179943        1      -0.01504533       0.03898772       0.00962289
Pt       5.64423705       0.00975753      24.57063942        1       0.00260167       0.00682594      -0.00685912
Pt       1.43322666       2.41098339      24.57289333        1       0.02225997      -0.00302989      -0.01404481
Pt       4.21939247       2.41224939      24.57390682        1      -0.00815115       0.01363407      -0.02147643
Pt       7.04676478       2.43565460      24.60072387        1      -0.01824199      -0.01235128       0.01102190
Pt       2.81642230       4.85843500      24.55895411        1       0.00364420      -0.01374390       0.00540605
Pt       5.58278484       4.85352791      24.62803471        1      -0.01854435      -0.01474586      -0.01594666
Pt       8.47441884       4.85389454      24.61622985        1      -0.00413410      -0.01564381       0.00466262
N        7.03210185       4.87508784      26.87165523        0      -0.03197092       0.00015891       0.02700844
H        7.39854953       4.05406627      26.33079580        0      -0.02120149       0.01855683      -0.00592300
H        6.03533816       4.87025103      26.56866800        0      -0.00440183      -0.00256005       0.01814726
H        7.39105852       5.69696615      26.32760125        0      -0.02058411      -0.01507755       0.00017577
