31
Lattice="8.421641763931781 0.0 0.0 4.2108208819658905 7.293355709136913 0.0 0.0 0.0 44.584161137365626" Properties=species:S:1:pos:R:3:tags:I:1:forces:R:3 energy=-172.64569091796875 free_energy=-172.64569091796875 stress="0.010564305819571018 -5.107827494299499e-10 -1.836492513618282e-09 -5.107827494299499e-10 0.01056432630866766 -1.0489773494271049e-08 -1.836492513618282e-09 -1.0489773494271049e-08 0.0001295122056035325" pbc="T T T"
Pt       1.40360696       0.81037286      20.00000000        3       0.00160724       0.00092567       0.00035655
Pt       4.21082088       0.81037286      20.00000000        3      -0.00160435       0.00092630       0.00035676
Pt       7.01803480       0.81037286      20.00000000        3      -0.00000271       0.00392976       0.00387096
Pt       2.80721392       3.24149143      20.00000000        3       0.00000080      -0.00185595       0.00035527
Pt       5.61442784       3.24149143      20.00000000        3       0.00078654       0.00045499       0.03163323
Pt       8.42164176       3.24149143      20.00000000        3      -0.00078691       0.00045545       0.03163266
Pt       4.21082088       5.67261000      20.00000000        3       0.00340699      -0.00196460       0.00387084
Pt       7.01803480       5.67261000      20.00000000        3      -0.00000270      -0.00090803       0.03163308
Pt       9.82524872       5.67261000      20.00000000        3      -0.00340564      -0.00196366       0.00386947
Pt       0.00000000       1.62074571      22.29208057        2      -0.08638602       0.08268682       0.00364398
Pt       2.80721392       1.62074571      22.29208057        2       0.00000090      -0.00000143      -0.05205290
Pt       5.61442784       1.62074571      22.29208057        2       0.08638550       0.08268801       0.00364318
Pt       1.40360696       4.05186428      22.29208057        2      -0.11480360       0.03346850       0.00364412
Pt       4.21082088       4.05186428      22.29208057        2       0.11480718       0.03346869       0.00364453
Pt       7.01803480       4.05186428      22.29208057        2      -0.00000280       0.00000006       0.03507093
Pt       2.80721392       6.48298285      22.29208057        2       0.00000093       0.00000191      -0.05437866
Pt       5.61442784       6.48298285      22.29208057        2       0.02841627      -0.11615749       0.00364244
Pt       8.42164176       6.48298285      22.29208057        2      -0.02841682      -0.11615538       0.00364242
Pt      -0.00256064      -0.00147881      24.56614465        1       0.00538288       0.00310719      -0.00713751
Pt       2.80721396       0.00400313      24.58142009        1      -0.00000080       0.01598355      -0.00494769
Pt       5.61698870      -0.00147895      24.56614467        1      -0.00538179       0.00311019      -0.00713691
Pt       1.40707425       2.42911660      24.58142037        1       0.01384247      -0.00799063      -0.00494646
Pt       4.20735392       2.42911658      24.58141997        1      -0.01384219      -0.00798980      -0.00494727
Pt       7.01803471       2.40793818      24.63180213        1      -0.00000101       0.01428607      -0.00863813
Pt       2.80721369       4.86519439      24.56614485        1       0.00000214      -0.00621756      -0.00713715
Pt       5.59435327       4.87382702      24.63180184        1       0.01237196      -0.00714304      -0.00863740
Pt       8.44171599       4.87382722      24.63180187        1      -0.01237394      -0.00714470      -0.00863595
N        7.01803439       4.05186311      26.88131956        0       0.00001682       0.00006015       0.03620909
H        7.01803492       4.97044638      26.36859445        0      -0.00000229       0.00309563      -0.01068795
H        7.81355063       3.59257371      26.36859508        0       0.00271311      -0.00157541      -0.01071304
H        6.22251933       3.59257356      26.36859500        0      -0.00272828      -0.00158131      -0.01072288
