31
Lattice="8.421641763931781 0.0 0.0 4.2108208819658905 7.293355709136913 0.0 0.0 0.0 44.584161137365626" Properties=species:S:1:pos:R:3:tags:I:1:forces:R:3 energy=-172.65090942382812 free_energy=-172.65090942382812 stress="0.010420485399663448 4.135514153347231e-09 2.6119004181701655e-10 4.135514153347231e-09 0.01042049191892147 -1.4691939331790138e-10 2.6119004181701655e-10 -1.4691939331790138e-10 -9.675986802903935e-06" pbc="T T T"
Pt       1.40360696       0.81037286      20.00000000        3       0.00000074      -0.00000235      -0.00922701
Pt       4.21082088       0.81037286      20.00000000        3      -0.00161679       0.00377603       0.01037803
Pt       7.01803480       0.81037286      20.00000000        3       0.00161688       0.00377636       0.01037782
Pt       2.80721392       3.24149143      20.00000000        3       0.00246273      -0.00329097       0.01037723
Pt       5.61442784       3.24149143      20.00000000        3      -0.00000150       0.00000021       0.05188423
Pt       8.42164176       3.24149143      20.00000000        3      -0.00246099      -0.00329006       0.01037601
Pt       4.21082088       5.67261000      20.00000000        3       0.00408291      -0.00048578       0.01037773
Pt       7.01803480       5.67261000      20.00000000        3      -0.00408302      -0.00048462       0.01037759
Pt       9.82524872       5.67261000      20.00000000        3      -0.00000126       0.00000245      -0.00294763
Pt       0.00000000       1.62074571      22.29208057        2      -0.14261831       0.08234143      -0.01450427
Pt       2.80721392       1.62074571      22.29208057        2       0.14262049       0.08234037      -0.01450291
Pt       5.61442784       1.62074571      22.29208057        2      -0.00000285       0.10560504      -0.00440210
Pt       1.40360696       4.05186428      22.29208057        2       0.00000087      -0.00523505      -0.04636865
Pt       4.21082088       4.05186428      22.29208057        2       0.09146052      -0.05280443      -0.00440174
Pt       7.01803480       4.05186428      22.29208057        2      -0.09146088      -0.05280382      -0.00440191
Pt       2.80721392       6.48298285      22.29208057        2       0.00453175       0.00261770      -0.04637174
Pt       5.61442784       6.48298285      22.29208057        2       0.00000023      -0.16468294      -0.01450481
Pt       8.42164176       6.48298285      22.29208057        2      -0.00453133       0.00262038      -0.04637020
Pt       0.00520173       0.00300336      24.55814215        1      -0.02220030      -0.01282210       0.03849220
Pt       2.80201241       0.00300301      24.55814341        1       0.02220106      -0.01281931       0.03848314
Pt       5.61442783       0.00060274      24.57922956        1      -0.00000275      -0.02770104       0.00173190
Pt       1.40360713       2.42511186      24.55814397        1      -0.00000156       0.02564002       0.03848282
Pt       4.18051051       2.41361907      24.62834556        1       0.03289787       0.01899230      -0.01523846
Pt       7.04834480       2.41361869      24.62834558        1      -0.03289585       0.01899212      -0.01523848
Pt       2.80773620       4.86193565      24.57922961        1      -0.02399095       0.01384959       0.00173379
Pt       5.61442802       4.89723601      24.62834627        1      -0.00000349      -0.03798169      -0.01523876
Pt       8.42111897       4.86193547      24.57922980        1       0.02399519       0.01385008       0.00173514
N        5.61442791       3.24149129      26.85409100        0      -0.00000035       0.00000638       0.03302468
H        6.41146252       3.70165972      26.34143868        0      -0.01379241      -0.00796573      -0.00470337
H        5.61442782       2.32115537      26.34143921        0       0.00000013       0.01592554      -0.00470683
H        4.81739355       3.70165958      26.34143877        0       0.01379310      -0.00796616      -0.00470364
