31
Lattice="8.421641763931781 0.0 0.0 4.2108208819658905 7.293355709136913 0.0 0.0 0.0 44.584161137365626" Properties=species:S:1:pos:R:3:tags:I:1:forces:R:3 energy=-172.80596923828125 free_energy=-172.80596923828125 stress="0.010340834967792034 -4.892876326323403e-09 4.029400368921188e-09 -4.892876326323403e-09 0.010238086804747581 0.00010187549196416512 4.029400368921188e-09 0.00010187549196416512 -2.519600820960477e-05" pbc="T T T"
Pt       1.40360696       0.81037286      20.00000000        3       0.00137029       0.00058581      -0.00833550
Pt       4.21082088       0.81037286      20.00000000        3      -0.00136709       0.00058716      -0.00833496
Pt       7.01803480       0.81037286      20.00000000        3      -0.00000218       0.00054182      -0.01008773
Pt       2.80721392       3.24149143      20.00000000        3       0.00000120      -0.00272456      -0.00847283
Pt       5.61442784       3.24149143      20.00000000        3      -0.00164525       0.00133740       0.01607448
Pt       8.42164176       3.24149143      20.00000000        3       0.00164455       0.00133819       0.01607239
Pt       4.21082088       5.67261000      20.00000000        3       0.00306881      -0.00382171       0.00073206
Pt       7.01803480       5.67261000      20.00000000        3      -0.00000239      -0.00263112       0.02806649
Pt       9.82524872       5.67261000      20.00000000        3      -0.00306781      -0.00381992       0.00073180
Pt       0.00000000       1.62074571      22.29208057        2      -0.06632756       0.08839785      -0.04019980
Pt       2.80721392       1.62074571      22.29208057        2       0.00000238       0.01983054      -0.12072940
Pt       5.61442784       1.62074571      22.29208057        2       0.06632499       0.08840097      -0.04019982
Pt       1.40360696       4.05186428      22.29208057        2      -0.15750390       0.09655733       0.02518654
Pt       4.21082088       4.05186428      22.29208057        2       0.15750740       0.09655469       0.02518890
Pt       7.01803480       4.05186428      22.29208057        2      -0.00000384       0.06662125       0.08368776
Pt       2.80721392       6.48298285      22.29208057        2       0.00000039      -0.00960102      -0.06137419
Pt       5.61442784       6.48298285      22.29208057        2       0.02929221      -0.15446144       0.02591831
Pt       8.42164176       6.48298285      22.29208057        2      -0.02929304      -0.15445910       0.02591629
Pt      -0.00201846       0.01868408      24.56280065        1      -0.01062044      -0.00948064       0.00657439
Pt       2.80721429       0.04623993      24.56969609        1      -0.00000345      -0.04435540      -0.00401123
Pt       5.61644634       0.01868440      24.56280130        1       0.01062238      -0.00948068       0.00657493
Pt       1.40760289       2.45042456      24.56862927        1       0.00294879      -0.02025064       0.00781278
Pt       4.20682468       2.45042435      24.56863134        1      -0.00294947      -0.02024714       0.00780123
Pt       7.01803449       2.42384727      24.59392421        1       0.00000133       0.00319718       0.02678664
Pt       2.80721349       4.87606130      24.56256565        1       0.00000278       0.01987030      -0.00170313
Pt       5.59298750       4.89382049      24.62805735        1       0.02575817      -0.02176746      -0.00592093
Pt       8.44308180       4.89382117      24.62805752        1      -0.02575909      -0.02177262      -0.00592149
N        7.01803533       4.34187092      26.93106531        0      -0.00003760       0.02503623      -0.01028800
H        7.83767518       4.86426456      26.56361304        0      -0.00283723      -0.01864143      -0.00306865
H        7.01803511       3.45220062      26.38980180        0       0.00000166       0.00732102       0.02857661
H        6.19839414       4.86426498      26.56361329        0       0.00287309      -0.01866254      -0.00305402
