31
Lattice="8.421641763931781 0.0 0.0 4.2108208819658905 7.293355709136913 0.0 0.0 0.0 44.584161137365626" Properties=species:S:1:pos:R:3:tags:I:1:forces:R:3 energy=-172.80630493164062 free_energy=-172.80630493164062 stress="0.010269209742546082 -6.707568278585541e-09 -1.1452911508058605e-08 -6.707568278585541e-09 0.010269216261804104 2.66631494660885e-09 -1.1452911508058605e-08 2.66631494660885e-09 8.991549293568823e-06" pbc="T T T"
Pt       1.40360696       0.81037286      20.00000000        3       0.00000094      -0.00000260      -0.00881147
Pt       4.21082088       0.81037286      20.00000000        3      -0.00214078       0.00264052       0.00079522
Pt       7.01803480       0.81037286      20.00000000        3       0.00214081       0.00264040       0.00079414
Pt       2.80721392       3.24149143      20.00000000        3       0.00121684      -0.00317709       0.00079480
Pt       5.61442784       3.24149143      20.00000000        3      -0.00000172       0.00000044       0.03264195
Pt       8.42164176       3.24149143      20.00000000        3      -0.00121531      -0.00317631       0.00079396
Pt       4.21082088       5.67261000      20.00000000        3       0.00336263       0.00053619       0.00079465
Pt       7.01803480       5.67261000      20.00000000        3      -0.00336262       0.00053684       0.00079441
Pt       9.82524872       5.67261000      20.00000000        3      -0.00000135       0.00000218      -0.01720250
Pt       0.00000000       1.62074571      22.29208057        2      -0.13941039       0.08048906       0.02964855
Pt       2.80721392       1.62074571      22.29208057        2       0.13941252       0.08049039       0.02964790
Pt       5.61442784       1.62074571      22.29208057        2      -0.00000207       0.12738709       0.04131575
Pt       1.40360696       4.05186428      22.29208057        2       0.00000139      -0.04157308      -0.08074433
Pt       4.21082088       4.05186428      22.29208057        2       0.11032310      -0.06369540       0.04131475
Pt       7.01803480       4.05186428      22.29208057        2      -0.11032443      -0.06369445       0.04131557
Pt       2.80721392       6.48298285      22.29208057        2       0.03600148       0.02078683      -0.08074637
Pt       5.61442784       6.48298285      22.29208057        2      -0.00000157      -0.16097957       0.02964517
Pt       8.42164176       6.48298285      22.29208057        2      -0.03600033       0.02078837      -0.08074656
Pt       0.00154716       0.00089274      24.56436785        1       0.00933069       0.00539011      -0.00225449
Pt       2.80566748       0.00089276      24.56436767        1      -0.00933310       0.00538868      -0.00225407
Pt       5.61442759      -0.01019393      24.56513534        1       0.00000177       0.01071832       0.01351319
Pt       1.40360715       2.42933252      24.56436886        1      -0.00000085      -0.01077810      -0.00226367
Pt       4.18729649       2.41753688      24.61312567        1       0.00276630       0.00159460      -0.00094356
Pt       7.04155866       2.41753676      24.61312580        1      -0.00276644       0.00159407      -0.00093962
Pt       2.79838619       4.86733367      24.56513522        1       0.00928229      -0.00535848       0.01351553
Pt       5.61442763       4.88940070      24.61312580        1       0.00000134      -0.00319215      -0.00094238
Pt       8.43046953       4.86733348      24.56513523        1      -0.00928238      -0.00535665       0.01351564
N        5.61442730       3.24149153      26.94056479        0       0.00006209      -0.00001089      -0.03254277
H        5.61442797       4.18850047      26.51488796        0      -0.00000445       0.03003284       0.00651404
H        6.43456203       2.76798681      26.51488832        0       0.02597296      -0.01499751       0.00653265
H        4.79429432       2.76798700      26.51488819        0      -0.02602942      -0.01502477       0.00650386
