31
Lattice="8.421641763931781 0.0 0.0 4.2108208819658905 7.293355709136913 0.0 0.0 0.0 44.584161137365626" Properties=species:S:1:pos:R:3:tags:I:1:forces:R:3 energy=-172.76148986816406 free_energy=-172.76148986816406 stress="0.010289766825735569 -1.794631316442974e-05 -0.00014317223394755274 -1.794631316442974e-05 0.010455925948917866 2.1036246380390367e-06 -0.00014317223394755274 2.1036246380390367e-06 3.0787778086960316e-05" pbc="T T T"
Pt       1.40360696       0.81037286      20.00000000        3       0.00350875       0.00066586       0.00238019
Pt       4.21082088       0.81037286      20.00000000        3      -0.00218621       0.00061609       0.00321841
Pt       7.01803480       0.81037286      20.00000000        3       0.00083634       0.00284059      -0.00485712
Pt       2.80721392       3.24149143      20.00000000        3       0.00090346      -0.00002959      -0.00353852
Pt       5.61442784       3.24149143      20.00000000        3      -0.00146580       0.00183424       0.01590434
Pt       8.42164176       3.24149143      20.00000000        3       0.00228637       0.00241149       0.01940784
Pt       4.21082088       5.67261000      20.00000000        3       0.00348750      -0.00157650       0.00172323
Pt       7.01803480       5.67261000      20.00000000        3       0.00195120      -0.00240340       0.03659737
Pt       9.82524872       5.67261000      20.00000000        3      -0.00199694      -0.00220038       0.00399706
Pt       0.00000000       1.62074571      22.29208057        2      -0.02897113       0.06047373      -0.03392177
Pt       2.80721392       1.62074571      22.29208057        2      -0.01690283      -0.06630014      -0.05669813
Pt       5.61442784       1.62074571      22.29208057        2      -0.00069781       0.04355055      -0.04282290
Pt       1.40360696       4.05186428      22.29208057        2      -0.18249930       0.07137478       0.06492907
Pt       4.21082088       4.05186428      22.29208057        2       0.11816791       0.05243701       0.01836754
Pt       7.01803480       4.05186428      22.29208057        2       0.02830506       0.06735700       0.02687010
Pt       2.80721392       6.48298285      22.29208057        2      -0.01797580      -0.01325045      -0.05894085
Pt       5.61442784       6.48298285      22.29208057        2       0.03651989      -0.09004799      -0.01966770
Pt       8.42164176       6.48298285      22.29208057        2      -0.05331839      -0.12697528       0.02739178
Pt      -0.02980895       0.00975763      24.57063969        1      -0.00260067       0.00682472      -0.00686923
Pt       2.77876462      -0.01586903      24.60179901        1       0.01504399       0.03898273       0.00962497
Pt       5.60391389       0.00627069      24.57091208        1      -0.00372468      -0.00178911      -0.01211898
Pt       1.39503556       2.41224953      24.57390704        1       0.00815402       0.01363284      -0.02148463
Pt       4.18120148       2.41098342      24.57289359        1      -0.02226083      -0.00302986      -0.01404537
Pt       6.98930488       2.43565413      24.60072279        1       0.01823893      -0.01234768       0.01102316
Pt       2.79800536       4.85843520      24.55895354        1      -0.00364208      -0.01374412       0.00540653
Pt       5.56165040       4.85389430      24.61622958        1       0.00413926      -0.01564031       0.00466566
Pt       8.45328442       4.85352792      24.62803499        1       0.01854053      -0.01474397      -0.01593826
N        7.00396611       4.87508652      26.87165579        0       0.03191286       0.00025803       0.02693203
H        8.00073002       4.87025132      26.56866977        0       0.00442109      -0.00256445       0.01814052
H        6.63752046       4.05406563      26.33079383        0       0.02120418       0.01856364      -0.00591567
H        6.64501067       5.69696756      26.32759790        0       0.02062129      -0.01517990       0.00023937
