31
Lattice="8.421641763931781 0.0 0.0 4.2108208819658905 7.293355709136913 0.0 0.0 0.0 44.584161137365626" Properties=species:S:1:pos:R:3:tags:I:1:forces:R:3 energy=-173.7161865234375 free_energy=-173.7161865234375 stress="0.010666687972843647 -2.8287425735129546e-08 9.311697191094481e-09 -2.8287425735129546e-08 0.010666737332940102 -1.9658632055552516e-08 9.311697191094481e-09 -1.9658632055552516e-08 -1.7910318774738698e-06" pbc="T T T"
Pt       1.40360696       0.81037286      20.00000000        3       0.00502268       0.00367285      -0.00957450
Pt       4.21082088       0.81037286      20.00000000        3       0.00067068       0.00312252      -0.00628516
Pt       7.01803480       0.81037286      20.00000000        3      -0.00569610       0.00250935      -0.00957456
Pt       2.80721392       3.24149143      20.00000000        3       0.00237272      -0.00214170      -0.00628573
Pt       5.61442784       3.24149143      20.00000000        3      -0.00304150      -0.00098341      -0.00628519
Pt       8.42164176       3.24149143      20.00000000        3       0.00054068       0.00469346       0.01201892
Pt       4.21082088       5.67261000      20.00000000        3       0.00067448      -0.00618588      -0.00957465
Pt       7.01803480       5.67261000      20.00000000        3       0.00379183      -0.00281093       0.01201957
Pt       9.82524872       5.67261000      20.00000000        3      -0.00433508      -0.00187666       0.01201972
Pt       0.00000000       1.62074571      22.29208057        2       0.00611895       0.06274414       0.02847275
Pt       2.80721392       1.62074571      22.29208057        2      -0.00941722       0.00433076      -0.00397981
Pt       5.61442784       1.62074571      22.29208057        2       0.00095438      -0.01032387      -0.00398025
Pt       1.40360696       4.05186428      22.29208057        2      -0.07003499       0.03508712      -0.02902814
Pt       4.21082088       4.05186428      22.29208057        2       0.00846228       0.00598965      -0.00398151
Pt       7.01803480       4.05186428      22.29208057        2       0.06540106       0.04310993      -0.02902955
Pt       2.80721392       6.48298285      22.29208057        2      -0.05739858      -0.02607428       0.02847318
Pt       5.61442784       6.48298285      22.29208057        2       0.05128064      -0.03666819       0.02847126
Pt       8.42164176       6.48298285      22.29208057        2       0.00463373      -0.07819318      -0.02902943
Pt       0.00000086       0.00000017      24.58874855        1      -0.00000189       0.00000136      -0.00018719
Pt       2.80256810       0.01090796      24.59462688        1      -0.00540071       0.00066333       0.01184393
Pt       5.61709901       0.00668619      24.60592545        1      -0.00698062      -0.01683878      -0.00246631
Pt       1.40806286       2.42546277      24.60592527        1      -0.01109334       0.01446408      -0.00246529
Pt       4.21082140       2.43111974      24.58900265        1      -0.00000139      -0.00000427      -0.00093934
Pt       7.01091202       2.42164060      24.59462723        1       0.00212398      -0.00500877       0.01184502
Pt       2.81898353       4.86080776      24.59462689        1       0.00326776       0.00434417       0.01184419
Pt       5.60730105       4.86120734      24.60592536        1       0.01807401       0.00237335      -0.00246607
Pt       8.42163910       4.86223660      24.65974625        1       0.00000147       0.00000330       0.03702563
N        8.42163817       4.86223687      26.72996766        0       0.00015299      -0.00016794      -0.04316127
H        7.44890471       4.86551572      27.04814096        0       0.00642577       0.00116742       0.00143997
H        8.91085097       5.70301163      27.04813181        0      -0.00223295      -0.00618333       0.00144371
H        8.90517163       4.01817917      27.04813612        0      -0.00433569       0.00518449       0.00137627
