31
Lattice="8.421641763931781 0.0 0.0 4.2108208819658905 7.293355709136913 0.0 0.0 0.0 44.584161137365626" Properties=species:S:1:pos:R:3:tags:I:1:forces:R:3 energy=-172.5950164794922 free_energy=-172.5950164794922 stress="0.010540762916207314 -5.357628785063184e-10 -4.265338748865588e-09 -5.357628785063184e-10 0.010540761053562164 -7.873791396662e-09 -4.265338748865588e-09 -7.873791396662e-09 -0.00010161644604522735" pbc="T T T"
Pt       1.40360696       0.81037286      20.00000000        3       0.00000083      -0.00000237      -0.00804469
Pt       4.21082088       0.81037286      20.00000000        3      -0.00033329       0.00056157      -0.00361970
Pt       7.01803480       0.81037286      20.00000000        3       0.00033332       0.00056142      -0.00361988
Pt       2.80721392       3.24149143      20.00000000        3       0.00032109      -0.00057251      -0.00362128
Pt       5.61442784       3.24149143      20.00000000        3      -0.00000186      -0.00000030       0.00279906
Pt       8.42164176       3.24149143      20.00000000        3      -0.00031887      -0.00057155      -0.00362158
Pt       4.21082088       5.67261000      20.00000000        3       0.00065814       0.00001036      -0.00362000
Pt       7.01803480       5.67261000      20.00000000        3      -0.00065785       0.00001196      -0.00362062
Pt       9.82524872       5.67261000      20.00000000        3      -0.00000153       0.00000291      -0.00901914
Pt       0.00000000       1.62074571      22.29208057        2      -0.02765079       0.01596286      -0.01668045
Pt       2.80721392       1.62074571      22.29208057        2       0.02765233       0.01596333      -0.01668340
Pt       5.61442784       1.62074571      22.29208057        2      -0.00000230       0.02752643       0.02986521
Pt       1.40360696       4.05186428      22.29208057        2       0.00000023      -0.01516342      -0.02845291
Pt       4.21082088       4.05186428      22.29208057        2       0.02384210      -0.01376528       0.02986488
Pt       7.01803480       4.05186428      22.29208057        2      -0.02384209      -0.01376561       0.02986785
Pt       2.80721392       6.48298285      22.29208057        2       0.01313156       0.00758302      -0.02845377
Pt       5.61442784       6.48298285      22.29208057        2      -0.00000170      -0.03192819      -0.01668671
Pt       8.42164176       6.48298285      22.29208057        2      -0.01312959       0.00758419      -0.02845579
Pt       0.00435981       0.00251505      24.57790440        1      -0.02783792      -0.01606205       0.01102197
Pt       2.80285568       0.00251536      24.57790448        1       0.02783379      -0.01606372       0.01102260
Pt       5.61442759      -0.00781466      24.57844146        1       0.00000166       0.04038941       0.01039916
Pt       1.40360758       2.42608556      24.57790461        1      -0.00000513       0.03213585       0.01102152
Pt       4.20815365       2.42957851      24.59062741        1      -0.02003700      -0.01157107       0.00456853
Pt       7.02070107       2.42957768      24.59062858        1       0.02004413      -0.01156585       0.00456995
Pt       2.80044676       4.86614381      24.57844204        1       0.03497698      -0.02019338       0.01040056
Pt       5.61442753       4.86531694      24.59062730        1       0.00000253       0.02313109       0.00456953
Pt       8.42840841       4.86614422      24.57844243        1      -0.03497840      -0.02019959       0.01040065
N        5.61442660       3.24149080      27.94718562        0       0.00002532       0.00005101      -0.00696421
H        4.79943725       3.71202784      27.54979774        0       0.00673835      -0.00390711       0.00359838
H        6.42941774       3.71202583      27.54979754        0      -0.00674781      -0.00389405       0.00361054
H        5.61442864       2.30042180      27.54979713        0      -0.00001609       0.00775062       0.00358357
