31
Lattice="8.421641763931781 0.0 0.0 4.2108208819658905 7.293355709136913 0.0 0.0 0.0 44.584161137365626" Properties=species:S:1:pos:R:3:tags:I:1:forces:R:3 energy=-172.8089599609375 free_energy=-172.8089599609375 stress="0.010300863534212112 -7.200778195937119e-09 -8.514724925134942e-09 -7.200778195937119e-09 0.010233004577457905 -1.3994508663017768e-06 -8.514724925134942e-09 -1.3994508663017768e-06 -5.0299490794714075e-06" pbc="T T T"
Pt       1.40360696       0.81037286      20.00000000        3       0.00266443       0.00147197      -0.00206831
Pt       4.21082088       0.81037286      20.00000000        3      -0.00266166       0.00147252      -0.00206780
Pt       7.01803480       0.81037286      20.00000000        3      -0.00000229       0.00014665      -0.01603603
Pt       2.80721392       3.24149143      20.00000000        3       0.00000060      -0.00011528      -0.00897092
Pt       5.61442784       3.24149143      20.00000000        3      -0.00243325       0.00340617       0.00406441
Pt       8.42164176       3.24149143      20.00000000        3       0.00243292       0.00340706       0.00406289
Pt       4.21082088       5.67261000      20.00000000        3       0.00232914      -0.00312567       0.00241113
Pt       7.01803480       5.67261000      20.00000000        3      -0.00000259      -0.00120698       0.03430757
Pt       9.82524872       5.67261000      20.00000000        3      -0.00232796      -0.00312396       0.00241026
Pt       0.00000000       1.62074571      22.29208057        2       0.02882173       0.02121981      -0.07853697
Pt       2.80721392       1.62074571      22.29208057        2       0.00000076      -0.11913488      -0.02880630
Pt       5.61442784       1.62074571      22.29208057        2      -0.02882299       0.02122140      -0.07853875
Pt       1.40360696       4.05186428      22.29208057        2      -0.15952918       0.09022091       0.05009647
Pt       4.21082088       4.05186428      22.29208057        2       0.15953210       0.09022087       0.05009854
Pt       7.01803480       4.05186428      22.29208057        2      -0.00000339       0.12731132       0.05075548
Pt       2.80721392       6.48298285      22.29208057        2       0.00000111      -0.04127900      -0.07620117
Pt       5.61442784       6.48298285      22.29208057        2       0.08928181      -0.09925570       0.03363097
Pt       8.42164176       6.48298285      22.29208057        2      -0.08928320      -0.09925307       0.03363017
Pt      -0.00470230      -0.00148747      24.56711308        1      -0.00144998       0.00196031       0.00480433
Pt       2.80721405       0.02235661      24.60122978        1      -0.00000122      -0.00238116       0.01021183
Pt       5.61913011      -0.00148751      24.56711347        1       0.00145086       0.00196287       0.00480595
Pt       1.40946152       2.42502314      24.56456128        1      -0.00775004       0.01022501       0.00390640
Pt       4.20496601       2.42502269      24.56456229        1       0.00775111       0.01023098       0.00390524
Pt       7.01803460       2.41058490      24.56471713        1      -0.00000004      -0.00120474       0.01162022
Pt       2.80721302       4.85992360      24.56195621        1       0.00000710      -0.01936729       0.00477569
Pt       5.59025403       4.84258049      24.62122320        1       0.00104008       0.00137462      -0.00541444
Pt       8.44581508       4.84258035      24.62122331        1      -0.00104596       0.00137568      -0.00540983
N        7.01803516       5.44529033      26.92569715        0       0.00004619      -0.02257993       0.02495703
H        6.19418508       4.93884460      26.54854318        0      -0.00006433       0.00626354      -0.00569597
H        7.01803441       6.36141560      26.43662514        0       0.00000073       0.01224329      -0.02103219
H        7.84188693       4.93884508      26.54854456        0       0.00001751       0.00629254      -0.00567631
