31
Lattice="8.421641763931781 0.0 0.0 4.2108208819658905 7.293355709136913 0.0 0.0 0.0 44.584161137365626" Properties=species:S:1:pos:R:3:tags:I:1:forces:R:3 energy=-173.71633911132812 free_energy=-173.71633911132812 stress="0.010683621279895306 8.232247772355095e-09 -8.18531553647972e-09 8.232247772355095e-09 0.010683642700314522 -1.5783633289245813e-09 -8.18531553647972e-09 -1.5783633289245813e-09 -3.710198143380694e-06" pbc="T T T"
Pt       1.40360696       0.81037286      20.00000000        3       0.00502856       0.00377502      -0.00913948
Pt       4.21082088       0.81037286      20.00000000        3       0.00070200       0.00298841      -0.00605977
Pt       7.01803480       0.81037286      20.00000000        3      -0.00578715       0.00246397      -0.00913987
Pt       2.80721392       3.24149143      20.00000000        3       0.00224054      -0.00210183      -0.00606117
Pt       5.61442784       3.24149143      20.00000000        3      -0.00294162      -0.00088860      -0.00606111
Pt       8.42164176       3.24149143      20.00000000        3       0.00052361       0.00464556       0.01212952
Pt       4.21082088       5.67261000      20.00000000        3       0.00075954      -0.00624154      -0.00913832
Pt       7.01803480       5.67261000      20.00000000        3       0.00375937      -0.00277290       0.01213142
Pt       9.82524872       5.67261000      20.00000000        3      -0.00428528      -0.00186783       0.01213151
Pt       0.00000000       1.62074571      22.29208057        2       0.00648831       0.06191912       0.03258967
Pt       2.80721392       1.62074571      22.29208057        2      -0.01088346       0.00430192      -0.00008254
Pt       5.61442784       1.62074571      22.29208057        2       0.00171220      -0.01157971      -0.00007933
Pt       1.40360696       4.05186428      22.29208057        2      -0.06796042       0.03413439      -0.02875916
Pt       4.21082088       4.05186428      22.29208057        2       0.00917486       0.00727671      -0.00007617
Pt       7.01803480       4.05186428      22.29208057        2       0.06353503       0.04179466      -0.02876471
Pt       2.80721392       6.48298285      22.29208057        2      -0.05686858      -0.02534658       0.03259160
Pt       5.61442784       6.48298285      22.29208057        2       0.05038444      -0.03657755       0.03259175
Pt       8.42164176       6.48298285      22.29208057        2       0.00442451      -0.07592122      -0.02876219
Pt       0.00000108      -0.00000014      24.58944019        1       0.00000200       0.00000141      -0.00304541
Pt       2.80202811       0.01132388      24.59561657        1      -0.00747334       0.00261908       0.00782475
Pt       5.61577147       0.00573462      24.60743801        1      -0.00024619      -0.01161091      -0.00830841
Pt       1.40790425       2.42708893      24.60743766        1      -0.00993941       0.00601854      -0.00830707
Pt       4.21082074       2.43111859      24.58916547        1       0.00001329       0.00000607      -0.00120315
Pt       7.01082515       2.42096528      24.59561584        1       0.00144961      -0.00778880       0.00783437
Pt       2.81961499       4.86106851      24.59561653        1       0.00600225       0.00515639       0.00782393
Pt       5.60879211       4.86053370      24.60743825        1       0.01016295       0.00558739      -0.00831553
Pt       8.42163976       4.86223594      24.65950556        1       0.00000723       0.00000319       0.00647223
N        8.42163639       4.86223509      26.72619445        0      -0.00000435       0.00000635      -0.00160784
H        8.90546864       4.01908981      27.04595932        0      -0.00048825      -0.00152534      -0.00039835
H        7.44953759       4.86479697      27.04596887        0      -0.00107494       0.00120933      -0.00042573
H        8.90990731       5.70282018      27.04595437        0       0.00158255       0.00031515      -0.00038533
