31
Lattice="8.421641763931781 0.0 0.0 4.2108208819658905 7.293355709136913 0.0 0.0 0.0 44.584161137365626" Properties=species:S:1:pos:R:3:tags:I:1:forces:R:3 energy=-172.5950164794922 free_energy=-172.5950164794922 stress="0.010540757328271866 6.544388142515345e-09 -6.327056656374452e-09 6.544388142515345e-09 0.010540765710175037 3.931454273242707e-09 -6.327056656374452e-09 3.931454273242707e-09 -0.00010160551755689085" pbc="T T T"
Pt       1.40360696       0.81037286      20.00000000        3       0.00000119      -0.00000278      -0.00804347
Pt       4.21082088       0.81037286      20.00000000        3      -0.00033358       0.00056169      -0.00361869
Pt       7.01803480       0.81037286      20.00000000        3       0.00033309       0.00056170      -0.00362086
Pt       2.80721392       3.24149143      20.00000000        3       0.00032074      -0.00057283      -0.00362122
Pt       5.61442784       3.24149143      20.00000000        3      -0.00000163      -0.00000026       0.00279903
Pt       8.42164176       3.24149143      20.00000000        3      -0.00031878      -0.00057178      -0.00362191
Pt       4.21082088       5.67261000      20.00000000        3       0.00065799       0.00001067      -0.00361988
Pt       7.01803480       5.67261000      20.00000000        3      -0.00065803       0.00001168      -0.00362083
Pt       9.82524872       5.67261000      20.00000000        3      -0.00000146       0.00000296      -0.00901946
Pt       0.00000000       1.62074571      22.29208057        2      -0.02764803       0.01596255      -0.01667752
Pt       2.80721392       1.62074571      22.29208057        2       0.02765016       0.01596205      -0.01667861
Pt       5.61442784       1.62074571      22.29208057        2      -0.00000224       0.02752652       0.02986739
Pt       1.40360696       4.05186428      22.29208057        2       0.00000096      -0.01516619      -0.02845080
Pt       4.21082088       4.05186428      22.29208057        2       0.02384168      -0.01376546       0.02986573
Pt       7.01803480       4.05186428      22.29208057        2      -0.02384265      -0.01376468       0.02986734
Pt       2.80721392       6.48298285      22.29208057        2       0.01313213       0.00758360      -0.02845327
Pt       5.61442784       6.48298285      22.29208057        2       0.00000109      -0.03192554      -0.01668284
Pt       8.42164176       6.48298285      22.29208057        2      -0.01313161       0.00758599      -0.02845368
Pt       0.00435962       0.00251482      24.57790450        1      -0.02783527      -0.01605883       0.01102212
Pt       2.80285660       0.00251607      24.57790534        1       0.02782665      -0.01606618       0.01101187
Pt       5.61442736      -0.00781533      24.57844206        1       0.00000413       0.04039743       0.01039937
Pt       1.40360756       2.42608590      24.57790548        1      -0.00000410       0.03213298       0.01101229
Pt       4.20815374       2.42957877      24.59062821        1      -0.02003539      -0.01157134       0.00456874
Pt       7.02070155       2.42957847      24.59062807        1       0.02003992      -0.01157406       0.00456873
Pt       2.80044645       4.86614397      24.57844203        1       0.03497671      -0.02019611       0.01039988
Pt       5.61442702       4.86531701      24.59062799        1       0.00000475       0.02313537       0.00457092
Pt       8.42840874       4.86614431      24.57844153        1      -0.03497874      -0.02019893       0.01040134
N        5.61442771       3.24149138      27.94718516        0       0.00004633      -0.00002006      -0.00693563
H        5.61442782       2.30042172      27.54979720        0      -0.00000545       0.00776885       0.00359376
H        4.79943791       3.71202635      27.54979815        0       0.00668602      -0.00386596       0.00357384
H        6.42941769       3.71202628      27.54979753        0      -0.00672659      -0.00388303       0.00359636
