31
Lattice="8.421641763931781 0.0 0.0 4.2108208819658905 7.293355709136913 0.0 0.0 0.0 44.584161137365626" Properties=species:S:1:pos:R:3:tags:I:1:forces:R:3 energy=-173.71633911132812 free_energy=-173.71633911132812 stress="0.01068479847162962 -2.1187682719414624e-09 4.5313752750075764e-09 -2.1187682719414624e-09 0.010684761218726635 9.353188445970773e-09 4.5313752750075764e-09 9.353188445970773e-09 -4.545310275716474e-06" pbc="T T T"
Pt       1.40360696       0.81037286      20.00000000        3       0.00578152       0.00246340      -0.00914720
Pt       4.21082088       0.81037286      20.00000000        3      -0.00069551       0.00299152      -0.00608459
Pt       7.01803480       0.81037286      20.00000000        3      -0.00502814       0.00377179      -0.00914767
Pt       2.80721392       3.24149143      20.00000000        3       0.00294201      -0.00089257      -0.00608608
Pt       5.61442784       3.24149143      20.00000000        3      -0.00224501      -0.00210082      -0.00608578
Pt       8.42164176       3.24149143      20.00000000        3      -0.00051991       0.00466377       0.01216495
Pt       4.21082088       5.67261000      20.00000000        3      -0.00075296      -0.00623749      -0.00914803
Pt       7.01803480       5.67261000      20.00000000        3       0.00429657      -0.00187826       0.01216498
Pt       9.82524872       5.67261000      20.00000000        3      -0.00377935      -0.00278007       0.01216632
Pt       0.00000000       1.62074571      22.29208057        2      -0.00646614       0.06193072       0.03259880
Pt       2.80721392       1.62074571      22.29208057        2      -0.00176018      -0.01158174      -0.00001449
Pt       5.61442784       1.62074571      22.29208057        2       0.01090926       0.00426534      -0.00001393
Pt       1.40360696       4.05186428      22.29208057        2      -0.06372839       0.04188890      -0.02873186
Pt       4.21082088       4.05186428      22.29208057        2      -0.00914919       0.00731512      -0.00001157
Pt       7.01803480       4.05186428      22.29208057        2       0.06813882       0.03424715      -0.02874134
Pt       2.80721392       6.48298285      22.29208057        2      -0.05040064      -0.03656936       0.03260288
Pt       5.61442784       6.48298285      22.29208057        2       0.05686840      -0.02536172       0.03259900
Pt       8.42164176       6.48298285      22.29208057        2      -0.00440764      -0.07613456      -0.02874132
Pt       0.00000079       0.00000089      24.58942535        1       0.00000151      -0.00000862      -0.00301790
Pt       2.80590454       0.00569621      24.60740972        1      -0.00004748      -0.01124173      -0.00817584
Pt       5.61957738       0.01127558      24.59561468        1       0.00777748       0.00301032       0.00782311
Pt       1.41079746       2.42102053      24.59561488        1      -0.00127155      -0.00822488       0.00782184
Pt       4.21082144       2.43111774      24.58914952        1       0.00000276       0.00000883      -0.00118625
Pt       7.01375954       2.42713445      24.60740965        1       0.00974658       0.00558951      -0.00817528
Pt       2.81280458       4.86052500      24.60740988        1      -0.00973617       0.00565310      -0.00817735
Pt       5.60208988       4.86105976      24.59561466        1      -0.00651295       0.00521917       0.00782275
Pt       8.42163704       4.86223828      24.65974871        1       0.00002201      -0.00000507       0.00435394
N        8.42163625       4.86223582      26.72632600        0       0.00012678       0.00005540      -0.00076240
H        9.39380452       4.86479888      27.04597181        0      -0.00031710       0.00118861      -0.00023134
H        7.93777724       4.01903780      27.04598050        0       0.00113320      -0.00045271      -0.00020500
H        7.93334015       5.70287242      27.04598685        0      -0.00092868      -0.00079294      -0.00023336
