31
Lattice="8.421641763931781 0.0 0.0 4.2108208819658905 7.293355709136913 0.0 0.0 0.0 44.584161137365626" Properties=species:S:1:pos:R:3:tags:I:1:forces:R:3 energy=-172.80596923828125 free_energy=-172.80596923828125 stress="0.010340827517211437 -7.131137458316061e-09 3.741003062884829e-09 -7.131137458316061e-09 0.010238070040941238 0.00010186923464061692 3.741003062884829e-09 0.00010186923464061692 -2.5223806005669758e-05" pbc="T T T"
Pt       1.40360696       0.81037286      20.00000000        3       0.00137052       0.00058610      -0.00833589
Pt       4.21082088       0.81037286      20.00000000        3      -0.00136692       0.00058718      -0.00833470
Pt       7.01803480       0.81037286      20.00000000        3      -0.00000216       0.00054160      -0.01008755
Pt       2.80721392       3.24149143      20.00000000        3       0.00000075      -0.00272452      -0.00847393
Pt       5.61442784       3.24149143      20.00000000        3      -0.00164491       0.00133760       0.01607314
Pt       8.42164176       3.24149143      20.00000000        3       0.00164477       0.00133767       0.01607272
Pt       4.21082088       5.67261000      20.00000000        3       0.00306886      -0.00382167       0.00073138
Pt       7.01803480       5.67261000      20.00000000        3      -0.00000216      -0.00263100       0.02806637
Pt       9.82524872       5.67261000      20.00000000        3      -0.00306833      -0.00381978       0.00073159
Pt       0.00000000       1.62074571      22.29208057        2      -0.06632718       0.08840065      -0.04020331
Pt       2.80721392       1.62074571      22.29208057        2       0.00000058       0.01982971      -0.12073438
Pt       5.61442784       1.62074571      22.29208057        2       0.06632644       0.08839925      -0.04020151
Pt       1.40360696       4.05186428      22.29208057        2      -0.15750788       0.09655717       0.02518455
Pt       4.21082088       4.05186428      22.29208057        2       0.15750836       0.09655439       0.02518219
Pt       7.01803480       4.05186428      22.29208057        2      -0.00000052       0.06662063       0.08368577
Pt       2.80721392       6.48298285      22.29208057        2      -0.00000255      -0.00959944      -0.06138076
Pt       5.61442784       6.48298285      22.29208057        2       0.02929555      -0.15445980       0.02591273
Pt       8.42164176       6.48298285      22.29208057        2      -0.02929313      -0.15445998       0.02591856
Pt      -0.00201893       0.01868337      24.56279896        1      -0.01061677      -0.00947647       0.00658420
Pt       2.80721396       0.04624129      24.56969616        1       0.00000106      -0.04436300      -0.00401181
Pt       5.61644660       0.01868403      24.56280183        1       0.01061612      -0.00948135       0.00657359
Pt       1.40760305       2.45042508      24.56863092        1       0.00294560      -0.02025074       0.00781165
Pt       4.20682465       2.45042491      24.56863018        1      -0.00294374      -0.02024863       0.00781210
Pt       7.01803479       2.42384622      24.59392353        1      -0.00000202       0.00319996       0.02678840
Pt       2.80721427       4.87606193      24.56256386        1      -0.00000267       0.01986801      -0.00169350
Pt       5.59298827       4.89382064      24.62805605        1       0.02575772      -0.02177030      -0.00591141
Pt       8.44308095       4.89382011      24.62805688        1      -0.02575516      -0.02176614      -0.00592434
N        7.01803518       4.34186803      26.93106433        0      -0.00002175       0.02509785      -0.01030880
H        7.01803556       3.45219704      26.38980370        0      -0.00000545       0.00731356       0.02856542
H        6.19839471       4.86426359      26.56361187        0       0.00289591      -0.01869097      -0.00304504
H        7.83767589       4.86426167      26.56361246        0      -0.00286911      -0.01866743      -0.00304748
