31
Lattice="8.421641763931781 0.0 0.0 4.2108208819658905 7.293355709136913 0.0 0.0 0.0 44.584161137365626" Properties=species:S:1:pos:R:3:tags:I:1:forces:R:3 energy=-173.71633911132812 free_energy=-173.71633911132812 stress="0.010684081353247166 1.9636865467020925e-09 4.712133794271267e-09 1.9636865467020925e-09 0.010684140957891941 7.489488140777212e-09 4.712133794271267e-09 7.489488140777212e-09 -3.808746669164975e-06" pbc="T T T"
Pt       1.40360696       0.81037286      20.00000000        3       0.00502909       0.00377301      -0.00913864
Pt       4.21082088       0.81037286      20.00000000        3       0.00070016       0.00299442      -0.00606263
Pt       7.01803480       0.81037286      20.00000000        3      -0.00578581       0.00246594      -0.00913939
Pt       2.80721392       3.24149143      20.00000000        3       0.00224640      -0.00210341      -0.00606447
Pt       5.61442784       3.24149143      20.00000000        3      -0.00294503      -0.00089364      -0.00606355
Pt       8.42164176       3.24149143      20.00000000        3       0.00052030       0.00464880       0.01214543
Pt       4.21082088       5.67261000      20.00000000        3       0.00075784      -0.00624123      -0.00913921
Pt       7.01803480       5.67261000      20.00000000        3       0.00376410      -0.00277173       0.01214489
Pt       9.82524872       5.67261000      20.00000000        3      -0.00428691      -0.00187270       0.01214582
Pt       0.00000000       1.62074571      22.29208057        2       0.00646376       0.06193443       0.03263729
Pt       2.80721392       1.62074571      22.29208057        2      -0.01087288       0.00429802      -0.00003229
Pt       5.61442784       1.62074571      22.29208057        2       0.00171374      -0.01156419      -0.00003119
Pt       1.40360696       4.05186428      22.29208057        2      -0.06800831       0.03419078      -0.02866047
Pt       4.21082088       4.05186428      22.29208057        2       0.00915962       0.00726744      -0.00002983
Pt       7.01803480       4.05186428      22.29208057        2       0.06361181       0.04180336      -0.02867431
Pt       2.80721392       6.48298285      22.29208057        2      -0.05686734      -0.02537317       0.03263799
Pt       5.61442784       6.48298285      22.29208057        2       0.05040545      -0.03656052       0.03263038
Pt       8.42164176       6.48298285      22.29208057        2       0.00440053      -0.07599173      -0.02867053
Pt       0.00000196      -0.00000030      24.58945635        1      -0.00000975       0.00000679      -0.00312650
Pt       2.80201495       0.01134370      24.59564160        1      -0.00740149       0.00254055       0.00772648
Pt       5.61576566       0.00572201      24.60743025        1      -0.00026340      -0.01162098      -0.00824462
Pt       1.40789393       2.42710030      24.60743118        1      -0.00992824       0.00605126      -0.00825247
Pt       4.21082121       2.43111901      24.58918442        1       0.00000606       0.00000328      -0.00129199
Pt       7.01081255       2.42094611      24.59564225        1       0.00150370      -0.00769322       0.00772491
Pt       2.81963988       4.86106886      24.59564229        1       0.00587139       0.00514754       0.00772263
Pt       5.60880807       4.86053653      24.60743110        1       0.01016542       0.00556486      -0.00825047
Pt       8.42163550       4.86223911      24.65959415        1       0.00003564      -0.00000172       0.00536877
N        8.42163715       4.86223505      26.72620601        0       0.00010811       0.00001940      -0.00104624
H        7.44953944       4.86479518      27.04597119        0      -0.00115047       0.00120328      -0.00031859
H        8.90990960       5.70282081      27.04596186        0       0.00156291       0.00026737      -0.00033171
H        8.90547142       4.01908546      27.04595435        0      -0.00050636      -0.00149232      -0.00031567
