31
Lattice="8.421641763931781 0.0 0.0 4.2108208819658905 7.293355709136913 0.0 0.0 0.0 44.584161137365626" Properties=species:S:1:pos:R:3:tags:I:1:forces:R:3 energy=-172.80628967285156 free_energy=-172.80628967285156 stress="0.010336637496948242 1.4258466629613054e-09 2.3615933653076127e-09 1.4258466629613054e-09 0.010336630046367645 -5.261890922980683e-09 2.3615933653076127e-09 -5.261890922980683e-09 2.1112089598318562e-05" pbc="T T T"
Pt       1.40360696       0.81037286      20.00000000        3       0.00129041       0.00074222      -0.00833559
Pt       4.21082088       0.81037286      20.00000000        3      -0.00128724       0.00074322      -0.00833556
Pt       7.01803480       0.81037286      20.00000000        3      -0.00000165       0.00278365      -0.00336200
Pt       2.80721392       3.24149143      20.00000000        3       0.00000070      -0.00149034      -0.00833744
Pt       5.61442784       3.24149143      20.00000000        3       0.00012237       0.00007131       0.01724935
Pt       8.42164176       3.24149143      20.00000000        3      -0.00012270       0.00007218       0.01724795
Pt       4.21082088       5.67261000      20.00000000        3       0.00241406      -0.00139144      -0.00336227
Pt       7.01803480       5.67261000      20.00000000        3      -0.00000258      -0.00014095       0.01724869
Pt       9.82524872       5.67261000      20.00000000        3      -0.00241300      -0.00138967      -0.00336233
Pt       0.00000000       1.62074571      22.29208057        2      -0.11445469       0.08732501       0.01453579
Pt       2.80721392       1.62074571      22.29208057        2      -0.00000173      -0.00000204      -0.11074182
Pt       5.61442784       1.62074571      22.29208057        2       0.11445658       0.08732514       0.01453297
Pt       1.40360696       4.05186428      22.29208057        2      -0.13285537       0.05545881       0.01453599
Pt       4.21082088       4.05186428      22.29208057        2       0.13285741       0.05546074       0.01453373
Pt       7.01803480       4.05186428      22.29208057        2      -0.00000199       0.00000059       0.08593807
Pt       2.80721392       6.48298285      22.29208057        2       0.00000015       0.00000143      -0.05644581
Pt       5.61442784       6.48298285      22.29208057        2       0.01839759      -0.14278437       0.01453347
Pt       8.42164176       6.48298285      22.29208057        2      -0.01839845      -0.14278364       0.01453401
Pt      -0.00121445      -0.00070147      24.56507409        1      -0.00108010      -0.00062464      -0.00976190
Pt       2.80721397       0.01191151      24.57002380        1       0.00000046      -0.01414492      -0.00317030
Pt       5.61564247      -0.00070147      24.56507431        1       0.00108004      -0.00062442      -0.00976251
Pt       1.41392285       2.42516264      24.57002361        1      -0.01225098       0.00707354      -0.00316986
Pt       4.20050510       2.42516259      24.57002352        1       0.01225071       0.00707428      -0.00316051
Pt       7.01803472       2.40978240      24.61315534        1      -0.00000126       0.00145108       0.00335480
Pt       2.80721389       4.86363979      24.56507470        1      -0.00000020       0.00124639      -0.00976236
Pt       5.59595015       4.87290508      24.61315530        1       0.00125646      -0.00072609       0.00335561
Pt       8.44011917       4.87290518      24.61315519        1      -0.00125566      -0.00072700       0.00335630
N        7.01803508       4.05186388      26.94874488        0      -0.00001197       0.00004369       0.04613873
H        7.84053751       4.52673660      26.53110579        0       0.01023369       0.00590269      -0.01333863
H        7.01803458       3.10212010      26.53110569        0       0.00000258      -0.01184613      -0.01335297
H        6.19553208       4.52673655      26.53110530        0      -0.01022385       0.00589970      -0.01333322
