31
Lattice="8.421641763931781 0.0 0.0 4.2108208819658905 7.293355709136913 0.0 0.0 0.0 44.584161137365626" Properties=species:S:1:pos:R:3:tags:I:1:forces:R:3 energy=-172.59942626953125 free_energy=-172.59942626953125 stress="0.010525386780500412 3.2854770015688928e-09 -4.647006335289916e-09 3.2854770015688928e-09 0.01052539050579071 5.033349848027058e-10 -4.647006335289916e-09 5.033349848027058e-10 1.6266371858364437e-06" pbc="T T T"
Pt       1.40360696       0.81037286      20.00000000        3       0.00089424       0.00051289      -0.00636759
Pt       4.21082088       0.81037286      20.00000000        3      -0.00089138       0.00051406      -0.00636736
Pt       7.01803480       0.81037286      20.00000000        3      -0.00000215       0.00103783      -0.00327602
Pt       2.80721392       3.24149143      20.00000000        3       0.00000071      -0.00103210      -0.00636899
Pt       5.61442784       3.24149143      20.00000000        3       0.00061157       0.00035442       0.00581080
Pt       8.42164176       3.24149143      20.00000000        3      -0.00061181       0.00035482       0.00581011
Pt       4.21082088       5.67261000      20.00000000        3       0.00090295      -0.00051840      -0.00327513
Pt       7.01803480       5.67261000      20.00000000        3      -0.00000247      -0.00070576       0.00581080
Pt       9.82524872       5.67261000      20.00000000        3      -0.00090191      -0.00051726      -0.00327635
Pt       0.00000000       1.62074571      22.29208057        2      -0.03869987       0.04042569       0.00523533
Pt       2.80721392       1.62074571      22.29208057        2       0.00000026      -0.00000111      -0.05875551
Pt       5.61442784       1.62074571      22.29208057        2       0.03869972       0.04042622       0.00523390
Pt       1.40360696       4.05186428      22.29208057        2      -0.05436154       0.01330236       0.00523561
Pt       4.21082088       4.05186428      22.29208057        2       0.05436433       0.01330264       0.00523470
Pt       7.01803480       4.05186428      22.29208057        2      -0.00000274       0.00000056       0.06418620
Pt       2.80721392       6.48298285      22.29208057        2       0.00000029       0.00000116      -0.03006083
Pt       5.61442784       6.48298285      22.29208057        2       0.01565886      -0.05372971       0.00523364
Pt       8.42164176       6.48298285      22.29208057        2      -0.01565983      -0.05372839       0.00523434
Pt      -0.00139354      -0.00080483      24.57666921        1       0.00477597       0.00275849      -0.00865516
Pt       2.80721393       0.00735038      24.57767277        1      -0.00000045      -0.01971510      -0.00594828
Pt       5.61582153      -0.00080477      24.57666912        1      -0.00477501       0.00275790      -0.00865594
Pt       1.40997280       2.42744319      24.57767292        1      -0.01707323       0.00985712      -0.00594836
Pt       4.20445518       2.42744328      24.57767278        1       0.01707244       0.00985834      -0.00594816
Pt       7.01803464       2.41886802      24.59704307        1       0.00000021       0.01958008       0.02004103
Pt       2.80721403       4.86384662      24.57666949        1       0.00000092      -0.00551719      -0.00865465
Pt       5.60381859       4.86836243      24.59704325        1       0.01695702      -0.00978955       0.02003942
Pt       8.43225081       4.86836254      24.59704309        1      -0.01695736      -0.00978969       0.02004066
N        7.01803426       4.05186414      27.59093208        0       0.00002897      -0.00000031      -0.03135154
H        7.01803480       3.10653184      27.19264416        0      -0.00000270       0.02910328       0.00658754
H        6.19935339       4.52453038      27.19264413        0       0.02518901      -0.01454581       0.00658100
H        7.83671666       4.52453063      27.19264390        0      -0.02521510      -0.01455744       0.00659453
