31
Lattice="8.421641763931781 0.0 0.0 4.2108208819658905 7.293355709136913 0.0 0.0 0.0 44.584161137365626" Properties=species:S:1:pos:R:3:tags:I:1:forces:R:3 energy=-172.57716369628906 free_energy=-172.57716369628906 stress="0.010478949174284935 -3.1593623273096227e-09 7.160960269203542e-09 -3.1593623273096227e-09 0.01047897431999445 -2.3126202342016455e-10 7.160960269203542e-09 -2.3126202342016455e-10 -0.00018221013306174427" pbc="T T T"
Pt       1.40360696       0.81037286      20.00000000        3       0.00106688       0.00043576      -0.00487158
Pt       4.21082088       0.81037286      20.00000000        3      -0.00091017       0.00070273      -0.00487027
Pt       7.01803480       0.81037286      20.00000000        3      -0.00009034       0.00047820      -0.00420827
Pt       2.80721392       3.24149143      20.00000000        3      -0.00015290      -0.00114301      -0.00487211
Pt       5.61442784       3.24149143      20.00000000        3       0.00003974       0.00009006       0.00331837
Pt       8.42164176       3.24149143      20.00000000        3      -0.00009749      -0.00000852       0.00331765
Pt       4.21082088       5.67261000      20.00000000        3       0.00046195      -0.00016212      -0.00420833
Pt       7.01803480       5.67261000      20.00000000        3       0.00005468      -0.00007883       0.00331846
Pt       9.82524872       5.67261000      20.00000000        3      -0.00037272      -0.00031373      -0.00420940
Pt       0.00000000       1.62074571      22.29208057        2      -0.02726815       0.03339171      -0.00388896
Pt       2.80721392       1.62074571      22.29208057        2       0.00000048      -0.00000156      -0.05326935
Pt       5.61442784       1.62074571      22.29208057        2       0.02598059       0.03246850      -0.00567548
Pt       1.40360696       4.05186428      22.29208057        2      -0.04111064       0.00626602      -0.00567407
Pt       4.21082088       4.05186428      22.29208057        2       0.04255677       0.00691816      -0.00389024
Pt       7.01803480       4.05186428      22.29208057        2      -0.00000249       0.00000029       0.05031769
Pt       2.80721392       6.48298285      22.29208057        2       0.00000006       0.00000253      -0.03515313
Pt       5.61442784       6.48298285      22.29208057        2       0.01512714      -0.03873545      -0.00567638
Pt       8.42164176       6.48298285      22.29208057        2      -0.01528445      -0.04030956      -0.00389045
Pt      -0.00188893      -0.00020535      24.57707666        1       0.00315056       0.00671111      -0.00708297
Pt       2.80770912       0.00689201      24.57902283        1       0.00323680      -0.01788363      -0.00410786
Pt       5.61554982      -0.00153363      24.57707670        1      -0.00738432      -0.00062443      -0.00708467
Pt       1.40932829       2.42724367      24.57902279        1      -0.01710699       0.00613751      -0.00410679
Pt       4.20460468       2.42810124      24.57902286        1       0.01387018       0.01174543      -0.00410795
Pt       7.01544325       2.41651347      24.58942614        1      -0.00550729       0.02317810       0.00538558
Pt       2.80798101       4.86397586      24.57707689        1       0.00423405      -0.00608459      -0.00708348
Pt       5.60307505       4.87178398      24.58942592        1       0.02282762      -0.00682116       0.00538500
Pt       8.43558575       4.86729569      24.58942619        1      -0.01732013      -0.01635912       0.00538595
N        7.01803526       4.05186420      27.59415608        0      -0.00005616       0.00001763       0.00235927
H        6.54129196       4.86794451      27.19876062        0      -0.00863732      -0.03275487       0.03305996
H        7.96315143       4.05669531      27.19876078        0      -0.02398220       0.02385812       0.03303247
H        6.54966037       3.23095328      27.19876056        0       0.03267616       0.00887865       0.03305135
