31
Lattice="8.421641763931781 0.0 0.0 4.2108208819658905 7.293355709136913 0.0 0.0 0.0 44.584161137365626" Properties=species:S:1:pos:R:3:tags:I:1:forces:R:3 energy=-172.64501953125 free_energy=-172.64501953125 stress="0.010480808094143867 5.567404759432293e-09 7.667016355128453e-09 5.567404759432293e-09 0.010480798780918121 1.6569243754815943e-09 7.667016355128453e-09 1.6569243754815943e-09 5.020124262955505e-06" pbc="T T T"
Pt       1.40360696       0.81037286      20.00000000        3       0.00206537       0.00118963      -0.00083449
Pt       4.21082088       0.81037286      20.00000000        3      -0.00206226       0.00119057      -0.00083441
Pt       7.01803480       0.81037286      20.00000000        3      -0.00000222       0.00430234       0.00125507
Pt       2.80721392       3.24149143      20.00000000        3       0.00000068      -0.00238443      -0.00083530
Pt       5.61442784       3.24149143      20.00000000        3       0.00082676       0.00047801       0.03291166
Pt       8.42164176       3.24149143      20.00000000        3      -0.00082731       0.00047908       0.03291017
Pt       4.21082088       5.67261000      20.00000000        3       0.00372939      -0.00215093       0.00125444
Pt       7.01803480       5.67261000      20.00000000        3      -0.00000248      -0.00095486       0.03291133
Pt       9.82524872       5.67261000      20.00000000        3      -0.00372828      -0.00214940       0.00125340
Pt       0.00000000       1.62074571      22.29208057        2      -0.08613287       0.09567036      -0.01345566
Pt       2.80721392       1.62074571      22.29208057        2       0.00000050      -0.00000139      -0.05686364
Pt       5.61442784       1.62074571      22.29208057        2       0.08613226       0.09567114      -0.01345700
Pt       1.40360696       4.05186428      22.29208057        2      -0.12592144       0.02675893      -0.01345579
Pt       4.21082088       4.05186428      22.29208057        2       0.12592480       0.02675804      -0.01345532
Pt       7.01803480       4.05186428      22.29208057        2      -0.00000301       0.00000059       0.03622966
Pt       2.80721392       6.48298285      22.29208057        2       0.00000050       0.00000094      -0.08502084
Pt       5.61442784       6.48298285      22.29208057        2       0.03978587      -0.12243021      -0.01345646
Pt       8.42164176       6.48298285      22.29208057        2      -0.03978660      -0.12242808      -0.01345640
Pt      -0.00147953      -0.00085451      24.55778862        1      -0.00109167      -0.00063168       0.03598815
Pt       2.80721394       0.00255836      24.58008509        1      -0.00000066       0.02803832       0.00056872
Pt       5.61590763      -0.00085442      24.55778869        1       0.00109120      -0.00063170       0.03598788
Pt       1.40582257       2.42983949      24.58008580        1       0.02428382      -0.01402065       0.00056975
Pt       4.20860533       2.42983905      24.58008594        1      -0.02428329      -0.01401763       0.00056814
Pt       7.01803457       2.40505156      24.63193041        1       0.00000056       0.03446962      -0.01021197
Pt       2.80721369       4.86394586      24.55778855        1       0.00000181       0.00126051       0.03598844
Pt       5.59185356       4.87527054      24.63193081        1       0.02984816      -0.01723376      -0.01021285
Pt       8.44421573       4.87527048      24.63193045        1      -0.02984956      -0.01723236      -0.01021355
N        7.01803527       4.05186425      26.87787080        0      -0.00004172      -0.00001088       0.01677045
H        6.22194139       3.59223931      26.36492490        0       0.01376738       0.00794876      -0.00312158
H        7.01803523       4.97111287      26.36492527        0      -0.00000245      -0.01585911      -0.00313774
H        7.81412745       3.59224021      26.36492577        0      -0.01372336       0.00792043      -0.00314409
