31
Lattice="8.421641763931781 0.0 0.0 4.2108208819658905 7.293355709136913 0.0 0.0 0.0 44.584161137365626" Properties=species:S:1:pos:R:3:tags:I:1:forces:R:3 energy=-172.57716369628906 free_energy=-172.57716369628906 stress="0.010478949174284935 4.39950476049944e-09 -6.34202068638956e-09 4.39950476049944e-09 0.010478939861059189 3.5695972844251855e-09 -6.34202068638956e-09 3.5695972844251855e-09 -0.00018222755170427263" pbc="T T T"
Pt       1.40360696       0.81037286      20.00000000        3       0.00106709       0.00043603      -0.00487119
Pt       4.21082088       0.81037286      20.00000000        3      -0.00091026       0.00070280      -0.00487122
Pt       7.01803480       0.81037286      20.00000000        3      -0.00009028       0.00047834      -0.00420833
Pt       2.80721392       3.24149143      20.00000000        3      -0.00015282      -0.00114335      -0.00487167
Pt       5.61442784       3.24149143      20.00000000        3       0.00003952       0.00008993       0.00331819
Pt       8.42164176       3.24149143      20.00000000        3      -0.00009771      -0.00000845       0.00331771
Pt       4.21082088       5.67261000      20.00000000        3       0.00046194      -0.00016276      -0.00420874
Pt       7.01803480       5.67261000      20.00000000        3       0.00005507      -0.00007883       0.00331765
Pt       9.82524872       5.67261000      20.00000000        3      -0.00037290      -0.00031397      -0.00420967
Pt       0.00000000       1.62074571      22.29208057        2      -0.02726830       0.03339228      -0.00389038
Pt       2.80721392       1.62074571      22.29208057        2      -0.00000128       0.00000016      -0.05327448
Pt       5.61442784       1.62074571      22.29208057        2       0.02598287       0.03246783      -0.00567867
Pt       1.40360696       4.05186428      22.29208057        2      -0.04111089       0.00626681      -0.00567465
Pt       4.21082088       4.05186428      22.29208057        2       0.04255708       0.00692055      -0.00389308
Pt       7.01803480       4.05186428      22.29208057        2      -0.00000207      -0.00000011       0.05031757
Pt       2.80721392       6.48298285      22.29208057        2       0.00000006       0.00000108      -0.03515386
Pt       5.61442784       6.48298285      22.29208057        2       0.01512465      -0.03873722      -0.00567797
Pt       8.42164176       6.48298285      22.29208057        2      -0.01528198      -0.04031195      -0.00389314
Pt      -0.00188903      -0.00020536      24.57707610        1       0.00315219       0.00671079      -0.00708395
Pt       2.80770919       0.00689231      24.57902237        1       0.00323670      -0.01788645      -0.00409651
Pt       5.61554988      -0.00153369      24.57707616        1      -0.00738502      -0.00062686      -0.00708491
Pt       1.40932858       2.42724346      24.57902250        1      -0.01710951       0.00614070      -0.00410819
Pt       4.20460441       2.42810113      24.57902240        1       0.01386935       0.01174759      -0.00409767
Pt       7.01544307       2.41651286      24.58942645        1      -0.00550489       0.02318104       0.00538628
Pt       2.80798115       4.86397596      24.57707639        1       0.00423076      -0.00608494      -0.00708330
Pt       5.60307452       4.87178435      24.58942623        1       0.02283006      -0.00682143       0.00538437
Pt       8.43558621       4.86729596      24.58942647        1      -0.01731994      -0.01636054       0.00538616
N        7.01803451       4.05186439      27.59415633        0       0.00004396      -0.00002623       0.00235862
H        7.96315226       4.05669583      27.19876101        0      -0.02404866       0.02385826       0.03306004
H        6.54966040       3.23095331      27.19876098        0       0.03267224       0.00887400       0.03304891
H        6.54129220       4.86794359      27.19876106        0      -0.00866716      -0.03270535       0.03303595
