31
Lattice="8.421641763931781 0.0 0.0 4.2108208819658905 7.293355709136913 0.0 0.0 0.0 44.584161137365626" Properties=species:S:1:pos:R:3:tags:I:1:forces:R:3 energy=-172.80453491210938 free_energy=-172.80453491210938 stress="0.010308925993740559 -5.455063067927313e-09 9.364751640816849e-09 -5.455063067927313e-09 0.010308932512998581 1.6497824217864832e-09 9.364751640816849e-09 1.6497824217864832e-09 -2.4877521354937926e-05" pbc="T T T"
Pt       1.40360696       0.81037286      20.00000000        3       0.00189802       0.00057141      -0.00842479
Pt       4.21082088       0.81037286      20.00000000        3      -0.00144355       0.00135474      -0.00842488
Pt       7.01803480       0.81037286      20.00000000        3       0.00024264       0.00310604      -0.00555521
Pt       2.80721392       3.24149143      20.00000000        3      -0.00045091      -0.00193033      -0.00842699
Pt       5.61442784       3.24149143      20.00000000        3      -0.00004934       0.00011518       0.01854590
Pt       8.42164176       3.24149143      20.00000000        3      -0.00007432      -0.00009844       0.01854613
Pt       4.21082088       5.67261000      20.00000000        3       0.00257120      -0.00176480      -0.00555477
Pt       7.01803480       5.67261000      20.00000000        3       0.00012121      -0.00001396       0.01854646
Pt       9.82524872       5.67261000      20.00000000        3      -0.00281514      -0.00133956      -0.00555506
Pt       0.00000000       1.62074571      22.29208057        2      -0.11439211       0.09611163       0.00601726
Pt       2.80721392       1.62074571      22.29208057        2       0.00000066      -0.00000486      -0.10868442
Pt       5.61442784       1.62074571      22.29208057        2       0.10752118       0.10098962       0.00854849
Pt       1.40360696       4.05186428      22.29208057        2      -0.14122778       0.04262466       0.00855168
Pt       4.21082088       4.05186428      22.29208057        2       0.14043687       0.05101117       0.00601739
Pt       7.01803480       4.05186428      22.29208057        2       0.00000056       0.00000317       0.08438930
Pt       2.80721392       6.48298285      22.29208057        2      -0.00000006       0.00000141      -0.08291395
Pt       5.61442784       6.48298285      22.29208057        2       0.03370143      -0.14361207       0.00854908
Pt       8.42164176       6.48298285      22.29208057        2      -0.02604069      -0.14712535       0.00602308
Pt      -0.00042061      -0.00316336      24.55878976        1      -0.00017227       0.01291281       0.02384655
Pt       2.81677481       0.01235332      24.57145998        1      -0.02425697      -0.01663849      -0.01094905
Pt       5.61737808       0.00121655      24.55878957        1      -0.01110047      -0.00660532       0.02384792
Pt       1.40952513       2.41666201      24.57145961        1      -0.00228027       0.02932699      -0.01093879
Pt       4.19534223       2.43322141      24.57145923        1       0.02653798      -0.01268972      -0.01094040
Pt       7.01173881       2.40983856      24.61358335        1       0.01066612       0.00369284       0.00521515
Pt       2.80468453       4.86418282      24.55878969        1       0.01127058      -0.00630643       0.02384885
Pt       5.59914650       4.87832927      24.61358251        1      -0.00213339      -0.01108270       0.00521590
Pt       8.44321815       4.86742485      24.61358565        1      -0.00853051       0.00739133       0.00519292
N        7.01803535       4.05186400      26.95085215        0      -0.00005646      -0.00001150      -0.01155883
H        7.87595915       4.45702465      26.52760724        0      -0.01730028       0.00295500       0.00233116
H        6.93995169       3.10629921      26.52760754        0       0.01121690       0.01354429       0.00234386
H        6.23819233       4.59226816      26.52760668        0       0.00613911      -0.01648863       0.00235021
