31
Lattice="8.421641763931781 0.0 0.0 4.2108208819658905 7.293355709136913 0.0 0.0 0.0 44.584161137365626" Properties=species:S:1:pos:R:3:tags:I:1:forces:R:3 energy=-173.70553588867188 free_energy=-173.70553588867188 stress="0.010602597147226334 2.6353578505222686e-05 0.00015858004917390645 2.6353578505222686e-05 0.010675258003175259 2.9829558116034605e-05 0.00015858004917390645 2.9829558116034605e-05 1.363193064207735e-06" pbc="T T T"
Pt       1.40360696       0.81037286      20.00000000        3       0.00053899       0.00225630      -0.00493059
Pt       4.21082088       0.81037286      20.00000000        3      -0.00809693       0.00229947      -0.00728855
Pt       7.01803480       0.81037286      20.00000000        3       0.00362397       0.00381114      -0.00836235
Pt       2.80721392       3.24149143      20.00000000        3      -0.00391161      -0.00242847      -0.00997403
Pt       5.61442784       3.24149143      20.00000000        3      -0.00196685       0.00458810       0.01667562
Pt       8.42164176       3.24149143      20.00000000        3       0.00183222      -0.00250487      -0.00628865
Pt       4.21082088       5.67261000      20.00000000        3       0.00380248      -0.00329246       0.01095703
Pt       7.01803480       5.67261000      20.00000000        3      -0.00588281      -0.00197987       0.01729497
Pt       9.82524872       5.67261000      20.00000000        3      -0.00161713      -0.00620986      -0.01456663
Pt       0.00000000       1.62074571      22.29208057        2      -0.00396745       0.00816385       0.00733579
Pt       2.80721392       1.62074571      22.29208057        2       0.02906616      -0.02447660       0.00062201
Pt       5.61442784       1.62074571      22.29208057        2       0.02245177       0.08019349       0.02949814
Pt       1.40360696       4.05186428      22.29208057        2       0.01276760       0.00066864      -0.02840287
Pt       4.21082088       4.05186428      22.29208057        2       0.12255548       0.05263777       0.00195956
Pt       7.01803480       4.05186428      22.29208057        2      -0.04892410       0.02784029      -0.04459651
Pt       2.80721392       6.48298285      22.29208057        2       0.07937296      -0.01346699       0.02053297
Pt       5.61442784       6.48298285      22.29208057        2       0.01936369      -0.07742914      -0.02278081
Pt       8.42164176       6.48298285      22.29208057        2      -0.05704629      -0.01405824       0.01110141
Pt       0.02204049       0.01943573      24.59872308        1      -0.02382774      -0.01018358      -0.00499512
Pt       2.83819652       0.00586867      24.61015376        1      -0.01720848       0.01378360       0.00378110
Pt       5.64290962       0.01106192      24.58390003        1      -0.00260029       0.00122293       0.02083173
Pt       1.43423150       2.43428111      24.58418432        1      -0.02539733      -0.00925016       0.01965997
Pt       4.23034322       2.42873081      24.59965780        1      -0.00897628       0.00149806      -0.01144141
Pt       7.04807495       2.44130674      24.61108031        1      -0.00694560      -0.00109909      -0.00127761
Pt       2.82794777       4.86701143      24.59289164        1       0.00527334       0.00968319       0.02474543
Pt       5.63835157       4.87346200      24.67079620        1      -0.02808676      -0.02027544       0.00953698
Pt       8.47359624       4.86975918      24.59104281        1      -0.02010631      -0.01892068       0.00372127
N        5.97800789       4.88153704      26.71782265        0      -0.02501498      -0.00806510       0.00678444
H        5.08344290       4.90426979      27.21344726        0      -0.00787583       0.00657788      -0.03993066
H        6.54014462       5.70834262      26.93893222        0      -0.00631610       0.03699031       0.00215465
H        6.50034570       4.03249085      26.95079401        0       0.00312020      -0.03857441      -0.00235711
