31
Lattice="8.421641763931781 0.0 0.0 4.2108208819658905 7.293355709136913 0.0 0.0 0.0 44.584161137365626" Properties=species:S:1:pos:R:3:tags:I:1:forces:R:3 energy=-172.80471801757812 free_energy=-172.80471801757812 stress="0.010280412621796131 -5.985605344704936e-10 3.9994724199132747e-10 -5.985605344704936e-10 0.010280395857989788 -1.028027707405954e-08 3.9994724199132747e-10 -1.028027707405954e-08 -4.915063254884444e-05" pbc="T T T"
Pt       1.40360696       0.81037286      20.00000000        3       0.00133295       0.00095852      -0.01033330
Pt       4.21082088       0.81037286      20.00000000        3      -0.00149601       0.00067160      -0.01033226
Pt       7.01803480       0.81037286      20.00000000        3       0.00020433       0.00324837      -0.00453085
Pt       2.80721392       3.24149143      20.00000000        3       0.00016712      -0.00163409      -0.01033416
Pt       5.61442784       3.24149143      20.00000000        3       0.00074896       0.00003653       0.01849905
Pt       8.42164176       3.24149143      20.00000000        3      -0.00040557       0.00063246       0.01849812
Pt       4.21082088       5.67261000      20.00000000        3       0.00271336      -0.00180306      -0.00453046
Pt       7.01803480       5.67261000      20.00000000        3      -0.00034601      -0.00066621       0.01849815
Pt       9.82524872       5.67261000      20.00000000        3      -0.00291910      -0.00144336      -0.00453129
Pt       0.00000000       1.62074571      22.29208057        2      -0.11680753       0.09315804       0.00262161
Pt       2.80721392       1.62074571      22.29208057        2       0.00000045      -0.00000087      -0.11658290
Pt       5.61442784       1.62074571      22.29208057        2       0.12143694       0.09947510      -0.00071322
Pt       1.40360696       4.05186428      22.29208057        2      -0.14686796       0.05542973      -0.00071210
Pt       4.21082088       4.05186428      22.29208057        2       0.13908356       0.05457742       0.00262058
Pt       7.01803480       4.05186428      22.29208057        2      -0.00000125      -0.00000093       0.08542144
Pt       2.80721392       6.48298285      22.29208057        2       0.00000018       0.00000117      -0.07505751
Pt       5.61442784       6.48298285      22.29208057        2       0.02542842      -0.15490369      -0.00071548
Pt       8.42164176       6.48298285      22.29208057        2      -0.02227373      -0.14773767       0.00262023
Pt       0.00337978      -0.00540237      24.55887356        1      -0.02366596       0.01244121       0.02348270
Pt       2.80713925       0.00955697      24.56697399        1       0.00301790       0.00655048       0.01113608
Pt       5.61741655       0.00562775      24.55887401        1       0.00105924      -0.02671560       0.02348317
Pt       1.41192146       2.42640458      24.56697397        1       0.00416360      -0.00588883       0.01113589
Pt       4.20258182       2.42627425      24.56697457        1      -0.00718440      -0.00065736       0.01113513
Pt       7.02484728       2.41008321      24.61570400        1      -0.02010302       0.00545833       0.00403811
Pt       2.80084495       4.86201155      24.55887363        1       0.02260990       0.01427192       0.02348258
Pt       5.59280375       4.86685477      24.61570110        1       0.01477696       0.01468028       0.00404109
Pt       8.43645201       4.87865455      24.61570382        1       0.00532414      -0.02013910       0.00403969
N        7.01803479       4.05186370      26.95922593        0      -0.00001247       0.00007183       0.01854584
H        6.95271725       3.10521472      26.53934881        0       0.00949778      -0.01081471      -0.01499652
H        6.23087269       4.58175623      26.53934263        0      -0.01405835      -0.00285396      -0.01495742
H        7.87051759       4.46862174      26.53934810        0       0.00457546       0.01359633      -0.01497222
