31
Lattice="8.421641763931781 0.0 0.0 4.2108208819658905 7.293355709136913 0.0 0.0 0.0 44.584161137365626" Properties=species:S:1:pos:R:3:tags:I:1:forces:R:3 energy=-172.57716369628906 free_energy=-172.57716369628906 stress="0.010478957556188107 -2.888649763832518e-09 3.1778122355774485e-09 -2.888649763832518e-09 0.01047896035015583 3.1370013253706475e-09 3.1778122355774485e-09 3.1370013253706475e-09 -0.00018221346545033157" pbc="T T T"
Pt       1.40360696       0.81037286      20.00000000        3       0.00091354       0.00070211      -0.00487137
Pt       4.21082088       0.81037286      20.00000000        3      -0.00106426       0.00043675      -0.00487047
Pt       7.01803480       0.81037286      20.00000000        3       0.00008558       0.00047755      -0.00420886
Pt       2.80721392       3.24149143      20.00000000        3       0.00015448      -0.00114304      -0.00487170
Pt       5.61442784       3.24149143      20.00000000        3       0.00009670      -0.00000894       0.00331870
Pt       8.42164176       3.24149143      20.00000000        3      -0.00004028       0.00009087       0.00331712
Pt       4.21082088       5.67261000      20.00000000        3       0.00037368      -0.00031519      -0.00420848
Pt       7.01803480       5.67261000      20.00000000        3      -0.00005957      -0.00007847       0.00331768
Pt       9.82524872       5.67261000      20.00000000        3      -0.00046075      -0.00016145      -0.00420907
Pt       0.00000000       1.62074571      22.29208057        2      -0.02598142       0.03246780      -0.00567435
Pt       2.80721392       1.62074571      22.29208057        2       0.00000105      -0.00000133      -0.05326998
Pt       5.61442784       1.62074571      22.29208057        2       0.02726730       0.03339258      -0.00389026
Pt       1.40360696       4.05186428      22.29208057        2      -0.04255405       0.00691842      -0.00388916
Pt       4.21082088       4.05186428      22.29208057        2       0.04111415       0.00626637      -0.00567497
Pt       7.01803480       4.05186428      22.29208057        2      -0.00000283       0.00000039       0.05031846
Pt       2.80721392       6.48298285      22.29208057        2       0.00000055       0.00000209      -0.03515341
Pt       5.61442784       6.48298285      22.29208057        2       0.01528383      -0.04031211      -0.00389051
Pt       8.42164176       6.48298285      22.29208057        2      -0.01512790      -0.03873430      -0.00567488
Pt      -0.00112209      -0.00153381      24.57707663        1       0.00738481      -0.00062415      -0.00708377
Pt       2.80671874       0.00689215      24.57902274        1      -0.00323672      -0.01788533      -0.00410756
Pt       5.61631702      -0.00020526      24.57707657        1      -0.00314978       0.00670856      -0.00708461
Pt       1.40982349       2.42810118      24.57902266        1      -0.01387036       0.01174612      -0.00410756
Pt       4.20509972       2.42724366      24.57902282        1       0.01710739       0.00613834      -0.00410795
Pt       7.02062603       2.41651331      24.58942622        1       0.00550676       0.02317995       0.00538574
Pt       2.80644701       4.86397590      24.57707657        1      -0.00423380      -0.00608391      -0.00708306
Pt       5.60048351       4.86729561      24.58942598        1       0.01732140      -0.01636062       0.00538480
Pt       8.43299459       4.87178416      24.58942630        1      -0.02282965      -0.00682008       0.00538616
N        7.01803492       4.05186449      27.59415614        0      -0.00002599      -0.00002918       0.00236452
H        6.07291754       4.05669564      27.19876079        0       0.02402961       0.02386087       0.03305343
H        7.49477718       4.86794384      27.19876077        0       0.00866665      -0.03270482       0.03303571
H        7.48640938       3.23095318      27.19876069        0      -0.03267019       0.00887416       0.03304988
