31
Lattice="8.421641763931781 0.0 0.0 4.2108208819658905 7.293355709136913 0.0 0.0 0.0 44.584161137365626" Properties=species:S:1:pos:R:3:tags:I:1:forces:R:3 energy=-172.57989501953125 free_energy=-172.57989501953125 stress="0.010444450192153454 -4.7834118888090416e-09 -6.519705220142669e-09 -4.7834118888090416e-09 0.01055307500064373 -6.761679105693474e-05 -6.519705220142669e-09 -6.761679105693474e-05 -0.0001354952109977603" pbc="T T T"
Pt       1.40360696       0.81037286      20.00000000        3       0.00172990       0.00015713      -0.00500420
Pt       4.21082088       0.81037286      20.00000000        3      -0.00172696       0.00015805      -0.00500414
Pt       7.01803480       0.81037286      20.00000000        3      -0.00000223       0.00069522      -0.00966117
Pt       2.80721392       3.24149143      20.00000000        3       0.00000057      -0.00016558      -0.00903416
Pt       5.61442784       3.24149143      20.00000000        3      -0.00022018       0.00202610       0.00114784
Pt       8.42164176       3.24149143      20.00000000        3       0.00022018       0.00202672       0.00114745
Pt       4.21082088       5.67261000      20.00000000        3       0.00215696      -0.00053307      -0.00299373
Pt       7.01803480       5.67261000      20.00000000        3      -0.00000212      -0.00165464       0.01389873
Pt       9.82524872       5.67261000      20.00000000        3      -0.00215579      -0.00053183      -0.00299233
Pt       0.00000000       1.62074571      22.29208057        2      -0.00083246       0.02239102      -0.03542425
Pt       2.80721392       1.62074571      22.29208057        2      -0.00000083      -0.03676854      -0.03857695
Pt       5.61442784       1.62074571      22.29208057        2       0.00083261       0.02238826      -0.03542503
Pt       1.40360696       4.05186428      22.29208057        2      -0.06290536       0.02315736      -0.00485353
Pt       4.21082088       4.05186428      22.29208057        2       0.06290543       0.02315669      -0.00485977
Pt       7.01803480       4.05186428      22.29208057        2      -0.00000066       0.05622279       0.04124998
Pt       2.80721392       6.48298285      22.29208057        2      -0.00000258      -0.01184255      -0.04683290
Pt       5.61442784       6.48298285      22.29208057        2       0.03640260      -0.06522070       0.02287545
Pt       8.42164176       6.48298285      22.29208057        2      -0.03639987      -0.06522040       0.02287983
Pt      -0.00082394       0.00225931      24.57164830        1      -0.02060067       0.00187599       0.02615550
Pt       2.80721407      -0.01279113      24.59023737        1       0.00000069       0.03806660      -0.01323172
Pt       5.61525215       0.00225945      24.57164877        1       0.02059976       0.00187441       0.02614492
Pt       1.41015977       2.42061352      24.57383830        1       0.00786152      -0.00326816       0.01765105
Pt       4.20426797       2.42061391      24.57383791        1      -0.00785985      -0.00327226       0.01766172
Pt       7.01803491       2.43103459      24.57686660        1      -0.00000156      -0.04155067       0.01433815
Pt       2.80721421       4.86225654      24.56783179        1      -0.00000410      -0.00920281       0.03424212
Pt       5.59768325       4.85323042      24.60467367        1      -0.00095115      -0.00083780      -0.03186069
Pt       8.43838535       4.85323038      24.60467462        1       0.00095615      -0.00083815      -0.03186631
N        7.01803456       4.86337239      27.59995914        0       0.00003006      -0.00037245       0.01546365
H        7.83850821       4.40626288      27.19199331        0      -0.00750436       0.02293050      -0.00789282
H        6.19756178       4.40626307      27.19199331        0       0.00747757       0.02291843      -0.00790641
H        7.01803475       5.82558724      27.25215793        0      -0.00000305       0.00123440       0.03856407
