31
Lattice="8.421641763931781 0.0 0.0 4.2108208819658905 7.293355709136913 0.0 0.0 0.0 44.584161137365626" Properties=species:S:1:pos:R:3:tags:I:1:forces:R:3 energy=-172.80886840820312 free_energy=-172.80886840820312 stress="0.010343131609261036 -5.767353705721234e-09 -1.1563101171008228e-10 -5.767353705721234e-09 0.010292661376297474 -4.939647624269128e-07 -1.1563101171008228e-10 -4.939647624269128e-07 8.431238711636979e-06" pbc="T T T"
Pt       1.40360696       0.81037286      20.00000000        3       0.00099173       0.00118508      -0.00968203
Pt       4.21082088       0.81037286      20.00000000        3      -0.00098859       0.00118645      -0.00968194
Pt       7.01803480       0.81037286      20.00000000        3      -0.00000275       0.00201398      -0.00764889
Pt       2.80721392       3.24149143      20.00000000        3       0.00000129      -0.00150624      -0.00881580
Pt       5.61442784       3.24149143      20.00000000        3      -0.00076448       0.00151015       0.01716721
Pt       8.42164176       3.24149143      20.00000000        3       0.00076367       0.00151080       0.01716614
Pt       4.21082088       5.67261000      20.00000000        3       0.00310402      -0.00226739      -0.00013393
Pt       7.01803480       5.67261000      20.00000000        3      -0.00000228      -0.00184840       0.02362129
Pt       9.82524872       5.67261000      20.00000000        3      -0.00310302      -0.00226563      -0.00013277
Pt       0.00000000       1.62074571      22.29208057        2      -0.08001608       0.08057957      -0.02290832
Pt       2.80721392       1.62074571      22.29208057        2       0.00000094       0.00402224      -0.11544715
Pt       5.61442784       1.62074571      22.29208057        2       0.08001548       0.08057776      -0.02290760
Pt       1.40360696       4.05186428      22.29208057        2      -0.15491576       0.07568680       0.02985830
Pt       4.21082088       4.05186428      22.29208057        2       0.15491652       0.07568476       0.02985464
Pt       7.01803480       4.05186428      22.29208057        2      -0.00000044       0.03500661       0.08498537
Pt       2.80721392       6.48298285      22.29208057        2      -0.00000201      -0.01605149      -0.06294050
Pt       5.61442784       6.48298285      22.29208057        2       0.01797187      -0.16558495       0.01990586
Pt       8.42164176       6.48298285      22.29208057        2      -0.01796962      -0.16558464       0.01990986
Pt      -0.00383099       0.00231224      24.56366443        1       0.00768399      -0.00903479       0.00247902
Pt       2.80721428       0.01621276      24.56554129        1       0.00000035       0.00299825       0.01329468
Pt       5.61825940       0.00231210      24.56366462        1      -0.00768593      -0.00903709       0.00246888
Pt       1.41052438       2.42820830      24.56870197        1      -0.00122248      -0.00157064       0.00529690
Pt       4.20390397       2.42820816      24.56870344        1       0.00122010      -0.00157013       0.00529686
Pt       7.01803449       2.40908078      24.60324811        1       0.00000209       0.00122191       0.01186100
Pt       2.80721408       4.86097940      24.56180327        1      -0.00000118       0.01347710       0.00301611
Pt       5.59590839       4.87109614      24.62482077        1      -0.00089683       0.00053600      -0.00748372
Pt       8.44016056       4.87109600      24.62482215        1       0.00090048       0.00053727      -0.00749402
N        7.01803467       4.27635777      26.94625121        0       0.00000687       0.02830580       0.01652715
H        7.83975649       4.78219082      26.56311662        0       0.00381581      -0.01074401      -0.00306746
H        7.01803543       3.36259218      26.45243581        0      -0.00000937      -0.00821956      -0.02128810
H        6.19631335       4.78219214      26.56311576        0      -0.00381450      -0.01075558      -0.00307697
