31
Lattice="8.421641763931781 0.0 0.0 4.2108208819658905 7.293355709136913 0.0 0.0 0.0 44.584161137365626" Properties=species:S:1:pos:R:3:tags:I:1:forces:R:3 energy=-173.71585083007812 free_energy=-173.71585083007812 stress="0.010695399716496468 -6.941941688154429e-09 -3.9940308838026795e-09 -6.941941688154429e-09 0.010695381090044975 -5.152381632456127e-09 -3.9940308838026795e-09 -5.152381632456127e-09 5.400041118264198e-05" pbc="T T T"
Pt       1.40360696       0.81037286      20.00000000        3       0.00521432       0.00366296      -0.00904903
Pt       4.21082088       0.81037286      20.00000000        3       0.00041376       0.00292639      -0.00573450
Pt       7.01803480       0.81037286      20.00000000        3      -0.00578331       0.00267990      -0.00904962
Pt       2.80721392       3.24149143      20.00000000        3       0.00233071      -0.00182080      -0.00573489
Pt       5.61442784       3.24149143      20.00000000        3      -0.00274371      -0.00110759      -0.00573483
Pt       8.42164176       3.24149143      20.00000000        3      -0.00044699       0.00437550       0.01246783
Pt       4.21082088       5.67261000      20.00000000        3       0.00057009      -0.00634649      -0.00904915
Pt       7.01803480       5.67261000      20.00000000        3       0.00401009      -0.00179667       0.01246944
Pt       9.82524872       5.67261000      20.00000000        3      -0.00356512      -0.00257308       0.01246896
Pt       0.00000000       1.62074571      22.29208057        2       0.00117081       0.06463729       0.03390632
Pt       2.80721392       1.62074571      22.29208057        2      -0.01137314       0.00413767       0.00323867
Pt       5.61442784       1.62074571      22.29208057        2       0.00209985      -0.01191831       0.00323579
Pt       1.40360696       4.05186428      22.29208057        2      -0.06389572       0.03977200      -0.02262716
Pt       4.21082088       4.05186428      22.29208057        2       0.00927282       0.00777948       0.00323806
Pt       7.01803480       4.05186428      22.29208057        2       0.06638988       0.03545070      -0.02262664
Pt       2.80721392       6.48298285      22.29208057        2      -0.05656185      -0.03130785       0.03390424
Pt       5.61442784       6.48298285      22.29208057        2       0.05539398      -0.03333087       0.03390556
Pt       8.42164176       6.48298285      22.29208057        2      -0.00249675      -0.07522126      -0.02263024
Pt       0.00000026      -0.00000010      24.58918307        1       0.00000005       0.00000011      -0.00003853
Pt       2.79607692       0.01953151      24.60028355        1       0.01657372      -0.02171949      -0.01355396
Pt       5.61231297      -0.00204258      24.60570039        1      -0.00001308       0.00689884       0.00132813
Pt       1.40289561       2.43397116      24.60570068        1       0.00598269      -0.00343617       0.00132091
Pt       4.21082101       2.43111852      24.58864059        1      -0.00000251       0.00000074       0.00205165
Pt       7.00668810       2.41170762      24.60028317        1       0.01052355       0.02521382      -0.01355273
Pt       2.82969726       4.86211615      24.60028341        1      -0.02709794      -0.00349492      -0.01355232
Pt       5.61725383       4.86142678      24.60570053        1      -0.00596630      -0.00346134       0.00132003
Pt       8.42164161       4.86223704      24.65962094        1       0.00000153       0.00000078       0.02954203
N        8.42164249       4.86223792      26.72769344        0      -0.00004688      -0.00005089       0.01212043
H        8.90788892       5.70201920      27.05203582        0       0.01181334       0.01801699      -0.01451539
H        8.90579129       4.02124348      27.05203643        0       0.00966851      -0.01919432      -0.01453214
H        7.45124492       4.86344849      27.05203625        0      -0.02143656       0.00122682      -0.01453684
