31
Lattice="8.421641763931781 0.0 0.0 4.2108208819658905 7.293355709136913 0.0 0.0 0.0 44.584161137365626" Properties=species:S:1:pos:R:3:tags:I:1:forces:R:3 energy=-172.80076599121094 free_energy=-172.80076599121094 stress="0.010380436666309834 1.5289140620211583e-08 1.334245780526544e-08 1.5289140620211583e-08 0.010380453430116177 -3.4716509667021e-09 1.334245780526544e-08 -3.4716509667021e-09 0.0001381302427034825" pbc="T T T"
Pt       1.40360696       0.81037286      20.00000000        3       0.00000055      -0.00000288      -0.00917181
Pt       4.21082088       0.81037286      20.00000000        3      -0.00175529       0.00301248       0.00178078
Pt       7.01803480       0.81037286      20.00000000        3       0.00208467       0.00282887       0.00179258
Pt       2.80721392       3.24149143      20.00000000        3       0.00140874      -0.00322279       0.00179082
Pt       5.61442784       3.24149143      20.00000000        3      -0.00000143      -0.00000034       0.03522983
Pt       8.42164176       3.24149143      20.00000000        3      -0.00173054      -0.00302847       0.00177854
Pt       4.21082088       5.67261000      20.00000000        3       0.00349138       0.00001622       0.00178000
Pt       7.01803480       5.67261000      20.00000000        3      -0.00349669       0.00039450       0.00179228
Pt       9.82524872       5.67261000      20.00000000        3      -0.00000106       0.00000254      -0.01458386
Pt       0.00000000       1.62074571      22.29208057        2      -0.14292632       0.07743270       0.03907829
Pt       2.80721392       1.62074571      22.29208057        2       0.13852769       0.08505654       0.03907663
Pt       5.61442784       1.62074571      22.29208057        2      -0.00085481       0.12744059       0.05054950
Pt       1.40360696       4.05186428      22.29208057        2       0.00004053      -0.03187783      -0.06163360
Pt       4.21082088       4.05186428      22.29208057        2       0.11079585      -0.06298200       0.05055099
Pt       7.01803480       4.05186428      22.29208057        2      -0.10994357      -0.06445781       0.05055198
Pt       2.80721392       6.48298285      22.29208057        2       0.02759135       0.01597488      -0.06163410
Pt       5.61442784       6.48298285      22.29208057        2       0.00439929      -0.16249588       0.03907879
Pt       8.42164176       6.48298285      22.29208057        2      -0.02762967       0.01590726      -0.06163467
Pt       0.00294775      -0.00332158      24.56545353        1       0.00259128       0.02801150      -0.00534254
Pt       2.80861669       0.00421264      24.56545386        1      -0.02555520      -0.01176193      -0.00534230
Pt       5.61588445      -0.00628099      24.56941836        1       0.00357684      -0.02453053      -0.00742823
Pt       1.39925788       2.43022641      24.56545347        1       0.02295716      -0.01625149      -0.00533131
Pt       4.18525230       2.41956485      24.61814680        1       0.01124673      -0.01085355      -0.00883740
Pt       7.04082452       2.41475185      24.61814721        1       0.00377869       0.01516399      -0.00883768
Pt       2.80104660       4.86411551      24.56941900        1      -0.02303165       0.00917055      -0.00743768
Pt       5.61720673       4.89015628      24.61814726        1      -0.01502039      -0.00430940      -0.00883561
Pt       8.42635205       4.86663888      24.56941897        1       0.01945541       0.01536235      -0.00743617
N        5.61442830       3.24149115      26.94315245        0      -0.00008555       0.00001652      -0.00870892
H        4.88347241       2.63568417      26.52136326        0      -0.00884828       0.02317473      -0.01086186
H        5.45526069       4.17742043      26.52136468        0       0.02449887      -0.00389028      -0.01087112
H        6.50454941       2.91137178      26.52136344        0      -0.01556452      -0.01930105      -0.01090245
