31
Lattice="8.421641763931781 0.0 0.0 4.2108208819658905 7.293355709136913 0.0 0.0 0.0 44.584161137365626" Properties=species:S:1:pos:R:3:tags:I:1:forces:R:3 energy=-172.8045196533203 free_energy=-172.8045196533203 stress="0.010309025645256042 -9.658589900096715e-11 3.5641558593368927e-09 -9.658589900096715e-11 0.01030902098864317 -5.008183201482552e-09 3.5641558593368927e-09 -5.008183201482552e-09 -2.45485280174762e-05" pbc="T T T"
Pt       1.40360696       0.81037286      20.00000000        3       0.00189887       0.00057109      -0.00842613
Pt       4.21082088       0.81037286      20.00000000        3      -0.00144334       0.00135499      -0.00842446
Pt       7.01803480       0.81037286      20.00000000        3       0.00024222       0.00310514      -0.00555512
Pt       2.80721392       3.24149143      20.00000000        3      -0.00045149      -0.00193087      -0.00842643
Pt       5.61442784       3.24149143      20.00000000        3      -0.00004950       0.00011514       0.01854947
Pt       8.42164176       3.24149143      20.00000000        3      -0.00007443      -0.00009850       0.01854768
Pt       4.21082088       5.67261000      20.00000000        3       0.00257044      -0.00176472      -0.00555554
Pt       7.01803480       5.67261000      20.00000000        3       0.00012145      -0.00001332       0.01854897
Pt       9.82524872       5.67261000      20.00000000        3      -0.00281466      -0.00133859      -0.00555637
Pt       0.00000000       1.62074571      22.29208057        2      -0.11438598       0.09612243       0.00601061
Pt       2.80721392       1.62074571      22.29208057        2       0.00000372      -0.00000260      -0.10861892
Pt       5.61442784       1.62074571      22.29208057        2       0.10750468       0.10100099       0.00855646
Pt       1.40360696       4.05186428      22.29208057        2      -0.14122322       0.04260527       0.00855667
Pt       4.21082088       4.05186428      22.29208057        2       0.14044361       0.05099757       0.00601314
Pt       7.01803480       4.05186428      22.29208057        2      -0.00000377       0.00000165       0.08442733
Pt       2.80721392       6.48298285      22.29208057        2      -0.00000008       0.00000098      -0.08294754
Pt       5.61442784       6.48298285      22.29208057        2       0.03371526      -0.14360519       0.00855542
Pt       8.42164176       6.48298285      22.29208057        2      -0.02605423      -0.14712143       0.00601326
Pt      -0.00042843      -0.00315961      24.55878806        1      -0.00011265       0.01291658       0.02387233
Pt       2.81678170       0.01234223      24.57146237        1      -0.02428280      -0.01653521      -0.01096033
Pt       5.61737810       0.00120851      24.55878851        1      -0.01113248      -0.00655801       0.02387339
Pt       1.40951201       2.41666078      24.57146136        1      -0.00217660       0.02930129      -0.01094934
Pt       4.19534822       2.43323349      24.57146249        1       0.02646188      -0.01276479      -0.01096071
Pt       7.01173054       2.40982883      24.61359317        1       0.01066533       0.00383936       0.00527726
Pt       2.80469206       4.86418772      24.55878834        1       0.01124309      -0.00636064       0.02387202
Pt       5.59914239       4.87834163      24.61359419        1      -0.00200882      -0.01115821       0.00527699
Pt       8.44323066       4.86742230      24.61359385        1      -0.00865667       0.00731945       0.00527612
N        7.01803510       4.05186383      26.95094420        0      -0.00001834       0.00003064      -0.01183242
H        6.93982843       3.10632150      26.52767763        0       0.01122573       0.01343229       0.00232093
H        6.23827362       4.59236428      26.52767685        0       0.00605004      -0.01645884       0.00233760
H        7.87600187       4.45690662      26.52767758        0      -0.01725754       0.00299615       0.00232778
