31
Lattice="8.421641763931781 0.0 0.0 4.2108208819658905 7.293355709136913 0.0 0.0 0.0 44.584161137365626" Properties=species:S:1:pos:R:3:tags:I:1:forces:R:3 energy=-172.57716369628906 free_energy=-172.57716369628906 stress="0.010478951036930084 -6.267625973777058e-09 -6.094434401582305e-10 -6.267625973777058e-09 0.01047896221280098 8.426099817882005e-09 -6.094434401582305e-10 8.426099817882005e-09 -0.00018221438222099096" pbc="T T T"
Pt       1.40360696       0.81037286      20.00000000        3       0.00091375       0.00070186      -0.00487095
Pt       4.21082088       0.81037286      20.00000000        3      -0.00106365       0.00043648      -0.00487053
Pt       7.01803480       0.81037286      20.00000000        3       0.00008529       0.00047776      -0.00420901
Pt       2.80721392       3.24149143      20.00000000        3       0.00015427      -0.00114298      -0.00487205
Pt       5.61442784       3.24149143      20.00000000        3       0.00009662      -0.00000879       0.00331849
Pt       8.42164176       3.24149143      20.00000000        3      -0.00004014       0.00009069       0.00331727
Pt       4.21082088       5.67261000      20.00000000        3       0.00037383      -0.00031528      -0.00420862
Pt       7.01803480       5.67261000      20.00000000        3      -0.00005966      -0.00007875       0.00331813
Pt       9.82524872       5.67261000      20.00000000        3      -0.00046077      -0.00016097      -0.00420874
Pt       0.00000000       1.62074571      22.29208057        2      -0.02598105       0.03246773      -0.00567478
Pt       2.80721392       1.62074571      22.29208057        2       0.00000086      -0.00000153      -0.05326976
Pt       5.61442784       1.62074571      22.29208057        2       0.02726704       0.03339241      -0.00389070
Pt       1.40360696       4.05186428      22.29208057        2      -0.04255423       0.00691866      -0.00388946
Pt       4.21082088       4.05186428      22.29208057        2       0.04111420       0.00626587      -0.00567465
Pt       7.01803480       4.05186428      22.29208057        2      -0.00000291       0.00000061       0.05031859
Pt       2.80721392       6.48298285      22.29208057        2       0.00000034       0.00000153      -0.03515437
Pt       5.61442784       6.48298285      22.29208057        2       0.01528405      -0.04031197      -0.00389056
Pt       8.42164176       6.48298285      22.29208057        2      -0.01512751      -0.03873410      -0.00567476
Pt      -0.00112212      -0.00153383      24.57707650        1       0.00738694      -0.00062389      -0.00708359
Pt       2.80671874       0.00689224      24.57902271        1      -0.00323667      -0.01788598      -0.00410730
Pt       5.61631705      -0.00020522      24.57707633        1      -0.00315353       0.00670903      -0.00708464
Pt       1.40982356       2.42810113      24.57902263        1      -0.01387020       0.01174603      -0.00410691
Pt       4.20509965       2.42724357      24.57902256        1       0.01710816       0.00613996      -0.00410768
Pt       7.02062601       2.41651310      24.58942633        1       0.00550711       0.02318027       0.00538599
Pt       2.80644700       4.86397597      24.57707650        1      -0.00423293      -0.00608520      -0.00708300
Pt       5.60048340       4.86729568      24.58942609        1       0.01732096      -0.01636037       0.00538456
Pt       8.43299472       4.87178428      24.58942632        1      -0.02283007      -0.00681949       0.00538605
N        7.01803474       4.05186493      27.59415641        0      -0.00000496      -0.00006367       0.00236654
H        7.49477744       4.86794391      27.19876098        0       0.00867225      -0.03269354       0.03302991
H        7.48640938       3.23095290      27.19876062        0      -0.03267871       0.00889382       0.03306003
H        6.07291774       4.05669553      27.19876077        0       0.02401149       0.02386376       0.03304673
