31
Lattice="8.421641763931781 0.0 0.0 4.2108208819658905 7.293355709136913 0.0 0.0 0.0 44.584161137365626" Properties=species:S:1:pos:R:3:tags:I:1:forces:R:3 energy=-172.59942626953125 free_energy=-172.59942626953125 stress="0.010525369085371494 -2.4898227923841887e-09 -1.5236086003955762e-10 -2.4898227923841887e-09 0.010525370016694069 6.747409297958029e-10 -1.5236086003955762e-10 6.747409297958029e-10 1.6078042790468317e-06" pbc="T T T"
Pt       1.40360696       0.81037286      20.00000000        3       0.00089396       0.00051338      -0.00636771
Pt       4.21082088       0.81037286      20.00000000        3      -0.00089152       0.00051452      -0.00636742
Pt       7.01803480       0.81037286      20.00000000        3      -0.00000209       0.00103801      -0.00327590
Pt       2.80721392       3.24149143      20.00000000        3       0.00000076      -0.00103176      -0.00636891
Pt       5.61442784       3.24149143      20.00000000        3       0.00061160       0.00035398       0.00581092
Pt       8.42164176       3.24149143      20.00000000        3      -0.00061212       0.00035480       0.00580969
Pt       4.21082088       5.67261000      20.00000000        3       0.00090281      -0.00051873      -0.00327563
Pt       7.01803480       5.67261000      20.00000000        3      -0.00000251      -0.00070545       0.00581053
Pt       9.82524872       5.67261000      20.00000000        3      -0.00090193      -0.00051748      -0.00327656
Pt       0.00000000       1.62074571      22.29208057        2      -0.03870003       0.04042547       0.00523497
Pt       2.80721392       1.62074571      22.29208057        2       0.00000049      -0.00000134      -0.05875678
Pt       5.61442784       1.62074571      22.29208057        2       0.03869919       0.04042618       0.00523343
Pt       1.40360696       4.05186428      22.29208057        2      -0.05436112       0.01330201       0.00523440
Pt       4.21082088       4.05186428      22.29208057        2       0.05436442       0.01330285       0.00523428
Pt       7.01803480       4.05186428      22.29208057        2      -0.00000270       0.00000017       0.06418665
Pt       2.80721392       6.48298285      22.29208057        2       0.00000025       0.00000159      -0.03006061
Pt       5.61442784       6.48298285      22.29208057        2       0.01565839      -0.05372944       0.00523304
Pt       8.42164176       6.48298285      22.29208057        2      -0.01565943      -0.05372714       0.00523213
Pt      -0.00139360      -0.00080484      24.57666903        1       0.00477764       0.00275768      -0.00865585
Pt       2.80721391       0.00735054      24.57767261        1      -0.00000079      -0.01971617      -0.00594842
Pt       5.61582153      -0.00080483      24.57666907        1      -0.00477506       0.00275934      -0.00865543
Pt       1.40997306       2.42744311      24.57767273        1      -0.01707698       0.00985909      -0.00594807
Pt       4.20445490       2.42744319      24.57767258        1       0.01707664       0.00985845      -0.00594816
Pt       7.01803465       2.41886771      24.59704373        1       0.00000119       0.01958117       0.02004036
Pt       2.80721397       4.86384665      24.57666927        1       0.00000087      -0.00551735      -0.00865415
Pt       5.60381834       4.86836264      24.59704355        1       0.01695656      -0.00978978       0.02003948
Pt       8.43225112       4.86836271      24.59704345        1      -0.01695836      -0.00979371       0.02004148
N        7.01803503       4.05186437      27.59093187        0      -0.00000283       0.00000829      -0.03130928
H        7.83671657       4.52453041      27.19264428        0      -0.02518542      -0.01454290       0.00657651
H        7.01803467       3.10653221      27.19264415        0       0.00000250       0.02907437       0.00657317
H        6.19935308       4.52453024      27.19264412        0       0.02518541      -0.01453992       0.00657751
