31
Lattice="8.421641763931781 0.0 0.0 4.2108208819658905 7.293355709136913 0.0 0.0 0.0 44.584161137365626" Properties=species:S:1:pos:R:3:tags:I:1:forces:R:3 energy=-173.71632385253906 free_energy=-173.71632385253906 stress="0.010683243162930012 -3.0240909776324543e-09 4.97383378927907e-09 -3.0240909776324543e-09 0.010683245025575161 -5.453022478008052e-09 4.97383378927907e-09 -5.453022478008052e-09 -4.022568646178115e-06" pbc="T T T"
Pt       1.40360696       0.81037286      20.00000000        3       0.00502581       0.00377623      -0.00914454
Pt       4.21082088       0.81037286      20.00000000        3       0.00070498       0.00297993      -0.00607091
Pt       7.01803480       0.81037286      20.00000000        3      -0.00578732       0.00246067      -0.00914475
Pt       2.80721392       3.24149143      20.00000000        3       0.00223162      -0.00210002      -0.00607145
Pt       5.61442784       3.24149143      20.00000000        3      -0.00293549      -0.00088253      -0.00607198
Pt       8.42164176       3.24149143      20.00000000        3       0.00052926       0.00464950       0.01212451
Pt       4.21082088       5.67261000      20.00000000        3       0.00076203      -0.00623946      -0.00914550
Pt       7.01803480       5.67261000      20.00000000        3       0.00376024      -0.00277883       0.01212588
Pt       9.82524872       5.67261000      20.00000000        3      -0.00429131      -0.00186493       0.01212561
Pt       0.00000000       1.62074571      22.29208057        2       0.00652810       0.06190193       0.03250785
Pt       2.80721392       1.62074571      22.29208057        2      -0.01092419       0.00430185      -0.00014732
Pt       5.61442784       1.62074571      22.29208057        2       0.00173351      -0.01161407      -0.00014639
Pt       1.40360696       4.05186428      22.29208057        2      -0.06797885       0.03408905      -0.02892034
Pt       4.21082088       4.05186428      22.29208057        2       0.00919244       0.00730941      -0.00014232
Pt       7.01803480       4.05186428      22.29208057        2       0.06350971       0.04182918      -0.02892121
Pt       2.80721392       6.48298285      22.29208057        2      -0.05687209      -0.02530084       0.03250753
Pt       5.61442784       6.48298285      22.29208057        2       0.05034818      -0.03660190       0.03250854
Pt       8.42164176       6.48298285      22.29208057        2       0.00446883      -0.07591500      -0.02892608
Pt       0.00000068      -0.00000066      24.58940114        1       0.00000273       0.00000252      -0.00288740
Pt       2.80206867       0.01126487      24.59556372        1      -0.00775602       0.00297337       0.00804120
Pt       5.61576191       0.00573752      24.60743565        1      -0.00004145      -0.01141398      -0.00835140
Pt       1.40791149       2.42709334      24.60743548        1      -0.00987542       0.00575753      -0.00835095
Pt       4.21082111       2.43111721      24.58912145        1       0.00000851       0.00001095      -0.00102600
Pt       7.01085428       2.42102826      24.59556270        1       0.00129185      -0.00819535       0.00804876
Pt       2.81954392       4.86106304      24.59556426        1       0.00645509       0.00521346       0.00804034
Pt       5.60879269       4.86052349      24.60743614        1       0.00991253       0.00566311      -0.00835215
Pt       8.42164328       4.86223842      24.65947668        1      -0.00000114      -0.00000988       0.00737861
N        8.42163933       4.86223878      26.72624974        0      -0.00001100      -0.00007064      -0.00238764
H        8.90992228       5.70284439      27.04597022        0       0.00131546      -0.00012086      -0.00038887
H        8.90548155       4.01906651      27.04596983        0      -0.00077786      -0.00102723      -0.00041149
H        7.44950930       4.86479850      27.04596588        0      -0.00052874       0.00121678      -0.00039999
