31
Lattice="8.421641763931781 0.0 0.0 4.2108208819658905 7.293355709136913 0.0 0.0 0.0 44.584161137365626" Properties=species:S:1:pos:R:3:tags:I:1:forces:R:3 energy=-172.793212890625 free_energy=-172.793212890625 stress="0.010255716741085052 -4.694618915834781e-09 -1.2460941167802275e-09 -4.694618915834781e-09 0.010255714878439903 -1.191679532830392e-09 -1.2460941167802275e-09 -1.191679532830392e-09 -4.671958595281467e-05" pbc="T T T"
Pt       1.40360696       0.81037286      20.00000000        3       0.00000061      -0.00000211      -0.00486085
Pt       4.21082088       0.81037286      20.00000000        3      -0.00290349       0.00139665       0.00231460
Pt       7.01803480       0.81037286      20.00000000        3       0.00227678       0.00266047       0.00166681
Pt       2.80721392       3.24149143      20.00000000        3       0.00116626      -0.00330533       0.00166667
Pt       5.61442784       3.24149143      20.00000000        3      -0.00000186       0.00000032       0.03026143
Pt       8.42164176       3.24149143      20.00000000        3       0.00024368      -0.00321472       0.00231254
Pt       4.21082088       5.67261000      20.00000000        3       0.00266602       0.00181844       0.00231385
Pt       7.01803480       5.67261000      20.00000000        3      -0.00344723       0.00064492       0.00166628
Pt       9.82524872       5.67261000      20.00000000        3      -0.00000153       0.00000249      -0.01544523
Pt       0.00000000       1.62074571      22.29208057        2      -0.12471072       0.08350737       0.03022319
Pt       2.80721392       1.62074571      22.29208057        2       0.13467915       0.06624773       0.03022004
Pt       5.61442784       1.62074571      22.29208057        2       0.00400341       0.11403939       0.03494954
Pt       1.40360696       4.05186428      22.29208057        2      -0.00719426      -0.04540846      -0.07373476
Pt       4.21082088       4.05186428      22.29208057        2       0.09676009      -0.06048825       0.03495149
Pt       7.01803480       4.05186428      22.29208057        2      -0.10076841      -0.05355198       0.03494979
Pt       2.80721392       6.48298285      22.29208057        2       0.04292504       0.01647049      -0.07373302
Pt       5.61442784       6.48298285      22.29208057        2      -0.00996820      -0.14975819       0.03022049
Pt       8.42164176       6.48298285      22.29208057        2      -0.03572484       0.02894145      -0.07373659
Pt      -0.00313686       0.01189132      24.56865876        1       0.01776719      -0.02652663      -0.02491485
Pt       2.79848436      -0.00866293      24.56865897        1       0.01408842       0.02865113      -0.02491482
Pt       5.62493777      -0.01354373      24.56854451        1      -0.02909544       0.03360029      -0.00102405
Pt       1.41547481       2.42788982      24.56865833        1      -0.03186212      -0.00212816      -0.02491446
Pt       4.19313708       2.40105432      24.60715433        1      -0.01623508       0.01531098      -0.00091953
Pt       7.05291295       2.43083565      24.60715434        1      -0.00513992      -0.02171674      -0.00091886
Pt       2.79022970       4.85990679      24.56854544        1       0.04365132       0.00840238      -0.00103270
Pt       5.59723364       4.89258400      24.60715403        1       0.02137549       0.00640444      -0.00091869
Pt       8.42811564       4.87811064      24.56854450        1      -0.01455158      -0.04199848      -0.00102103
N        5.61442741       3.24149115      26.89807436        0       0.00000650       0.00001464       0.02239937
H        4.93684981       2.58110639      26.46326844        0      -0.01295951       0.02590212       0.02065424
H        5.38130674       4.15848342      26.46326801        0       0.02891383      -0.00173667       0.02066083
H        6.52512712       2.98488461      26.46326850        0      -0.01595980      -0.02417996       0.02065839
