31
Lattice="8.421641763931781 0.0 0.0 4.2108208819658905 7.293355709136913 0.0 0.0 0.0 44.584161137365626" Properties=species:S:1:pos:R:3:tags:I:1:forces:R:3 energy=-172.5792236328125 free_energy=-172.5792236328125 stress="0.01044880785048008 1.5177139545130558e-08 -1.7058974677297556e-08 1.5177139545130558e-08 0.010548681020736694 6.26904220553115e-05 -1.7058974677297556e-08 6.26904220553115e-05 -0.00013972782471682876" pbc="T T T"
Pt       1.40360696       0.81037286      20.00000000        3       0.00087934      -0.00016877      -0.00785124
Pt       4.21082088       0.81037286      20.00000000        3      -0.00087659      -0.00016803      -0.00785086
Pt       7.01803480       0.81037286      20.00000000        3      -0.00000219       0.00113453      -0.00677159
Pt       2.80721392       3.24149143      20.00000000        3       0.00000065      -0.00101605      -0.00977853
Pt       5.61442784       3.24149143      20.00000000        3       0.00030710       0.00149326       0.00436446
Pt       8.42164176       3.24149143      20.00000000        3      -0.00030743       0.00149357       0.00436330
Pt       4.21082088       5.67261000      20.00000000        3       0.00175603      -0.00096345      -0.00325748
Pt       7.01803480       5.67261000      20.00000000        3      -0.00000226      -0.00279006       0.01129696
Pt       9.82524872       5.67261000      20.00000000        3      -0.00175513      -0.00096206      -0.00325799
Pt       0.00000000       1.62074571      22.29208057        2      -0.02080383       0.03952680      -0.02778838
Pt       2.80721392       1.62074571      22.29208057        2       0.00000279      -0.01375327      -0.04704269
Pt       5.61442784       1.62074571      22.29208057        2       0.02080031       0.03952888      -0.02778548
Pt       1.40360696       4.05186428      22.29208057        2      -0.07028820       0.02672084      -0.00506855
Pt       4.21082088       4.05186428      22.29208057        2       0.07029204       0.02671788      -0.00506785
Pt       7.01803480       4.05186428      22.29208057        2      -0.00000355       0.04517056       0.05191831
Pt       2.80721392       6.48298285      22.29208057        2      -0.00000008      -0.00527362      -0.04579131
Pt       5.61442784       6.48298285      22.29208057        2       0.02188323      -0.06464486       0.01217456
Pt       8.42164176       6.48298285      22.29208057        2      -0.02188340      -0.06464200       0.01217625
Pt      -0.00531978       0.01005812      24.57148161        1      -0.01083425       0.00406499       0.02710688
Pt       2.80721398       0.00070636      24.57805074        1       0.00000085       0.04293343       0.01029925
Pt       5.61974801       0.01005819      24.57148150        1       0.01083236       0.00406376       0.02710590
Pt       1.40531578       2.42820499      24.57342232        1       0.02012552      -0.00095196       0.01956004
Pt       4.20911197       2.42820514      24.57342251        1      -0.02012162      -0.00095456       0.01954803
Pt       7.01803518       2.44506406      24.58929229        1      -0.00000393      -0.04041287      -0.01083343
Pt       2.80721432       4.86172011      24.56720396        1      -0.00000289       0.00767688       0.03755164
Pt       5.59795920       4.86991887      24.60530595        1      -0.00143129      -0.00019006      -0.03417262
Pt       8.43810915       4.86991879      24.60530631        1       0.00143610      -0.00018720      -0.03417081
N        7.01803388       4.86235759      27.60063936        0       0.00009987       0.00164005       0.01746681
H        7.01803479       3.89904877      27.25580966        0      -0.00000673      -0.00048302       0.03951412
H        6.19758620       5.31826975      27.19143430        0       0.00650747      -0.02227952      -0.00900256
H        7.83848440       5.31827022      27.19143373        0      -0.00660029      -0.02232400      -0.00895486
