31
Lattice="8.421641763931781 0.0 0.0 4.2108208819658905 7.293355709136913 0.0 0.0 0.0 44.584161137365626" Properties=species:S:1:pos:R:3:tags:I:1:forces:R:3 energy=-172.80612182617188 free_energy=-172.80612182617188 stress="0.010215003974735737 -2.5643960288590506e-09 -3.843966034366986e-09 -2.5643960288590506e-09 0.010214999318122864 2.2309982750101653e-09 -3.843966034366986e-09 2.2309982750101653e-09 -7.903599907876924e-05" pbc="T T T"
Pt       1.40360696       0.81037286      20.00000000        3       0.00000079      -0.00000278      -0.01100439
Pt       4.21082088       0.81037286      20.00000000        3      -0.00200807       0.00318997       0.00014964
Pt       7.01803480       0.81037286      20.00000000        3       0.00200855       0.00318949       0.00014827
Pt       2.80721392       3.24149143      20.00000000        3       0.00175981      -0.00333740       0.00014824
Pt       5.61442784       3.24149143      20.00000000        3      -0.00000188       0.00000016       0.03285918
Pt       8.42164176       3.24149143      20.00000000        3      -0.00175760      -0.00333633       0.00014645
Pt       4.21082088       5.67261000      20.00000000        3       0.00377157       0.00014675       0.00014850
Pt       7.01803480       5.67261000      20.00000000        3      -0.00377193       0.00014821       0.00014779
Pt       9.82524872       5.67261000      20.00000000        3      -0.00000102       0.00000241      -0.01574600
Pt       0.00000000       1.62074571      22.29208057        2      -0.14542316       0.08395849       0.01005668
Pt       2.80721392       1.62074571      22.29208057        2       0.14542545       0.08395977       0.01005592
Pt       5.61442784       1.62074571      22.29208057        2      -0.00000308       0.12772679       0.03249518
Pt       1.40360696       4.05186428      22.29208057        2       0.00000145      -0.03007207      -0.07678536
Pt       4.21082088       4.05186428      22.29208057        2       0.11061853      -0.06386460       0.03249526
Pt       7.01803480       4.05186428      22.29208057        2      -0.11061941      -0.06386387       0.03249581
Pt       2.80721392       6.48298285      22.29208057        2       0.02604317       0.01503709      -0.07678610
Pt       5.61442784       6.48298285      22.29208057        2      -0.00000137      -0.16792101       0.01005531
Pt       8.42164176       6.48298285      22.29208057        2      -0.02604232       0.01503930      -0.07678613
Pt       0.00393412       0.00227092      24.56060031        1      -0.01717389      -0.00991503       0.01757006
Pt       2.80328011       0.00227108      24.56060064        1       0.01717453      -0.00991579       0.01756853
Pt       5.61442778      -0.00512086      24.56477966        1       0.00000040      -0.03940529       0.01025088
Pt       1.40360707       2.42657606      24.56060098        1      -0.00000024       0.01982955       0.01757051
Pt       4.18586830       2.41671202      24.61159917        1       0.00751795       0.00434022       0.00178907
Pt       7.04298733       2.41671196      24.61159922        1      -0.00751918       0.00433981       0.00179163
Pt       2.80277938       4.86479728      24.56477971        1      -0.03412492       0.01970349       0.01025149
Pt       5.61442776       4.89104999      24.61159869        1       0.00000015      -0.00867960       0.00178547
Pt       8.42607615       4.86479729      24.56477984        1       0.03412503       0.01970387       0.01025285
N        5.61442736       3.24149210      26.93137695        0       0.00002578      -0.00000797       0.00368363
H        5.61442784       4.19005444      26.50980459        0      -0.00000200       0.02606519       0.00106465
H        6.43590789       2.76720975      26.50980548        0       0.02255511      -0.01302388       0.00106945
H        4.79294825       2.76721007      26.50980517        0      -0.02257840      -0.01303482       0.00105786
