31
Lattice="8.421641763931781 0.0 0.0 4.2108208819658905 7.293355709136913 0.0 0.0 0.0 44.584161137365626" Properties=species:S:1:pos:R:3:tags:I:1:forces:R:3 energy=-172.80612182617188 free_energy=-172.80612182617188 stress="0.01021499466150999 5.341599162989041e-09 5.97667781931932e-09 5.341599162989041e-09 0.010214999318122864 -4.189923685782304e-10 5.97667781931932e-09 -4.189923685782304e-10 -7.904185622464865e-05" pbc="T T T"
Pt       1.40360696       0.81037286      20.00000000        3       0.00000107      -0.00000227      -0.01100430
Pt       4.21082088       0.81037286      20.00000000        3      -0.00200826       0.00319017       0.00014961
Pt       7.01803480       0.81037286      20.00000000        3       0.00200848       0.00319016       0.00014827
Pt       2.80721392       3.24149143      20.00000000        3       0.00175933      -0.00333768       0.00014788
Pt       5.61442784       3.24149143      20.00000000        3      -0.00000146       0.00000016       0.03285918
Pt       8.42164176       3.24149143      20.00000000        3      -0.00175742      -0.00333659       0.00014746
Pt       4.21082088       5.67261000      20.00000000        3       0.00377150       0.00014686       0.00014845
Pt       7.01803480       5.67261000      20.00000000        3      -0.00377136       0.00014770       0.00014767
Pt       9.82524872       5.67261000      20.00000000        3      -0.00000148       0.00000218      -0.01574644
Pt       0.00000000       1.62074571      22.29208057        2      -0.14542568       0.08396021       0.01006041
Pt       2.80721392       1.62074571      22.29208057        2       0.14542557       0.08395977       0.01005685
Pt       5.61442784       1.62074571      22.29208057        2      -0.00000054       0.12772727       0.03249690
Pt       1.40360696       4.05186428      22.29208057        2      -0.00000005      -0.03007294      -0.07678504
Pt       4.21082088       4.05186428      22.29208057        2       0.11061900      -0.06386466       0.03249541
Pt       7.01803480       4.05186428      22.29208057        2      -0.11061904      -0.06386628       0.03249724
Pt       2.80721392       6.48298285      22.29208057        2       0.02604352       0.01503837      -0.07678440
Pt       5.61442784       6.48298285      22.29208057        2      -0.00000147      -0.16792138       0.01005621
Pt       8.42164176       6.48298285      22.29208057        2      -0.02604274       0.01503943      -0.07678587
Pt       0.00393419       0.00227097      24.56059987        1      -0.01717637      -0.00991364       0.01756914
Pt       2.80328009       0.00227113      24.56060025        1       0.01717480      -0.00991558       0.01756868
Pt       5.61442779      -0.00512094      24.56477929        1       0.00000142      -0.03940410       0.01025110
Pt       1.40360709       2.42657612      24.56060054        1      -0.00000273       0.01982903       0.01756994
Pt       4.18586849       2.41671217      24.61159959        1       0.00751483       0.00433658       0.00178478
Pt       7.04298705       2.41671206      24.61160029        1      -0.00751162       0.00433624       0.00177617
Pt       2.80277922       4.86479731      24.56477926        1      -0.03412496       0.01970478       0.01025113
Pt       5.61442776       4.89104975      24.61159990        1       0.00000039      -0.00867642       0.00178463
Pt       8.42607627       4.86479732      24.56477957        1       0.03412472       0.01970326       0.01025236
N        5.61442790       3.24149149      26.93137629        0      -0.00004197       0.00000919       0.00371969
H        4.79294802       2.76720986      26.50980456        0      -0.02256952      -0.01303316       0.00106414
H        5.61442773       4.19005435      26.50980446        0       0.00000468       0.02607296       0.00105847
H        6.43590729       2.76720990      26.50980512        0       0.02260718      -0.01304960       0.00104482
