31
Lattice="8.421641763931781 0.0 0.0 4.2108208819658905 7.293355709136913 0.0 0.0 0.0 44.584161137365626" Properties=species:S:1:pos:R:3:tags:I:1:forces:R:3 energy=-173.7161865234375 free_energy=-173.7161865234375 stress="0.010666674934327602 -1.4569506712192037e-09 1.1699137214549182e-09 -1.4569506712192037e-09 0.010666698217391968 -3.6301335271105017e-09 1.1699137214549182e-09 -3.6301335271105017e-09 -1.850143803494575e-06" pbc="T T T"
Pt       1.40360696       0.81037286      20.00000000        3       0.00502299       0.00367311      -0.00957540
Pt       4.21082088       0.81037286      20.00000000        3       0.00067040       0.00312209      -0.00628522
Pt       7.01803480       0.81037286      20.00000000        3      -0.00569649       0.00250953      -0.00957584
Pt       2.80721392       3.24149143      20.00000000        3       0.00237279      -0.00214142      -0.00628728
Pt       5.61442784       3.24149143      20.00000000        3      -0.00304144      -0.00098323      -0.00628573
Pt       8.42164176       3.24149143      20.00000000        3       0.00054034       0.00469379       0.01201913
Pt       4.21082088       5.67261000      20.00000000        3       0.00067463      -0.00618568      -0.00957501
Pt       7.01803480       5.67261000      20.00000000        3       0.00379206      -0.00281146       0.01201999
Pt       9.82524872       5.67261000      20.00000000        3      -0.00433525      -0.00187615       0.01201922
Pt       0.00000000       1.62074571      22.29208057        2       0.00612007       0.06274544       0.02846788
Pt       2.80721392       1.62074571      22.29208057        2      -0.00941833       0.00433100      -0.00398430
Pt       5.61442784       1.62074571      22.29208057        2       0.00095532      -0.01032566      -0.00398419
Pt       1.40360696       4.05186428      22.29208057        2      -0.07003824       0.03508770      -0.02903122
Pt       4.21082088       4.05186428      22.29208057        2       0.00846508       0.00598982      -0.00398461
Pt       7.01803480       4.05186428      22.29208057        2       0.06540314       0.04311170      -0.02903191
Pt       2.80721392       6.48298285      22.29208057        2      -0.05740013      -0.02607530       0.02846673
Pt       5.61442784       6.48298285      22.29208057        2       0.05128172      -0.03667150       0.02846518
Pt       8.42164176       6.48298285      22.29208057        2       0.00463491      -0.07819616      -0.02903250
Pt       0.00000121      -0.00000077      24.58874771        1      -0.00000299       0.00000196      -0.00017804
Pt       2.80256772       0.01090744      24.59462569        1      -0.00539722       0.00066449       0.01185322
Pt       5.61709935       0.00668486      24.60592488        1      -0.00698134      -0.01683369      -0.00246489
Pt       1.40806242       2.42546299      24.60592491        1      -0.01109060       0.01446036      -0.00246514
Pt       4.21082142       2.43111811      24.58900106        1       0.00000124      -0.00000077      -0.00093076
Pt       7.01091301       2.42163963      24.59462536        1       0.00211928      -0.00500579       0.01185469
Pt       2.81898398       4.86080666      24.59462531        1       0.00327085       0.00434566       0.01185460
Pt       5.60730278       4.86120680      24.60592556        1       0.01807072       0.00236894      -0.00246498
Pt       8.42164070       4.86223675      24.65974826        1      -0.00000013       0.00000173       0.03699708
N        8.42163840       4.86223885      26.72996647        0       0.00004351      -0.00002500      -0.04315192
H        8.91084979       5.70301463      27.04813473        0      -0.00225195      -0.00622622       0.00142755
H        8.90516888       4.01818232      27.04813391        0      -0.00427477       0.00508514       0.00142141
H        7.44890217       4.86551792      27.04813894        0       0.00648993       0.00116547       0.00142276
