31
Lattice="8.421641763931781 0.0 0.0 4.2108208819658905 7.293355709136913 0.0 0.0 0.0 44.584161137365626" Properties=species:S:1:pos:R:3:tags:I:1:forces:R:3 energy=-173.71566772460938 free_energy=-173.71566772460938 stress="0.01073120441287756 -2.732972959051949e-09 1.1783479969551536e-08 -2.732972959051949e-09 0.01073119230568409 6.600489932395703e-09 1.1783479969551536e-08 6.600489932395703e-09 2.1112420654390007e-05" pbc="T T T"
Pt       1.40360696       0.81037286      20.00000000        3       0.00554246       0.00235878      -0.00801837
Pt       4.21082088       0.81037286      20.00000000        3      -0.00056523       0.00240758      -0.00491869
Pt       7.01803480       0.81037286      20.00000000        3      -0.00481743       0.00361754      -0.00801858
Pt       2.80721392       3.24149143      20.00000000        3       0.00237114      -0.00071336      -0.00492007
Pt       5.61442784       3.24149143      20.00000000        3      -0.00180502      -0.00169605      -0.00491941
Pt       8.42164176       3.24149143      20.00000000        3       0.00012966       0.00453758       0.01194903
Pt       4.21082088       5.67261000      20.00000000        3      -0.00072366      -0.00597880      -0.00801748
Pt       7.01803480       5.67261000      20.00000000        3       0.00386247      -0.00237728       0.01195005
Pt       9.82524872       5.67261000      20.00000000        3      -0.00399435      -0.00215475       0.01194942
Pt       0.00000000       1.62074571      22.29208057        2      -0.00345406       0.05798853       0.04052380
Pt       2.80721392       1.62074571      22.29208057        2      -0.00074499      -0.01197879       0.01779807
Pt       5.61442784       1.62074571      22.29208057        2       0.01074300       0.00534135       0.01779708
Pt       1.40360696       4.05186428      22.29208057        2      -0.05779328       0.03318615      -0.03198673
Pt       4.21082088       4.05186428      22.29208057        2      -0.00999575       0.00663634       0.01780032
Pt       7.01803480       4.05186428      22.29208057        2       0.05763297       0.03345972      -0.03198550
Pt       2.80721392       6.48298285      22.29208057        2      -0.04849221      -0.03198811       0.04052273
Pt       5.61442784       6.48298285      22.29208057        2       0.05194741      -0.02600374       0.04052382
Pt       8.42164176       6.48298285      22.29208057        2       0.00015798      -0.06664160      -0.03198795
Pt       0.00000012      -0.00000023      24.59135501        1       0.00000273      -0.00000091      -0.01072550
Pt       2.81075553      -0.00383858      24.60838650        1      -0.02137469       0.04127210      -0.01027885
Pt       5.62262904       0.01404778      24.60009041        1       0.00885921       0.02333721      -0.01379865
Pt       1.41167264       2.41699222      24.60009087        1       0.01577742      -0.01934353      -0.01379831
Pt       4.21082096       2.43111848      24.59176359        1      -0.00000176       0.00000021      -0.01549521
Pt       7.01958811       2.43610455      24.60838673        1      -0.02505395      -0.03914558      -0.01027848
Pt       2.80211845       4.86108904      24.60838664        1       0.04643420      -0.00212700      -0.01027896
Pt       5.59816154       4.86231512      24.60009106        1      -0.02464511      -0.00399105      -0.01380739
Pt       8.42164169       4.86223729      24.65832788        1      -0.00000115      -0.00000332      -0.02938008
N        8.42164015       4.86223712      26.72027476        0       0.00010487       0.00003564       0.04299104
H        9.39294319       4.86240409      27.04136806        0       0.01735868       0.00119953       0.00291485
H        7.93613636       4.02098293      27.04136792        0      -0.00770509      -0.01573151       0.00295283
H        7.93584652       5.70332511      27.04136842        0      -0.00975643       0.01449698       0.00294064
