31
Lattice="8.421641763931781 0.0 0.0 4.2108208819658905 7.293355709136913 0.0 0.0 0.0 44.584161137365626" Properties=species:S:1:pos:R:3:tags:I:1:forces:R:3 energy=-172.8036651611328 free_energy=-172.8036651611328 stress="0.010319464839994907 2.160827516917152e-09 -4.699295175214502e-09 2.160827516917152e-09 0.010218464769423008 7.03850673744455e-05 -4.699295175214502e-09 7.03850673744455e-05 -1.0949652278213762e-05" pbc="T T T"
Pt       1.40360696       0.81037286      20.00000000        3       0.00222219       0.00139351      -0.00127256
Pt       4.21082088       0.81037286      20.00000000        3      -0.00221944       0.00139384      -0.00127202
Pt       7.01803480       0.81037286      20.00000000        3      -0.00000208      -0.00074041      -0.01569137
Pt       2.80721392       3.24149143      20.00000000        3       0.00000033      -0.00096676      -0.00621220
Pt       5.61442784       3.24149143      20.00000000        3      -0.00289069       0.00222422       0.00617525
Pt       8.42164176       3.24149143      20.00000000        3       0.00289033       0.00222447       0.00617471
Pt       4.21082088       5.67261000      20.00000000        3       0.00240639      -0.00366193       0.00331128
Pt       7.01803480       5.67261000      20.00000000        3      -0.00000239      -0.00306904       0.03510490
Pt       9.82524872       5.67261000      20.00000000        3      -0.00240552      -0.00366042       0.00331140
Pt       0.00000000       1.62074571      22.29208057        2       0.03447414       0.04056278      -0.08589620
Pt       2.80721392       1.62074571      22.29208057        2       0.00000051      -0.08158693      -0.03735928
Pt       5.61442784       1.62074571      22.29208057        2      -0.03447402       0.04056285      -0.08589655
Pt       1.40360696       4.05186428      22.29208057        2      -0.15671949       0.10426011       0.05840021
Pt       4.21082088       4.05186428      22.29208057        2       0.15672047       0.10425781       0.05839337
Pt       7.01803480       4.05186428      22.29208057        2      -0.00000045       0.13903199       0.04897992
Pt       2.80721392       6.48298285      22.29208057        2      -0.00000104      -0.02629818      -0.07215609
Pt       5.61442784       6.48298285      22.29208057        2       0.07578862      -0.09864509       0.03033204
Pt       8.42164176       6.48298285      22.29208057        2      -0.07578803      -0.09864535       0.03033522
Pt      -0.00304461       0.02275563      24.56862817        1      -0.00134430      -0.04929307       0.00071794
Pt       2.80721409       0.03047056      24.59719155        1       0.00000181       0.00795427       0.01626611
Pt       5.61747273       0.02275603      24.56862748        1       0.00134354      -0.04929647       0.00071748
Pt       1.41147392       2.44079608      24.56839057        1       0.01231278       0.00011902      -0.01237601
Pt       4.20295490       2.44079698      24.56839076        1      -0.01231455       0.00010998      -0.01237613
Pt       7.01803476       2.42387123      24.56439319        1       0.00000013       0.01124439       0.01068740
Pt       2.80721483       4.88438508      24.56182823        1      -0.00000852      -0.04882536       0.00093301
Pt       5.58385997       4.85963044      24.62284047        1       0.01313726      -0.01176212      -0.00582714
Pt       8.45220856       4.85963049      24.62284247        1      -0.01312628      -0.01176391      -0.00584109
N        7.01803407       5.33335272      26.90726047        0       0.00002545      -0.00692688      -0.04224250
H        7.83737667       4.80787881      26.53904969        0      -0.02427393       0.03297957       0.01657066
H        6.19869334       4.80787718      26.53905001        0       0.02426280       0.03298967       0.01655099
H        7.01803603       6.22020168      26.35831208        0      -0.00001588      -0.02616657       0.04145677
