31
Lattice="8.421641763931781 0.0 0.0 4.2108208819658905 7.293355709136913 0.0 0.0 0.0 44.584161137365626" Properties=species:S:1:pos:R:3:tags:I:1:forces:R:3 energy=-173.71240234375 free_energy=-173.71240234375 stress="0.010804633609950542 -2.20426628061432e-08 -1.768542290392361e-08 -2.20426628061432e-08 0.010804636403918266 3.976729168186921e-09 -1.768542290392361e-08 3.976729168186921e-09 0.00011950918269576505" pbc="T T T"
Pt       1.40360696       0.81037286      20.00000000        3       0.00531789       0.00306783      -0.00782391
Pt       4.21082088       0.81037286      20.00000000        3       0.00000222       0.00336374      -0.00487366
Pt       7.01803480       0.81037286      20.00000000        3      -0.00531940       0.00306862      -0.00782415
Pt       2.80721392       3.24149143      20.00000000        3       0.00291473      -0.00168290      -0.00487486
Pt       5.61442784       3.24149143      20.00000000        3      -0.00291564      -0.00168248      -0.00487456
Pt       8.42164176       3.24149143      20.00000000        3       0.00000126       0.00485964       0.01284596
Pt       4.21082088       5.67261000      20.00000000        3       0.00000217      -0.00613905      -0.00782359
Pt       7.01803480       5.67261000      20.00000000        3       0.00420574      -0.00242766       0.01284671
Pt       9.82524872       5.67261000      20.00000000        3      -0.00420925      -0.00242717       0.01284662
Pt       0.00000000       1.62074571      22.29208057        2       0.00000155       0.05838866       0.05123314
Pt       2.80721392       1.62074571      22.29208057        2      -0.00409781      -0.00236756       0.01918756
Pt       5.61442784       1.62074571      22.29208057        2       0.00409690      -0.00236785       0.01918580
Pt       1.40360696       4.05186428      22.29208057        2      -0.06503800       0.03755000      -0.01545627
Pt       4.21082088       4.05186428      22.29208057        2       0.00000147       0.00473312       0.01918708
Pt       7.01803480       4.05186428      22.29208057        2       0.06503712       0.03755041      -0.01545648
Pt       2.80721392       6.48298285      22.29208057        2      -0.05056789      -0.02919479       0.05123223
Pt       5.61442784       6.48298285      22.29208057        2       0.05056651      -0.02919455       0.05123162
Pt       8.42164176       6.48298285      22.29208057        2       0.00000123      -0.07509806      -0.01545872
Pt       0.00000024      -0.00000022      24.59631288        1      -0.00000043      -0.00000008      -0.03171489
Pt       2.80449232       0.00918268      24.60522767        1      -0.00508768      -0.00390480      -0.01702198
Pt       5.61714945       0.00918263      24.60522864        1       0.00508767      -0.00390584      -0.01702227
Pt       1.41019880       2.42417010      24.60522843        1      -0.00592605      -0.00245095      -0.01702307
Pt       4.21082094       2.43111859      24.59619153        1      -0.00000199       0.00000063      -0.03323233
Pt       7.01144319       2.42416999      24.60522842        1       0.00592680      -0.00245227      -0.01702191
Pt       2.81652727       4.86000296      24.60522854        1      -0.00083906       0.00635669      -0.01702192
Pt       5.60511445       4.86000261      24.60522805        1       0.00083884       0.00635937      -0.01702230
Pt       8.42164094       4.86223755      24.66368019        1       0.00000229       0.00000019      -0.02417153
N        8.42164320       4.86223747      26.72836876        0      -0.00016391      -0.00000374       0.01977193
H        9.26263996       5.34778683      27.05000595        0       0.00035121       0.00020124       0.00207798
H        8.42164238       3.89113507      27.05000509        0       0.00000262      -0.00031249       0.00205344
H        7.58064218       5.34778821      27.05000922        0      -0.00019114       0.00011185       0.00201831
