31
Lattice="8.421641763931781 0.0 0.0 4.2108208819658905 7.293355709136913 0.0 0.0 0.0 44.584161137365626" Properties=species:S:1:pos:R:3:tags:I:1:forces:R:3 energy=-172.8055419921875 free_energy=-172.8055419921875 stress="0.010267071425914764 -1.6095583532660385e-08 -2.0744712614373384e-09 -1.6095583532660385e-08 0.010219085961580276 -0.00011344774247845635 -2.0744712614373384e-09 -0.00011344774247845635 -5.9223559219390154e-05" pbc="T T T"
Pt       1.40360696       0.81037286      20.00000000        3       0.00202983       0.00306433      -0.00474870
Pt       4.21082088       0.81037286      20.00000000        3      -0.00202700       0.00306499      -0.00474709
Pt       7.01803480       0.81037286      20.00000000        3      -0.00000199       0.00165087      -0.01466018
Pt       2.80721392       3.24149143      20.00000000        3       0.00000044       0.00059643      -0.00791058
Pt       5.61442784       3.24149143      20.00000000        3      -0.00193233       0.00454693       0.00620356
Pt       8.42164176       3.24149143      20.00000000        3       0.00193156       0.00454806       0.00620088
Pt       4.21082088       5.67261000      20.00000000        3       0.00229829      -0.00216566       0.00427100
Pt       7.01803480       5.67261000      20.00000000        3      -0.00000224      -0.00018076       0.03382847
Pt       9.82524872       5.67261000      20.00000000        3      -0.00229760      -0.00216455       0.00427040
Pt       0.00000000       1.62074571      22.29208057        2       0.01726932       0.00747082      -0.08240025
Pt       2.80721392       1.62074571      22.29208057        2       0.00000503      -0.11673702      -0.04284237
Pt       5.61442784       1.62074571      22.29208057        2      -0.01727466       0.00747566      -0.08239684
Pt       1.40360696       4.05186428      22.29208057        2      -0.16514924       0.07757504       0.05780770
Pt       4.21082088       4.05186428      22.29208057        2       0.16515417       0.07757117       0.05781460
Pt       7.01803480       4.05186428      22.29208057        2      -0.00000505       0.10184043       0.06140402
Pt       2.80721392       6.48298285      22.29208057        2       0.00000063      -0.06784579      -0.07098353
Pt       5.61442784       6.48298285      22.29208057        2       0.08122884      -0.12512466       0.02001967
Pt       8.42164176       6.48298285      22.29208057        2      -0.08122978      -0.12512043       0.02001635
Pt      -0.00349742      -0.03012072      24.56748967        1      -0.01284449       0.01348814       0.00481491
Pt       2.80721439       0.00720938      24.59225126        1      -0.00000425       0.01144612       0.01752374
Pt       5.61792491      -0.03012119      24.56748986        1       0.01284967       0.01349524       0.00481518
Pt       1.40272579       2.40139788      24.56335096        1       0.02535848       0.02806430       0.01108366
Pt       4.21170212       2.40139731      24.56335363        1      -0.02535566       0.02807189       0.01106218
Pt       7.01803498       2.37698731      24.57053256        1      -0.00000297       0.04154593      -0.01217924
Pt       2.80721310       4.82862523      24.56492624        1       0.00001027       0.01905663      -0.01172408
Pt       5.59299957       4.81991646      24.62335393        1      -0.01331317      -0.00109679      -0.02257980
Pt       8.44307049       4.81991645      24.62335335        1       0.01330035      -0.00109467      -0.02256903
N        7.01803630       5.40412277      26.90602806        0       0.00000065       0.01407029       0.04637077
H        7.84003033       4.88530735      26.54188265        0       0.01501152      -0.00826157      -0.00791880
H        6.19604265       4.88531015      26.54188076        0      -0.01503465      -0.00830386      -0.00790887
H        7.01803335       6.30144367      26.37849262        0       0.00002586      -0.00054724       0.02806226
