31
Lattice="8.421641763931781 0.0 0.0 4.2108208819658905 7.293355709136913 0.0 0.0 0.0 44.584161137365626" Properties=species:S:1:pos:R:3:tags:I:1:forces:R:3 energy=-173.71240234375 free_energy=-173.71240234375 stress="0.010804611258208752 -1.6417088133380275e-08 -1.479526279268839e-08 -1.6417088133380275e-08 0.010804630815982819 -1.1976312164208025e-09 -1.479526279268839e-08 -1.1976312164208025e-09 0.00011951636406593025" pbc="T T T"
Pt       1.40360696       0.81037286      20.00000000        3       0.00531854       0.00306767      -0.00782302
Pt       4.21082088       0.81037286      20.00000000        3       0.00000176       0.00336341      -0.00487360
Pt       7.01803480       0.81037286      20.00000000        3      -0.00531998       0.00306811      -0.00782341
Pt       2.80721392       3.24149143      20.00000000        3       0.00291523      -0.00168283      -0.00487414
Pt       5.61442784       3.24149143      20.00000000        3      -0.00291584      -0.00168205      -0.00487337
Pt       8.42164176       3.24149143      20.00000000        3       0.00000067       0.00485985       0.01284590
Pt       4.21082088       5.67261000      20.00000000        3       0.00000268      -0.00613910      -0.00782338
Pt       7.01803480       5.67261000      20.00000000        3       0.00420569      -0.00242768       0.01284683
Pt       9.82524872       5.67261000      20.00000000        3      -0.00420913      -0.00242708       0.01284713
Pt      -0.00000000       1.62074571      22.29208057        2       0.00000138       0.05838901       0.05123251
Pt       2.80721392       1.62074571      22.29208057        2      -0.00409793      -0.00236643       0.01918465
Pt       5.61442784       1.62074571      22.29208057        2       0.00409734      -0.00236815       0.01918601
Pt       1.40360696       4.05186428      22.29208057        2      -0.06503852       0.03755054      -0.01545676
Pt       4.21082088       4.05186428      22.29208057        2       0.00000096       0.00473300       0.01918553
Pt       7.01803480       4.05186428      22.29208057        2       0.06503689       0.03755021      -0.01545692
Pt       2.80721392       6.48298285      22.29208057        2      -0.05056814      -0.02919487       0.05123220
Pt       5.61442784       6.48298285      22.29208057        2       0.05056488      -0.02919506       0.05123005
Pt       8.42164176       6.48298285      22.29208057        2       0.00000307      -0.07509918      -0.01545934
Pt       0.00000021      -0.00000020      24.59631286        1       0.00000185      -0.00000085      -0.03171420
Pt       2.80449239       0.00918254      24.60522742        1      -0.00508830      -0.00390448      -0.01701491
Pt       5.61714961       0.00918271      24.60522841        1       0.00508538      -0.00390733      -0.01702322
Pt       1.41019869       2.42417015      24.60522818        1      -0.00592645      -0.00245190      -0.01702334
Pt       4.21082092       2.43111839      24.59619183        1      -0.00000100      -0.00000160      -0.03323179
Pt       7.01144305       2.42417028      24.60522844        1       0.00592635      -0.00245276      -0.01702252
Pt       2.81652731       4.86000276      24.60522825        1      -0.00084113       0.00636030      -0.01702200
Pt       5.60511459       4.86000274      24.60522761        1       0.00083771       0.00636069      -0.01702306
Pt       8.42164083       4.86223767      24.66368118        1       0.00000391       0.00000157      -0.02415290
N        8.42164204       4.86223755      26.72837009        0      -0.00010292      -0.00002620       0.01970327
H        7.58064344       5.34778776      27.05001038        0      -0.00026164       0.00015154       0.00204322
H        9.26264003       5.34778693      27.05000483        0       0.00036321       0.00020654       0.00208981
H        8.42164239       3.89113518      27.05000567        0       0.00000338      -0.00033486       0.00206509
