31
Lattice="8.421641763931781 0.0 0.0 4.2108208819658905 7.293355709136913 0.0 0.0 0.0 44.584161137365626" Properties=species:S:1:pos:R:3:tags:I:1:forces:R:3 energy=-172.80076599121094 free_energy=-172.80076599121094 stress="0.01038045808672905 8.02955302248165e-09 2.798950626825558e-09 8.02955302248165e-09 0.010380465537309647 1.8881862740016686e-09 2.798950626825558e-09 1.8881862740016686e-09 0.0001381612673867494" pbc="T T T"
Pt       1.40360696       0.81037286      20.00000000        3       0.00000099      -0.00000237      -0.00917161
Pt       4.21082088       0.81037286      20.00000000        3      -0.00175591       0.00301219       0.00178066
Pt       7.01803480       0.81037286      20.00000000        3       0.00208393       0.00282830       0.00179264
Pt       2.80721392       3.24149143      20.00000000        3       0.00140890      -0.00322305       0.00179261
Pt       5.61442784       3.24149143      20.00000000        3      -0.00000173      -0.00000037       0.03522745
Pt       8.42164176       3.24149143      20.00000000        3      -0.00172977      -0.00302843       0.00177786
Pt       4.21082088       5.67261000      20.00000000        3       0.00349086       0.00001632       0.00177917
Pt       7.01803480       5.67261000      20.00000000        3      -0.00349689       0.00039498       0.00179219
Pt       9.82524872       5.67261000      20.00000000        3      -0.00000095       0.00000255      -0.01458427
Pt      -0.00000000       1.62074571      22.29208057        2      -0.14292106       0.07743186       0.03906451
Pt       2.80721392       1.62074571      22.29208057        2       0.13852170       0.08505759       0.03906577
Pt       5.61442784       1.62074571      22.29208057        2      -0.00085214       0.12743406       0.05054337
Pt       1.40360696       4.05186428      22.29208057        2       0.00004504      -0.03188353      -0.06163799
Pt       4.21082088       4.05186428      22.29208057        2       0.11078783      -0.06298339       0.05054490
Pt       7.01803480       4.05186428      22.29208057        2      -0.10994135      -0.06445167       0.05054377
Pt       2.80721392       6.48298285      22.29208057        2       0.02758962       0.01597917      -0.06163923
Pt       5.61442784       6.48298285      22.29208057        2       0.00440370      -0.16249195       0.03906573
Pt       8.42164176       6.48298285      22.29208057        2      -0.02763223       0.01590680      -0.06163824
Pt       0.00294968      -0.00332039      24.56545332        1       0.00256938       0.02800957      -0.00533208
Pt       2.80861526       0.00421499      24.56545522        1      -0.02554766      -0.01178945      -0.00534105
Pt       5.61588175      -0.00628223      24.56941843        1       0.00359497      -0.02451746      -0.00742781
Pt       1.39925651       2.43022394      24.56545499        1       0.02297928      -0.01622802      -0.00534153
Pt       4.18525512       2.41956089      24.61814264        1       0.01125495      -0.01081431      -0.00879521
Pt       7.04082668       2.41475650      24.61814306        1       0.00373841       0.01515484      -0.00879177
Pt       2.80104598       4.86411884      24.56941878        1      -0.02302616       0.00914351      -0.00742659
Pt       5.61720218       4.89015526      24.61814343        1      -0.01499891      -0.00433179      -0.00879541
Pt       8.42635508       4.86663708      24.56941754        1       0.01943477       0.01537439      -0.00742571
N        5.61442750       3.24149150      26.94317567        0      -0.00001539      -0.00001123      -0.00898483
H        5.45526539       4.17741650      26.52136659        0       0.02449790      -0.00394101      -0.01081462
H        6.50454443       2.91137004      26.52136559        0      -0.01567467      -0.01925969      -0.01081702
H        4.88347401       2.63569021      26.52136439        0      -0.00880753       0.02321149      -0.01080578
