31
Lattice="8.421641763931781 0.0 0.0 4.2108208819658905 7.293355709136913 0.0 0.0 0.0 44.584161137365626" Properties=species:S:1:pos:R:3:tags:I:1:forces:R:3 energy=-172.80653381347656 free_energy=-172.80653381347656 stress="0.010291828773915768 -1.9881836177404466e-09 -5.6403051118536496e-09 -1.9881836177404466e-09 0.01029183529317379 2.9275051272037445e-09 -5.6403051118536496e-09 2.9275051272037445e-09 2.5771720174816437e-05" pbc="T T T"
Pt       1.40360696       0.81037286      20.00000000        3       0.00000110      -0.00000221      -0.00860608
Pt       4.21082088       0.81037286      20.00000000        3      -0.00223174       0.00252699       0.00094843
Pt       7.01803480       0.81037286      20.00000000        3       0.00223059       0.00252601       0.00094676
Pt       2.80721392       3.24149143      20.00000000        3       0.00107420      -0.00319882       0.00094655
Pt       5.61442784       3.24149143      20.00000000        3      -0.00000193      -0.00000009       0.03144538
Pt       8.42164176       3.24149143      20.00000000        3      -0.00107149      -0.00319731       0.00094613
Pt       4.21082088       5.67261000      20.00000000        3       0.00330835       0.00067132       0.00094756
Pt       7.01803480       5.67261000      20.00000000        3      -0.00330780       0.00067254       0.00094658
Pt       9.82524872       5.67261000      20.00000000        3      -0.00000115       0.00000251      -0.01521611
Pt      -0.00000000       1.62074571      22.29208057        2      -0.13821016       0.07979389       0.02789625
Pt       2.80721392       1.62074571      22.29208057        2       0.13821265       0.07979453       0.02789454
Pt       5.61442784       1.62074571      22.29208057        2      -0.00000208       0.12209947       0.04594206
Pt       1.40360696       4.05186428      22.29208057        2       0.00000148      -0.03577072      -0.07026552
Pt       4.21082088       4.05186428      22.29208057        2       0.10574446      -0.06105084       0.04594242
Pt       7.01803480       4.05186428      22.29208057        2      -0.10574610      -0.06105084       0.04594301
Pt       2.80721392       6.48298285      22.29208057        2       0.03097953       0.01788672      -0.07026539
Pt       5.61442784       6.48298285      22.29208057        2      -0.00000187      -0.15959120       0.02789488
Pt       8.42164176       6.48298285      22.29208057        2      -0.03097805       0.01788924      -0.07026641
Pt       0.00224066       0.00129333      24.56523461        1       0.00060750       0.00035121      -0.00526252
Pt       2.80497350       0.00129344      24.56523433        1      -0.00060827       0.00035003      -0.00526240
Pt       5.61442780      -0.01027213      24.56857281        1       0.00000151       0.00925188      -0.00448593
Pt       1.40360710       2.42853132      24.56523488        1      -0.00000089      -0.00070212      -0.00526196
Pt       4.18533002       2.41640118      24.61131444        1       0.01195520       0.00690385       0.00162605
Pt       7.04352550       2.41640132      24.61131568        1      -0.01195530       0.00690094       0.00162818
Pt       2.79831813       4.86737316      24.56857337        1       0.00801381      -0.00462543      -0.00448391
Pt       5.61442781       4.89167162      24.61131458        1      -0.00000107      -0.01380542       0.00162565
Pt       8.43053728       4.86737321      24.56857337        1      -0.00801278      -0.00462585      -0.00448327
N        5.61442778       3.24149146      26.92948834        0       0.00003003      -0.00001164       0.03304330
H        6.43839828       2.76577185      26.51547783        0       0.00876129      -0.00505957      -0.01089360
H        4.79045778       2.76577206      26.51547760        0      -0.00878856      -0.00507270      -0.01090643
H        5.61442788       4.19293024      26.51547768        0      -0.00000232       0.01014379      -0.01090405
