31
Lattice="8.421641763931781 0.0 0.0 4.2108208819658905 7.293355709136913 0.0 0.0 0.0 44.584161137365626" Properties=species:S:1:pos:R:3:tags:I:1:forces:R:3 energy=-173.71633911132812 free_energy=-173.71633911132812 stress="0.010683250613510609 -1.0953657536560968e-08 4.73134864620306e-09 -1.0953657536560968e-08 0.010683268308639526 1.2793380577136304e-08 4.73134864620306e-09 1.2793380577136304e-08 -4.021346285298932e-06" pbc="T T T"
Pt       1.40360696       0.81037286      20.00000000        3       0.00578556       0.00245990      -0.00914496
Pt       4.21082088       0.81037286      20.00000000        3      -0.00070068       0.00298051      -0.00607026
Pt       7.01803480       0.81037286      20.00000000        3      -0.00502774       0.00377618      -0.00914472
Pt       2.80721392       3.24149143      20.00000000        3       0.00293524      -0.00088325      -0.00607175
Pt       5.61442784       3.24149143      20.00000000        3      -0.00223294      -0.00209993      -0.00607160
Pt       8.42164176       3.24149143      20.00000000        3      -0.00052636       0.00464953       0.01212567
Pt       4.21082088       5.67261000      20.00000000        3      -0.00075769      -0.00623968      -0.00914520
Pt       7.01803480       5.67261000      20.00000000        3       0.00428826      -0.00186563       0.01212546
Pt       9.82524872       5.67261000      20.00000000        3      -0.00376360      -0.00277912       0.01212621
Pt      -0.00000000       1.62074571      22.29208057        2      -0.00652265       0.06190437       0.03250781
Pt       2.80721392       1.62074571      22.29208057        2      -0.00173437      -0.01161345      -0.00014374
Pt       5.61442784       1.62074571      22.29208057        2       0.01092212       0.00430136      -0.00014640
Pt       1.40360696       4.05186428      22.29208057        2      -0.06351297       0.04182940      -0.02892086
Pt       4.21082088       4.05186428      22.29208057        2      -0.00918744       0.00730951      -0.00014680
Pt       7.01803480       4.05186428      22.29208057        2       0.06797944       0.03409180      -0.02891999
Pt       2.80721392       6.48298285      22.29208057        2      -0.05034958      -0.03660238       0.03250651
Pt       5.61442784       6.48298285      22.29208057        2       0.05687267      -0.02530098       0.03250844
Pt       8.42164176       6.48298285      22.29208057        2      -0.00446658      -0.07591571      -0.02891973
Pt      -0.00000084       0.00000056      24.58940110        1       0.00000866      -0.00000183      -0.00288594
Pt       2.80587917       0.00573848      24.60743611        1       0.00005522      -0.01142165      -0.00835007
Pt       5.61957602       0.01126525      24.59556365        1       0.00773644       0.00297486       0.00804102
Pt       1.41078862       2.42102891      24.59556388        1      -0.00128985      -0.00819591       0.00804079
Pt       4.21082146       2.43111941      24.58912124        1      -0.00000598      -0.00000600      -0.00102565
Pt       7.01373267       2.42709472      24.60743592        1       0.00986733       0.00575800      -0.00834918
Pt       2.81285140       4.86052375      24.60743608        1      -0.00991880       0.00566581      -0.00834870
Pt       5.60209891       4.86106244      24.59556325        1      -0.00644615       0.00522343       0.00804023
Pt       8.42164340       4.86223789      24.65947900        1       0.00000003       0.00000429       0.00735343
N        8.42164227       4.86223558      26.72624994        0      -0.00002082       0.00007260      -0.00235331
H        9.39376885       4.86479744      27.04597428        0       0.00053723       0.00119854      -0.00041173
H        7.93779648       4.01906507      27.04596389        0       0.00075813      -0.00107905      -0.00038379
H        7.93335652       5.70284280      27.04597051        0      -0.00128207      -0.00019556      -0.00042161
