31
Lattice="8.421641763931781 0.0 0.0 4.2108208819658905 7.293355709136913 0.0 0.0 0.0 44.584161137365626" Properties=species:S:1:pos:R:3:tags:I:1:forces:R:3 energy=-172.76077270507812 free_energy=-172.76077270507812 stress="0.010311962105333805 -1.4928050404705573e-05 -0.00013859009777661413 -1.4928050404705573e-05 0.010457431897521019 -5.769037215941353e-06 -0.00013859009777661413 -5.769037215941353e-06 0.00011395890032872558" pbc="T T T"
Pt       1.40360696       0.81037286      20.00000000        3       0.00359636       0.00089347       0.00178838
Pt       4.21082088       0.81037286      20.00000000        3      -0.00257861       0.00063619       0.00243133
Pt       7.01803480       0.81037286      20.00000000        3       0.00101483       0.00299967      -0.00506485
Pt       2.80721392       3.24149143      20.00000000        3       0.00064410       0.00004762      -0.00558019
Pt       5.61442784       3.24149143      20.00000000        3      -0.00087737       0.00217731       0.01665124
Pt       8.42164176       3.24149143      20.00000000        3       0.00206121       0.00258037       0.01904246
Pt       4.21082088       5.67261000      20.00000000        3       0.00334158      -0.00202560       0.00241435
Pt       7.01803480       5.67261000      20.00000000        3       0.00170416      -0.00178906       0.03803498
Pt       9.82524872       5.67261000      20.00000000        3      -0.00218018      -0.00275763       0.00365677
Pt      -0.00000000       1.62074571      22.29208057        2      -0.03199790       0.05640718      -0.03371410
Pt       2.80721392       1.62074571      22.29208057        2      -0.01448185      -0.06945250      -0.06476814
Pt       5.61442784       1.62074571      22.29208057        2       0.00526866       0.04512754      -0.03812243
Pt       1.40360696       4.05186428      22.29208057        2      -0.18541706       0.07464709       0.05175170
Pt       4.21082088       4.05186428      22.29208057        2       0.12807199       0.06055000       0.02495394
Pt       7.01803480       4.05186428      22.29208057        2       0.02192670       0.06693349       0.03637904
Pt       2.80721392       6.48298285      22.29208057        2      -0.01335566      -0.01757342      -0.05837104
Pt       5.61442784       6.48298285      22.29208057        2       0.04336262      -0.09789157      -0.00417683
Pt       8.42164176       6.48298285      22.29208057        2      -0.06064120      -0.12906280       0.03078477
Pt      -0.02582842       0.00438245      24.56952082        1       0.00097460       0.00780991      -0.00144649
Pt       2.78294469      -0.00632523      24.60469603        1      -0.00182503      -0.01911807       0.00361936
Pt       5.60478420       0.00108439      24.56933679        1      -0.00622759       0.01056206      -0.00237414
Pt       1.39613459       2.41609217      24.57114126        1      -0.00143833      -0.00899925      -0.00352310
Pt       4.18356981       2.41354097      24.57077805        1      -0.00543259      -0.00640825      -0.00210613
Pt       6.99415196       2.42616480      24.60377372        1      -0.00150052       0.01629930       0.00149949
Pt       2.79400950       4.85514468      24.55989932        1       0.02789868       0.00338057       0.00331745
Pt       5.56628828       4.85108933      24.62028340        1       0.01314889      -0.00009951       0.01262015
Pt       8.44832004       4.85079228      24.62962584        1      -0.00405436       0.00177652       0.02443785
N        6.99704446       4.86818710      26.89483231        0       0.02619196       0.00152306      -0.01386952
H        6.63332661       4.04999188      26.35085436        0       0.00257105      -0.03224046      -0.01686990
H        6.63333105       5.68662490      26.35178264        0       0.00387014       0.03327391      -0.01944199
H        7.99093199       4.86823759      26.58755637        0       0.04636064      -0.00020695      -0.00395455
