31
Lattice="8.421641763931781 0.0 0.0 4.2108208819658905 7.293355709136913 0.0 0.0 0.0 44.584161137365626" Properties=species:S:1:pos:R:3:tags:I:1:forces:R:3 energy=-173.71029663085938 free_energy=-173.71029663085938 stress="0.010712281800806522 1.0653369297841664e-09 -4.269308462312438e-09 1.0653369297841664e-09 0.010712319985032082 1.3288043554382512e-08 -4.269308462312438e-09 1.3288043554382512e-08 4.443043962965021e-06" pbc="T T T"
Pt       1.40360696       0.81037286      20.00000000        3       0.00529898       0.00305629      -0.00948277
Pt       4.21082088       0.81037286      20.00000000        3       0.00000174       0.00307797      -0.00639030
Pt       7.01803480       0.81037286      20.00000000        3      -0.00530103       0.00305657      -0.00948313
Pt       2.80721392       3.24149143      20.00000000        3       0.00266859      -0.00153999      -0.00639156
Pt       5.61442784       3.24149143      20.00000000        3      -0.00266901      -0.00153990      -0.00639147
Pt       8.42164176       3.24149143      20.00000000        3       0.00000144       0.00475508       0.01275083
Pt       4.21082088       5.67261000      20.00000000        3       0.00000205      -0.00611644      -0.00948295
Pt       7.01803480       5.67261000      20.00000000        3       0.00411567      -0.00237477       0.01275158
Pt       9.82524872       5.67261000      20.00000000        3      -0.00411898      -0.00237475       0.01275158
Pt      -0.00000000       1.62074571      22.29208057        2       0.00000022       0.06344138       0.03027454
Pt       2.80721392       1.62074571      22.29208057        2      -0.00684060      -0.00395192      -0.00154310
Pt       5.61442784       1.62074571      22.29208057        2       0.00684133      -0.00395076      -0.00154088
Pt       1.40360696       4.05186428      22.29208057        2      -0.07011893       0.04048357      -0.02523279
Pt       4.21082088       4.05186428      22.29208057        2       0.00000225       0.00789982      -0.00154358
Pt       7.01803480       4.05186428      22.29208057        2       0.07011618       0.04048111      -0.02523061
Pt       2.80721392       6.48298285      22.29208057        2      -0.05494194      -0.03171941       0.03027183
Pt       5.61442784       6.48298285      22.29208057        2       0.05494190      -0.03172004       0.03027123
Pt       8.42164176       6.48298285      22.29208057        2       0.00000098      -0.08096422      -0.02523273
Pt       0.00000042      -0.00000031      24.58850351        1      -0.00000124       0.00000153       0.00132221
Pt       2.80355200       0.00802508      24.60119124        1      -0.00458889      -0.00414484      -0.00084980
Pt       5.61808997       0.00802492      24.60119141        1       0.00458779      -0.00414236      -0.00084883
Pt       1.40872587       2.42393459      24.60119133        1      -0.00588349      -0.00190437      -0.00084825
Pt       4.21082089       2.43111861      24.58865153        1       0.00000226      -0.00000310       0.00399387
Pt       7.01291603       2.42393453      24.60119155        1       0.00588148      -0.00190385      -0.00085761
Pt       2.81599489       4.86139597      24.60119139        1      -0.00129430       0.00604796      -0.00084925
Pt       5.60564673       4.86139602      24.60119148        1       0.00129530       0.00604715      -0.00084834
Pt       8.42164127       4.86223706      24.66375444        1      -0.00000031       0.00000169       0.01510698
N        8.42164196       4.86223606      26.73316180        0      -0.00003543       0.00010851      -0.02633518
H        9.26401325       4.37589374      27.05193613        0      -0.02551144       0.01472947       0.00331542
H        7.57927063       4.37589360      27.05193734        0       0.02554224       0.01474100       0.00329994
H        8.42164180       5.83492475      27.05193705        0       0.00000522      -0.02957863       0.00327285
