31
Lattice="8.421641763931781 0.0 0.0 4.2108208819658905 7.293355709136913 0.0 0.0 0.0 44.584161137365626" Properties=species:S:1:pos:R:3:tags:I:1:forces:R:3 energy=-172.76077270507812 free_energy=-172.76077270507812 stress="0.010311966761946678 -1.4924015886208508e-05 -0.0001385857176501304 -1.4924015886208508e-05 0.010457453317940235 -5.75524654777837e-06 -0.0001385857176501304 -5.75524654777837e-06 0.00011398407514207065" pbc="T T T"
Pt       1.40360696       0.81037286      20.00000000        3       0.00359640       0.00089350       0.00178879
Pt       4.21082088       0.81037286      20.00000000        3      -0.00257904       0.00063600       0.00243214
Pt       7.01803480       0.81037286      20.00000000        3       0.00101469       0.00300023      -0.00506422
Pt       2.80721392       3.24149143      20.00000000        3       0.00064444       0.00004734      -0.00557959
Pt       5.61442784       3.24149143      20.00000000        3      -0.00087747       0.00217705       0.01665208
Pt       8.42164176       3.24149143      20.00000000        3       0.00206079       0.00258010       0.01904270
Pt       4.21082088       5.67261000      20.00000000        3       0.00334212      -0.00202564       0.00241503
Pt       7.01803480       5.67261000      20.00000000        3       0.00170392      -0.00178889       0.03803518
Pt       9.82524872       5.67261000      20.00000000        3      -0.00218020      -0.00275754       0.00365788
Pt      -0.00000000       1.62074571      22.29208057        2      -0.03199792       0.05640807      -0.03371385
Pt       2.80721392       1.62074571      22.29208057        2      -0.01448185      -0.06945205      -0.06476761
Pt       5.61442784       1.62074571      22.29208057        2       0.00526870       0.04512530      -0.03812088
Pt       1.40360696       4.05186428      22.29208057        2      -0.18541493       0.07464880       0.05175481
Pt       4.21082088       4.05186428      22.29208057        2       0.12806934       0.06055124       0.02495677
Pt       7.01803480       4.05186428      22.29208057        2       0.02192647       0.06693383       0.03638012
Pt       2.80721392       6.48298285      22.29208057        2      -0.01335807      -0.01757482      -0.05836710
Pt       5.61442784       6.48298285      22.29208057        2       0.04336252      -0.09789164      -0.00417627
Pt       8.42164176       6.48298285      22.29208057        2      -0.06063940      -0.12906195       0.03078726
Pt      -0.02582854       0.00438254      24.56952098        1       0.00097526       0.00780991      -0.00144571
Pt       2.78294474      -0.00632465      24.60469664        1      -0.00182575      -0.01912211       0.00361997
Pt       5.60478421       0.00108447      24.56933711        1      -0.00622799       0.01055956      -0.00238353
Pt       1.39613454       2.41609216      24.57114146        1      -0.00143922      -0.00899922      -0.00352395
Pt       4.18356974       2.41354097      24.57077785        1      -0.00543411      -0.00640681      -0.00210628
Pt       6.99415176       2.42616425      24.60377366        1      -0.00149773       0.01630436       0.00149997
Pt       2.79400924       4.85514467      24.55989960        1       0.02789830       0.00338003       0.00330670
Pt       5.56628767       4.85108939      24.62028323        1       0.01315621      -0.00010073       0.01262324
Pt       8.44832023       4.85079228      24.62962563        1      -0.00405654       0.00177586       0.02443509
N        6.99704555       4.86818754      26.89483295        0       0.02615190       0.00145815      -0.01387206
H        6.63333115       5.68662561      26.35178378        0       0.00386064       0.03329125      -0.01945955
H        7.99093214       4.86823759      26.58755760        0       0.04639292      -0.00020453      -0.00396090
H        6.63332659       4.04999130      26.35085474        0       0.00258563      -0.03219452      -0.01684633
