31
Lattice="8.421641763931781 0.0 0.0 4.2108208819658905 7.293355709136913 0.0 0.0 0.0 44.584161137365626" Properties=species:S:1:pos:R:3:tags:I:1:forces:R:3 energy=-173.71629333496094 free_energy=-173.71629333496094 stress="0.010681308805942535 -7.204492113999095e-09 3.977706608537801e-09 -7.204492113999095e-09 0.010681317187845707 4.978935042032617e-09 3.977706608537801e-09 4.978935042032617e-09 -1.1314497896819375e-05" pbc="T T T"
Pt       1.40360696       0.81037286      20.00000000        3       0.00498518       0.00378852      -0.00923997
Pt       4.21082088       0.81037286      20.00000000        3       0.00073698       0.00292022      -0.00625581
Pt       7.01803480       0.81037286      20.00000000        3      -0.00577811       0.00241852      -0.00924066
Pt       2.80721392       3.24149143      20.00000000        3       0.00216396      -0.00209791      -0.00625697
Pt       5.61442784       3.24149143      20.00000000        3      -0.00290077      -0.00082462      -0.00625685
Pt       8.42164176       3.24149143      20.00000000        3       0.00058219       0.00474159       0.01216385
Pt       4.21082088       5.67261000      20.00000000        3       0.00079317      -0.00621127      -0.00923964
Pt       7.01803480       5.67261000      20.00000000        3       0.00381321      -0.00287097       0.01216516
Pt       9.82524872       5.67261000      20.00000000        3      -0.00439676      -0.00186504       0.01216564
Pt      -0.00000000       1.62074571      22.29208057        2       0.00694696       0.06179168       0.03147097
Pt       2.80721392       1.62074571      22.29208057        2      -0.01138311       0.00434990      -0.00082618
Pt       5.61442784       1.62074571      22.29208057        2       0.00192336      -0.01203427      -0.00082950
Pt       1.40360696       4.05186428      22.29208057        2      -0.06882756       0.03405468      -0.03045738
Pt       4.21082088       4.05186428      22.29208057        2       0.00945909       0.00768434      -0.00082525
Pt       7.01803480       4.05186428      22.29208057        2       0.06390517       0.04258269      -0.03045841
Pt       2.80721392       6.48298285      22.29208057        2      -0.05698634      -0.02488391       0.03147206
Pt       5.61442784       6.48298285      22.29208057        2       0.05004175      -0.03691035       0.03146649
Pt       8.42164176       6.48298285      22.29208057        2       0.00492589      -0.07663304      -0.03046364
Pt       0.00000168      -0.00000104      24.58895345        1      -0.00000766       0.00000244      -0.00111422
Pt       2.80250064       0.01066196      24.59491189        1      -0.01094452       0.00718255       0.01077573
Pt       5.61556324       0.00557633      24.60732422        1       0.00255186      -0.00840458      -0.00835222
Pt       1.40786730       2.42734817      24.60732451        1      -0.00854597       0.00199866      -0.00835231
Pt       4.21082192       2.43111857      24.58864002        1      -0.00000513       0.00000129       0.00075740
Pt       7.01115860       2.42170539      24.59491248        1      -0.00073477      -0.01306143       0.01077673
Pt       2.81880605       4.86098726      24.59491338        1       0.01168563       0.00589746       0.01076826
Pt       5.60903416       4.86043257      24.60732516        1       0.00600150       0.00640126      -0.00835226
Pt       8.42164377       4.86224142      24.65998499        1      -0.00000144      -0.00000428       0.00935417
N        8.42164066       4.86223978      26.72723630        0      -0.00002578      -0.00008553      -0.00853711
H        8.90570014       4.01866038      27.04607191        0      -0.00505835       0.00643700       0.00057673
H        7.44905110       4.86480854      27.04607338        0       0.00807732       0.00118917       0.00057443
H        8.91016216       5.70323390      27.04609067        0      -0.00299712      -0.00755522       0.00057095
