31
Lattice="8.421641763931781 0.0 0.0 4.2108208819658905 7.293355709136913 0.0 0.0 0.0 44.584161137365626" Properties=species:S:1:pos:R:3:tags:I:1:forces:R:3 energy=-172.65194702148438 free_energy=-172.65194702148438 stress="0.010527044534683228 2.454176417643339e-09 -1.7401058372001899e-09 2.454176417643339e-09 0.010527065955102444 3.2104610081518103e-09 -1.7401058372001899e-09 3.2104610081518103e-09 0.00012941390741616488" pbc="T T T"
Pt       1.40360696       0.81037286      20.00000000        3       0.00000078      -0.00000238      -0.00398511
Pt       4.21082088       0.81037286      20.00000000        3      -0.00164497       0.00305777       0.01139042
Pt       7.01803480       0.81037286      20.00000000        3       0.00164448       0.00305680       0.01138905
Pt       2.80721392       3.24149143      20.00000000        3       0.00182749      -0.00295640       0.01138845
Pt       5.61442784       3.24149143      20.00000000        3      -0.00000160      -0.00000017       0.04826033
Pt       8.42164176       3.24149143      20.00000000        3      -0.00182495      -0.00295513       0.01138702
Pt       4.21082088       5.67261000      20.00000000        3       0.00347497      -0.00010199       0.01138929
Pt       7.01803480       5.67261000      20.00000000        3      -0.00347506      -0.00010093       0.01138851
Pt       9.82524872       5.67261000      20.00000000        3      -0.00000133       0.00000253      -0.00338602
Pt      -0.00000000       1.62074571      22.29208057        2      -0.12621558       0.07286847       0.01767559
Pt       2.80721392       1.62074571      22.29208057        2       0.12621847       0.07286976       0.01767549
Pt       5.61442784       1.62074571      22.29208057        2      -0.00000251       0.09583743      -0.00172954
Pt       1.40360696       4.05186428      22.29208057        2       0.00000098      -0.01845530      -0.03355387
Pt       4.21082088       4.05186428      22.29208057        2       0.08300004      -0.04791960      -0.00172841
Pt       7.01803480       4.05186428      22.29208057        2      -0.08300206      -0.04791931      -0.00172843
Pt       2.80721392       6.48298285      22.29208057        2       0.01598400       0.00922922      -0.03355548
Pt       5.61442784       6.48298285      22.29208057        2      -0.00000158      -0.14574154       0.01767462
Pt       8.42164176       6.48298285      22.29208057        2      -0.01598213       0.00923043      -0.03355524
Pt       0.00357564       0.00206437      24.56716534        1      -0.00151576      -0.00087627      -0.00904191
Pt       2.80363821       0.00206420      24.56716503        1       0.00151754      -0.00087604      -0.00904220
Pt       5.61442809      -0.00257074      24.58162492        1      -0.00000263      -0.00449240      -0.00639306
Pt       1.40360682       2.42698934      24.56716510        1       0.00000206       0.00175296      -0.00904167
Pt       4.18471200       2.41604434      24.62651991        1       0.00350179       0.00202321      -0.00719351
Pt       7.04414376       2.41604441      24.62652020        1      -0.00350442       0.00202271      -0.00718950
Pt       2.80498776       4.86352251      24.58162457        1      -0.00388914       0.00224303      -0.00639248
Pt       5.61442771       4.89238492      24.62652079        1      -0.00000051      -0.00404329      -0.00719370
Pt       8.42386736       4.86352212      24.58162439        1       0.00389066       0.00224649      -0.00639199
N        5.61442791       3.24149153      26.85797708        0       0.00000348      -0.00001785       0.01052240
H        4.81735919       3.70167963      26.34499075        0       0.02189698      -0.01264435       0.00031725
H        6.41149697       3.70168020      26.34499121        0      -0.02190299      -0.01265193       0.00031820
H        5.61442764       2.32111465      26.34499097        0       0.00000350       0.02531397       0.00032565
