31
Lattice="8.421641763931781 0.0 0.0 4.2108208819658905 7.293355709136913 0.0 0.0 0.0 44.584161137365626" Properties=species:S:1:pos:R:3:tags:I:1:forces:R:3 energy=-172.79193115234375 free_energy=-172.79193115234375 stress="0.010310125537216663 -3.958661398684171e-09 6.355624471154897e-09 -3.958661398684171e-09 0.010310154408216476 4.878268011765385e-09 6.355624471154897e-09 4.878268011765385e-09 -5.319026604411192e-05" pbc="T T T"
Pt       1.40360696       0.81037286      20.00000000        3       0.00150381       0.00007895      -0.00642684
Pt       4.21082088       0.81037286      20.00000000        3      -0.00082050       0.00125842      -0.00642613
Pt       7.01803480       0.81037286      20.00000000        3      -0.00027081       0.00262320      -0.00198221
Pt       2.80721392       3.24149143      20.00000000        3      -0.00067871      -0.00134269      -0.00642824
Pt       5.61442784       3.24149143      20.00000000        3      -0.00057100       0.00048075       0.01711452
Pt       8.42164176       3.24149143      20.00000000        3      -0.00013074      -0.00073202       0.01711330
Pt       4.21082088       5.67261000      20.00000000        3       0.00241039      -0.00107927      -0.00198114
Pt       7.01803480       5.67261000      20.00000000        3       0.00069843       0.00025461       0.01711375
Pt       9.82524872       5.67261000      20.00000000        3      -0.00214127      -0.00154204      -0.00198132
Pt      -0.00000000       1.62074571      22.29208057        2      -0.11871444       0.08205887       0.00726002
Pt       2.80721392       1.62074571      22.29208057        2       0.00000098      -0.00000120      -0.12336158
Pt       5.61442784       1.62074571      22.29208057        2       0.10593893       0.07568016       0.01753121
Pt       1.40360696       4.05186428      22.29208057        2      -0.11850966       0.05390758       0.01753563
Pt       4.21082088       4.05186428      22.29208057        2       0.13042486       0.06178174       0.00726238
Pt       7.01803480       4.05186428      22.29208057        2      -0.00000378       0.00000035       0.07267594
Pt       2.80721392       6.48298285      22.29208057        2       0.00000046      -0.00000186      -0.04818440
Pt       5.61442784       6.48298285      22.29208057        2       0.01256970      -0.12958717       0.01753011
Pt       8.42164176       6.48298285      22.29208057        2      -0.01170699      -0.14383928       0.00725826
Pt      -0.00823457       0.00938929      24.56825717        1       0.01508384      -0.02342627      -0.02905621
Pt       2.81593217       0.01462090      24.57019338        1      -0.02185349      -0.03447255      -0.00114684
Pt       5.61041345      -0.01182701      24.56825704        1       0.01274723       0.02477887      -0.02905713
Pt       1.41191053       2.41625773      24.57019369        1      -0.01892988       0.03616312      -0.00114633
Pt       4.19379926       2.43135772      24.57019340        1       0.04078316      -0.00168637      -0.00114727
Pt       6.99975058       2.40891783      24.60961133        1       0.02603356      -0.01961018      -0.00391547
Pt       2.81946355       4.86467380      24.56825811        1      -0.02783294      -0.00135061      -0.02906731
Pt       5.60434338       4.88917204      24.60961059        1      -0.02999931      -0.01274399      -0.00391675
Pt       8.45000972       4.85750312      24.60961079        1       0.00396745       0.03234914      -0.00391423
N        7.01803493       4.05186453      26.91369078        0      -0.00005050      -0.00003623       0.03994402
H        6.34199145       4.71230525      26.47645055        0      -0.01104899      -0.03058843       0.02027104
H        7.92801437       4.30711433      26.47645097        0      -0.02092245       0.02488314       0.02024831
H        6.78409828       3.13617298      26.47645034        0       0.03202279       0.00574139       0.02028093
