31
Lattice="8.421641763931781 0.0 0.0 4.2108208819658905 7.293355709136913 0.0 0.0 0.0 44.584161137365626" Properties=species:S:1:pos:R:3:tags:I:1:forces:R:3 energy=-172.80628967285156 free_energy=-172.80628967285156 stress="0.010336635634303093 1.8745922591989483e-09 8.543091234436417e-10 1.8745922591989483e-09 0.010336642153561115 -9.413724244566879e-10 8.543091234436417e-10 -9.413724244566879e-10 2.1113035472808406e-05" pbc="T T T"
Pt       1.40360696       0.81037286      20.00000000        3       0.00129074       0.00074206      -0.00833449
Pt       4.21082088       0.81037286      20.00000000        3      -0.00128794       0.00074344      -0.00833413
Pt       7.01803480       0.81037286      20.00000000        3      -0.00000231       0.00278294      -0.00336188
Pt       2.80721392       3.24149143      20.00000000        3       0.00000079      -0.00149057      -0.00833634
Pt       5.61442784       3.24149143      20.00000000        3       0.00012165       0.00007128       0.01724955
Pt       8.42164176       3.24149143      20.00000000        3      -0.00012252       0.00007217       0.01724818
Pt       4.21082088       5.67261000      20.00000000        3       0.00241399      -0.00139094      -0.00336206
Pt       7.01803480       5.67261000      20.00000000        3      -0.00000178      -0.00014074       0.01724911
Pt       9.82524872       5.67261000      20.00000000        3      -0.00241286      -0.00138978      -0.00336245
Pt      -0.00000000       1.62074571      22.29208057        2      -0.11445470       0.08732454       0.01453540
Pt       2.80721392       1.62074571      22.29208057        2       0.00000084      -0.00000120      -0.11073645
Pt       5.61442784       1.62074571      22.29208057        2       0.11445376       0.08732595       0.01453324
Pt       1.40360696       4.05186428      22.29208057        2      -0.13285476       0.05545856       0.01453569
Pt       4.21082088       4.05186428      22.29208057        2       0.13285725       0.05545848       0.01453493
Pt       7.01803480       4.05186428      22.29208057        2      -0.00000282       0.00000002       0.08593708
Pt       2.80721392       6.48298285      22.29208057        2       0.00000094       0.00000101      -0.05644571
Pt       5.61442784       6.48298285      22.29208057        2       0.01839748      -0.14278428       0.01453372
Pt       8.42164176       6.48298285      22.29208057        2      -0.01839816      -0.14278255       0.01453375
Pt      -0.00121444      -0.00070159      24.56507439        1      -0.00108001      -0.00062364      -0.00976226
Pt       2.80721399       0.01191085      24.57002375        1      -0.00000021      -0.01413776      -0.00317074
Pt       5.61564251      -0.00070153      24.56507430        1       0.00107949      -0.00062423      -0.00976203
Pt       1.41392229       2.42516307      24.57002394        1      -0.01224510       0.00706895      -0.00317007
Pt       4.20050568       2.42516288      24.57002377        1       0.01224295       0.00707090      -0.00317088
Pt       7.01803469       2.40978256      24.61315525        1       0.00000190       0.00144751       0.00335317
Pt       2.80721388       4.86363977      24.56507447        1       0.00000119       0.00124623      -0.00976193
Pt       5.59595044       4.87290503      24.61315465        1       0.00125176      -0.00072411       0.00335185
Pt       8.44011910       4.87290511      24.61315497        1      -0.00125134      -0.00072405       0.00335244
N        7.01803484       4.05186419      26.94874407        0      -0.00000294       0.00000675       0.04618520
H        7.84053741       4.52673644      26.53110481        0       0.01025975       0.00592250      -0.01335373
H        7.01803467       3.10212020      26.53110482        0       0.00000247      -0.01185435      -0.01335589
H        6.19553214       4.52673646      26.53110464        0      -0.01025967       0.00592493      -0.01335213
