31
Lattice="8.421641763931781 0.0 0.0 4.2108208819658905 7.293355709136913 0.0 0.0 0.0 44.584161137365626" Properties=species:S:1:pos:R:3:tags:I:1:forces:R:3 energy=-173.70375061035156 free_energy=-173.70375061035156 stress="0.010718255303800106 -3.316945003462024e-05 -0.00016826197679620236 -3.316945003462024e-05 0.010804515331983566 3.9306676626438275e-05 -0.00016826197679620236 3.9306676626438275e-05 0.0001065303003997542" pbc="T T T"
Pt       1.40360696       0.81037286      20.00000000        3       0.00787656       0.00206047      -0.00671017
Pt       4.21082088       0.81037286      20.00000000        3      -0.00029601       0.00288641      -0.00395933
Pt       7.01803480       0.81037286      20.00000000        3      -0.00296490       0.00341234      -0.00780034
Pt       2.80721392       3.24149143      20.00000000        3       0.00455723      -0.00184351      -0.00820142
Pt       5.61442784       3.24149143      20.00000000        3      -0.00203015      -0.00297738      -0.00725666
Pt       8.42164176       3.24149143      20.00000000        3       0.00255331       0.00513738       0.01717722
Pt       4.21082088       5.67261000      20.00000000        3       0.00068840      -0.00635369      -0.01252532
Pt       7.01803480       5.67261000      20.00000000        3       0.00704819      -0.00205125       0.01832756
Pt       9.82524872       5.67261000      20.00000000        3      -0.00329681      -0.00412910       0.01322144
Pt      -0.00000000       1.62074571      22.29208057        2      -0.02431136       0.07289401       0.04163139
Pt       2.80721392       1.62074571      22.29208057        2      -0.02545689      -0.02291172       0.01877174
Pt       5.61442784       1.62074571      22.29208057        2      -0.00472666       0.00589469       0.02050915
Pt       1.40360696       4.05186428      22.29208057        2      -0.12233818       0.05725678       0.00757528
Pt       4.21082088       4.05186428      22.29208057        2      -0.02786240       0.00310303      -0.01550949
Pt       7.01803480       4.05186428      22.29208057        2       0.05351451       0.03392118      -0.03265895
Pt       2.80721392       6.48298285      22.29208057        2      -0.07786359      -0.01957306       0.03065301
Pt       5.61442784       6.48298285      22.29208057        2       0.05205575      -0.00955240       0.03380938
Pt       8.42164176       6.48298285      22.29208057        2      -0.02598785      -0.07908803      -0.00587656
Pt      -0.03935293       0.01034706      24.58988039        1       0.04588331      -0.00085473      -0.00692764
Pt       2.77189225       0.01088407      24.61264205        1       0.01362692      -0.01218403      -0.00830123
Pt       5.58840852       0.01745996      24.60088575        1      -0.00282624       0.01059256      -0.00973572
Pt       1.37890939       2.43010256      24.59979120        1       0.01376698      -0.02010043      -0.00733899
Pt       4.17824296       2.44039977      24.59014152        1       0.00849857      -0.03535721      -0.00925535
Pt       6.98250525       2.44141970      24.61303461        1       0.01348471      -0.00294589      -0.00741653
Pt       2.77312420       4.86841025      24.60204313        1       0.04402097       0.00167980      -0.01019642
Pt       5.55718401       4.86793618      24.58914459        1       0.02366363       0.01791619       0.01477517
Pt       8.39496676       4.86997705      24.67998264        1       0.00748110       0.01401682      -0.04102275
N        8.05464687       4.88292388      26.72434150        0      -0.02468203       0.01980278       0.00252664
H        7.48912674       5.71011017      26.94112097        0       0.03304048      -0.01060218      -0.00123188
H        8.94617420       4.90541177      27.22524592        0       0.00709826       0.00034797      -0.04287411
H        7.53041635       4.03183020      26.94593382        0       0.00578414      -0.02039780       0.02582087
