31
Lattice="8.421641763931781 0.0 0.0 4.2108208819658905 7.293355709136913 0.0 0.0 0.0 44.584161137365626" Properties=species:S:1:pos:R:3:tags:I:1:forces:R:3 energy=-173.7102813720703 free_energy=-173.7102813720703 stress="0.010712305083870888 -1.0544136674894844e-09 1.4025360872693682e-09 -1.0544136674894844e-09 0.01071228552609682 -8.337676327130339e-09 1.4025360872693682e-09 -8.337676327130339e-09 4.446561888471479e-06" pbc="T T T"
Pt       1.40360696       0.81037286      20.00000000        3       0.00529895       0.00305626      -0.00948220
Pt       4.21082088       0.81037286      20.00000000        3       0.00000171       0.00307803      -0.00639057
Pt       7.01803480       0.81037286      20.00000000        3      -0.00530090       0.00305641      -0.00948310
Pt       2.80721392       3.24149143      20.00000000        3       0.00266824      -0.00154010      -0.00639212
Pt       5.61442784       3.24149143      20.00000000        3      -0.00266899      -0.00154001      -0.00639191
Pt       8.42164176       3.24149143      20.00000000        3       0.00000154       0.00475474       0.01274988
Pt       4.21082088       5.67261000      20.00000000        3       0.00000233      -0.00611651      -0.00948316
Pt       7.01803480       5.67261000      20.00000000        3       0.00411569      -0.00237477       0.01275125
Pt       9.82524872       5.67261000      20.00000000        3      -0.00411869      -0.00237466       0.01275164
Pt      -0.00000000       1.62074571      22.29208057        2       0.00000161       0.06343953       0.03027221
Pt       2.80721392       1.62074571      22.29208057        2      -0.00684065      -0.00395189      -0.00154252
Pt       5.61442784       1.62074571      22.29208057        2       0.00684001      -0.00395155      -0.00154218
Pt       1.40360696       4.05186428      22.29208057        2      -0.07011838       0.04048358      -0.02523304
Pt       4.21082088       4.05186428      22.29208057        2       0.00000191       0.00790047      -0.00154239
Pt       7.01803480       4.05186428      22.29208057        2       0.07011675       0.04048380      -0.02523168
Pt       2.80721392       6.48298285      22.29208057        2      -0.05494230      -0.03171984       0.03027236
Pt       5.61442784       6.48298285      22.29208057        2       0.05494122      -0.03171983       0.03027152
Pt       8.42164176       6.48298285      22.29208057        2       0.00000127      -0.08096433      -0.02523360
Pt       0.00000038      -0.00000040      24.58850347        1      -0.00000218       0.00000176       0.00132236
Pt       2.80355204       0.00802475      24.60119119        1      -0.00459088      -0.00414256      -0.00084947
Pt       5.61808989       0.00802475      24.60119145        1       0.00459216      -0.00414056      -0.00085005
Pt       1.40872584       2.42393469      24.60119098        1      -0.00588200      -0.00190675      -0.00084844
Pt       4.21082089       2.43111851      24.58865138        1       0.00000158      -0.00000163       0.00399271
Pt       7.01291615       2.42393462      24.60119094        1       0.00588140      -0.00190582      -0.00084849
Pt       2.81599484       4.86139599      24.60119143        1      -0.00129005       0.00604798      -0.00084899
Pt       5.60564695       4.86139605      24.60119124        1       0.00129201       0.00604653      -0.00085007
Pt       8.42164189       4.86223682      24.66375303        1      -0.00000376       0.00000261       0.01512504
N        8.42164137       4.86223826      26.73316290        0       0.00000092      -0.00007807      -0.02636623
H        8.42164170       5.83492399      27.05193643        0      -0.00000003      -0.02945927       0.00331556
H        9.26401361       4.37589364      27.05193713        0      -0.02557245       0.01476840       0.00329367
H        7.57926957       4.37589349      27.05193722        0       0.02557184       0.01476788       0.00329204
