31
Lattice="8.421641763931781 0.0 0.0 4.2108208819658905 7.293355709136913 0.0 0.0 0.0 44.584161137365626" Properties=species:S:1:pos:R:3:tags:I:1:forces:R:3 energy=-172.5789794921875 free_energy=-172.5789794921875 stress="0.01047310046851635 -3.910538559637189e-09 4.505528394815883e-09 -3.910538559637189e-09 0.010473097674548626 2.108565544389762e-09 4.505528394815883e-09 2.108565544389762e-09 -0.00020023503748234361" pbc="T T T"
Pt       1.40360696       0.81037286      20.00000000        3       0.00000094      -0.00000267      -0.00540182
Pt       4.21082088       0.81037286      20.00000000        3      -0.00074464       0.00084743      -0.00204492
Pt       7.01803480       0.81037286      20.00000000        3       0.00079356       0.00067865      -0.00220028
Pt       2.80721392       3.24149143      20.00000000        3       0.00019343      -0.00103040      -0.00220066
Pt       5.61442784       3.24149143      20.00000000        3      -0.00000195      -0.00000058       0.00783771
Pt       8.42164176       3.24149143      20.00000000        3      -0.00036026      -0.00107079      -0.00204694
Pt       4.21082088       5.67261000      20.00000000        3       0.00111029       0.00022365      -0.00204411
Pt       7.01803480       5.67261000      20.00000000        3      -0.00099025       0.00035126      -0.00220072
Pt       9.82524872       5.67261000      20.00000000        3      -0.00000080       0.00000270      -0.00681722
Pt      -0.00000000       1.62074571      22.29208057        2      -0.03240127       0.01846191      -0.02421952
Pt       2.80721392       1.62074571      22.29208057        2       0.03219187       0.01882884      -0.02422120
Pt       5.61442784       1.62074571      22.29208057        2      -0.00152927       0.04198246       0.02925752
Pt       1.40360696       4.05186428      22.29208057        2      -0.00078285      -0.01329044      -0.03097374
Pt       4.21082088       4.05186428      22.29208057        2       0.03712201      -0.01966841       0.02926007
Pt       7.01803480       4.05186428      22.29208057        2      -0.03559646      -0.02231301       0.02926120
Pt       2.80721392       6.48298285      22.29208057        2       0.01190390       0.00596553      -0.03097686
Pt       5.61442784       6.48298285      22.29208057        2       0.00021001      -0.03729290      -0.02422175
Pt       8.42164176       6.48298285      22.29208057        2      -0.01111799       0.00732694      -0.03097738
Pt       0.00192650       0.00033096      24.57723213        1      -0.00364842      -0.00612837      -0.00424257
Pt       2.80596398       0.00150252      24.57723224        1       0.00713120      -0.00009570      -0.00424260
Pt       5.61385815      -0.00636830      24.57875334        1      -0.00299043       0.01932068      -0.00732234
Pt       1.40293081       2.42928456      24.57723240        1      -0.00348388       0.00622398      -0.00424287
Pt       4.19613073       2.42546245      24.58945430        1       0.01929847       0.01753188       0.00628397
Pt       7.03027793       2.42122459      24.58945454        1      -0.02483033       0.00794632       0.00628413
Pt       2.80198375       4.86591456      24.57875349        1       0.01822797      -0.00706911      -0.00733244
Pt       5.61687455       4.87778730      24.58945431        1       0.00553295      -0.02547826       0.00628355
Pt       8.42744144       4.86492826      24.57875358        1      -0.01523769      -0.01225200      -0.00733149
N        5.61442785       3.24149165      27.59559740        0      -0.00002579      -0.00001968       0.00372359
H        4.66971568       3.23643181      27.19906558        0       0.02437647      -0.02474841       0.03569679
H        6.08240195       4.06216546      27.19906548        0      -0.03360225      -0.00870506       0.03568210
H        6.09116569       2.42587684      27.19906542        0       0.00925137       0.03347351       0.03569115
