31
Lattice="8.421641763931781 0.0 0.0 4.2108208819658905 7.293355709136913 0.0 0.0 0.0 44.584161137365626" Properties=species:S:1:pos:R:3:tags:I:1:forces:R:3 energy=-172.80897521972656 free_energy=-172.80897521972656 stress="0.010300865396857262 1.3678011612228147e-08 1.2680088090633035e-09 1.3678011612228147e-08 0.01023300364613533 -1.3901133115723496e-06 1.2680088090633035e-09 -1.3901133115723496e-06 -5.04673562318203e-06" pbc="T T T"
Pt       1.40360696       0.81037286      20.00000000        3       0.00266466       0.00147101      -0.00206834
Pt       4.21082088       0.81037286      20.00000000        3      -0.00266216       0.00147270      -0.00206763
Pt       7.01803480       0.81037286      20.00000000        3      -0.00000251       0.00014580      -0.01603544
Pt       2.80721392       3.24149143      20.00000000        3       0.00000130      -0.00011490      -0.00896996
Pt       5.61442784       3.24149143      20.00000000        3      -0.00243348       0.00340579       0.00406376
Pt       8.42164176       3.24149143      20.00000000        3       0.00243280       0.00340664       0.00406307
Pt       4.21082088       5.67261000      20.00000000        3       0.00232868      -0.00312554       0.00241169
Pt       7.01803480       5.67261000      20.00000000        3      -0.00000225      -0.00120608       0.03430650
Pt       9.82524872       5.67261000      20.00000000        3      -0.00232744      -0.00312365       0.00241065
Pt      -0.00000000       1.62074571      22.29208057        2       0.02882222       0.02121893      -0.07853761
Pt       2.80721392       1.62074571      22.29208057        2       0.00000084      -0.11913540      -0.02880522
Pt       5.61442784       1.62074571      22.29208057        2      -0.02882293       0.02121967      -0.07853905
Pt       1.40360696       4.05186428      22.29208057        2      -0.15952542       0.09022126       0.05009741
Pt       4.21082088       4.05186428      22.29208057        2       0.15952787       0.09022054       0.05009285
Pt       7.01803480       4.05186428      22.29208057        2      -0.00000253       0.12730965       0.05075310
Pt       2.80721392       6.48298285      22.29208057        2       0.00000125      -0.04128189      -0.07620017
Pt       5.61442784       6.48298285      22.29208057        2       0.08928264      -0.09925076       0.03362871
Pt       8.42164176       6.48298285      22.29208057        2      -0.08928300      -0.09924921       0.03362916
Pt      -0.00470286      -0.00148826      24.56711328        1      -0.00144739       0.00196401       0.00480403
Pt       2.80721426       0.02235882      24.60122994        1       0.00000020      -0.00238293       0.01020561
Pt       5.61913091      -0.00148818      24.56711393        1       0.00144634       0.00196460       0.00480548
Pt       1.40946106       2.42502302      24.56456239        1      -0.00775064       0.01022789       0.00390658
Pt       4.20496725       2.42502376      24.56456230        1       0.00775049       0.01022284       0.00390634
Pt       7.01803431       2.41058505      24.56471707        1       0.00000226      -0.00120521       0.01161961
Pt       2.80721471       4.85992207      24.56195766        1      -0.00000493      -0.01935869       0.00476611
Pt       5.59025438       4.84258113      24.62122087        1       0.00104496       0.00137503      -0.00540162
Pt       8.44581491       4.84258120      24.62122131        1      -0.00104153       0.00137224      -0.00540464
N        7.01803480       5.44529984      26.92569425        0      -0.00001616      -0.02264221       0.02497450
H        7.01803669       6.36142477      26.43662173        0      -0.00001984       0.01226611      -0.02104865
H        7.84188622       4.93885431      26.54854184        0       0.00005406       0.00627418      -0.00568444
H        6.19418453       4.93885102      26.54854268        0      -0.00001833       0.00631791      -0.00568246
