31
Lattice="8.421641763931781 0.0 0.0 4.2108208819658905 7.293355709136913 0.0 0.0 0.0 44.584161137365626" Properties=species:S:1:pos:R:3:tags:I:1:forces:R:3 energy=-172.80471801757812 free_energy=-172.80471801757812 stress="0.010280998423695564 1.3467611470474594e-09 4.897313457541408e-11 1.3467611470474594e-09 0.010280982591211796 -6.9501040478314735e-09 4.897313457541408e-11 -6.9501040478314735e-09 -4.845201692660339e-05" pbc="T T T"
Pt       1.40360696       0.81037286      20.00000000        3       0.00149699       0.00066944      -0.01032189
Pt       4.21082088       0.81037286      20.00000000        3      -0.00132810       0.00095856      -0.01032236
Pt       7.01803480       0.81037286      20.00000000        3      -0.00020930       0.00324348      -0.00452298
Pt       2.80721392       3.24149143      20.00000000        3      -0.00016469      -0.00163175      -0.01032314
Pt       5.61442784       3.24149143      20.00000000        3       0.00040376       0.00063065       0.01849309
Pt       8.42164176       3.24149143      20.00000000        3      -0.00074756       0.00003640       0.01849225
Pt       4.21082088       5.67261000      20.00000000        3       0.00291633      -0.00144263      -0.00452268
Pt       7.01803480       5.67261000      20.00000000        3       0.00034141      -0.00066394       0.01849371
Pt       9.82524872       5.67261000      20.00000000        3      -0.00270880      -0.00179911      -0.00452355
Pt      -0.00000000       1.62074571      22.29208057        2      -0.12140021       0.09941916      -0.00066399
Pt       2.80721392       1.62074571      22.29208057        2       0.00000036      -0.00000128      -0.11643551
Pt       5.61442784       1.62074571      22.29208057        2       0.11676917       0.09310918       0.00270438
Pt       1.40360696       4.05186428      22.29208057        2      -0.13902277       0.05457284       0.00270802
Pt       4.21082088       4.05186428      22.29208057        2       0.14680384       0.05542628      -0.00066336
Pt       7.01803480       4.05186428      22.29208057        2      -0.00000202       0.00000134       0.08543192
Pt       2.80721392       6.48298285      22.29208057        2       0.00000035       0.00000015      -0.07498697
Pt       5.61442784       6.48298285      22.29208057        2       0.02224941      -0.14768095       0.00270354
Pt       8.42164176       6.48298285      22.29208057        2      -0.02539937      -0.15484774      -0.00066200
Pt      -0.00300357       0.00562404      24.55890683        1      -0.00090887      -0.02670167       0.02331798
Pt       2.80730035       0.00954371      24.56698899        1      -0.00309408       0.00670157       0.01104911
Pt       5.61105908      -0.00541406      24.55890675        1       0.02357362       0.01256145       0.02331841
Pt       1.41182811       2.42627177      24.56698943        1       0.00735781      -0.00066980       0.01104867
Pt       4.20251254       2.42642160      24.56698905        1      -0.00425975      -0.00603240       0.01104821
Pt       7.01123197       2.41007911      24.61569723        1       0.02002728       0.00550338       0.00408633
Pt       2.81358623       4.86202626      24.55890742        1      -0.02266873       0.01413607       0.02331914
Pt       5.59960884       4.87864775      24.61569767        1      -0.00524826      -0.02009664       0.00408994
Pt       8.44326227       4.86686455      24.61569941        1      -0.01477922       0.01459592       0.00408550
N        7.01803477       4.05186266      26.95924496        0      -0.00001564       0.00004060       0.01811883
H        7.08330671       3.10520916      26.53934850        0      -0.00950338      -0.01054472      -0.01486145
H        6.16557143       4.46866532      26.53935005        0      -0.00432354       0.01348237      -0.01484562
H        7.80522862       4.58171817      26.53935479        0       0.01384407      -0.00297615      -0.01485395
