31
Lattice="8.421641763931781 0.0 0.0 4.2108208819658905 7.293355709136913 0.0 0.0 0.0 44.584161137365626" Properties=species:S:1:pos:R:3:tags:I:1:forces:R:3 energy=-173.71035766601562 free_energy=-173.71035766601562 stress="0.010695299133658409 8.783899829722941e-09 -7.809854096763047e-09 8.783899829722941e-09 0.0106953214854002 6.0577045601917234e-09 -7.809854096763047e-09 6.0577045601917234e-09 3.0834987683192594e-06" pbc="T T T"
Pt       1.40360696       0.81037286      20.00000000        3       0.00519091       0.00299410      -0.00957692
Pt       4.21082088       0.81037286      20.00000000        3       0.00000152       0.00324883      -0.00614429
Pt       7.01803480       0.81037286      20.00000000        3      -0.00519237       0.00299422      -0.00957802
Pt       2.80721392       3.24149143      20.00000000        3       0.00281572      -0.00162553      -0.00614500
Pt       5.61442784       3.24149143      20.00000000        3      -0.00281685      -0.00162523      -0.00614509
Pt       8.42164176       3.24149143      20.00000000        3       0.00000171       0.00468040       0.01237172
Pt       4.21082088       5.67261000      20.00000000        3       0.00000237      -0.00599109      -0.00957796
Pt       7.01803480       5.67261000      20.00000000        3       0.00405051      -0.00233718       0.01237142
Pt       9.82524872       5.67261000      20.00000000        3      -0.00405398      -0.00233717       0.01237309
Pt      -0.00000000       1.62074571      22.29208057        2       0.00000163       0.06262097       0.02822547
Pt       2.80721392       1.62074571      22.29208057        2      -0.00442383      -0.00255423      -0.00151895
Pt       5.61442784       1.62074571      22.29208057        2       0.00442356      -0.00255739      -0.00151741
Pt       1.40360696       4.05186428      22.29208057        2      -0.06926184       0.03998904      -0.02597387
Pt       4.21082088       4.05186428      22.29208057        2      -0.00000093       0.00510882      -0.00152019
Pt       7.01803480       4.05186428      22.29208057        2       0.06926195       0.03998718      -0.02597827
Pt       2.80721392       6.48298285      22.29208057        2      -0.05423351      -0.03131066       0.02822358
Pt       5.61442784       6.48298285      22.29208057        2       0.05423047      -0.03130887       0.02821962
Pt       8.42164176       6.48298285      22.29208057        2       0.00000374      -0.07997562      -0.02597782
Pt       0.00000082      -0.00000087      24.58918547        1      -0.00000037       0.00000504      -0.00197551
Pt       2.80293006       0.00806917      24.60058672        1       0.00137009      -0.00474558       0.00236481
Pt       5.61871301       0.00806858      24.60058736        1      -0.00137265      -0.00474447       0.00235708
Pt       1.40845367       2.42337333      24.60058757        1      -0.00342654       0.00356085       0.00235707
Pt       4.21082157       2.43111888      24.59012787        1      -0.00000155      -0.00000405      -0.00374743
Pt       7.01318928       2.42337283      24.60058788        1       0.00342321       0.00355698       0.00235733
Pt       2.81634460       4.86191324      24.60058751        1      -0.00479942       0.00118314       0.00235778
Pt       5.60529715       4.86191284      24.60058685        1       0.00479465       0.00118605       0.00236575
Pt       8.42163951       4.86223669      24.66290879        1       0.00000580       0.00000219       0.02310336
N        8.42163952       4.86223693      26.73258885        0      -0.00001836       0.00003453      -0.02154070
H        7.58014359       4.37639869      27.05343112        0       0.00952817       0.00549949      -0.00071765
H        8.42164102       5.83391462      27.05342593        0      -0.00000212      -0.01101623      -0.00071808
H        9.26313745       4.37639928      27.05342277        0      -0.00950168       0.00548151      -0.00069486
