31
Lattice="8.421641763931781 0.0 0.0 4.2108208819658905 7.293355709136913 0.0 0.0 0.0 44.584161137365626" Properties=species:S:1:pos:R:3:tags:I:1:forces:R:3 energy=-172.57989501953125 free_energy=-172.57989501953125 stress="0.01044447161257267 -5.515979228931656e-09 -7.759319409217369e-09 -5.515979228931656e-09 0.010553114116191864 -6.761790427844971e-05 -7.759319409217369e-09 -6.761790427844971e-05 -0.0001354687410639599" pbc="T T T"
Pt       1.40360696       0.81037286      20.00000000        3       0.00172986       0.00015686      -0.00500312
Pt       4.21082088       0.81037286      20.00000000        3      -0.00172768       0.00015800      -0.00500324
Pt       7.01803480       0.81037286      20.00000000        3      -0.00000210       0.00069481      -0.00966081
Pt       2.80721392       3.24149143      20.00000000        3       0.00000093      -0.00016606      -0.00903445
Pt       5.61442784       3.24149143      20.00000000        3      -0.00022029       0.00202554       0.00114849
Pt       8.42164176       3.24149143      20.00000000        3       0.00021952       0.00202660       0.00114790
Pt       4.21082088       5.67261000      20.00000000        3       0.00215671      -0.00053260      -0.00299278
Pt       7.01803480       5.67261000      20.00000000        3      -0.00000183      -0.00165463       0.01389891
Pt       9.82524872       5.67261000      20.00000000        3      -0.00215543      -0.00053159      -0.00299296
Pt      -0.00000000       1.62074571      22.29208057        2      -0.00083172       0.02238820      -0.03542124
Pt       2.80721392       1.62074571      22.29208057        2       0.00000044      -0.03676767      -0.03857423
Pt       5.61442784       1.62074571      22.29208057        2       0.00083168       0.02238896      -0.03542164
Pt       1.40360696       4.05186428      22.29208057        2      -0.06290470       0.02315772      -0.00485361
Pt       4.21082088       4.05186428      22.29208057        2       0.06290494       0.02315565      -0.00485819
Pt       7.01803480       4.05186428      22.29208057        2      -0.00000157       0.05622266       0.04125069
Pt       2.80721392       6.48298285      22.29208057        2      -0.00000033      -0.01184095      -0.04682951
Pt       5.61442784       6.48298285      22.29208057        2       0.03640012      -0.06521855       0.02287780
Pt       8.42164176       6.48298285      22.29208057        2      -0.03640043      -0.06521942       0.02288046
Pt      -0.00082381       0.00225918      24.57164866        1      -0.02060173       0.00187837       0.02614394
Pt       2.80721400      -0.01279056      24.59023723        1       0.00000051       0.03806546      -0.01323269
Pt       5.61525212       0.00225950      24.57164873        1       0.02060043       0.00187430       0.02614421
Pt       1.41015961       2.42061421      24.57383927        1       0.00786196      -0.00327229       0.01765066
Pt       4.20426806       2.42061429      24.57383951        1      -0.00785894      -0.00327311       0.01765057
Pt       7.01803488       2.43103456      24.57686663        1      -0.00000191      -0.04155229       0.01433919
Pt       2.80721422       4.86225639      24.56783158        1      -0.00000435      -0.00920067       0.03424251
Pt       5.59768322       4.85323101      24.60467348        1      -0.00095054      -0.00083932      -0.03185973
Pt       8.43838539       4.85323060      24.60467466        1       0.00095635      -0.00083468      -0.03186683
N        7.01803450       4.86337204      27.59995760        0       0.00004024      -0.00035487       0.01546296
H        7.83850791       4.40626229      27.19199355        0      -0.00750297       0.02292702      -0.00789243
H        6.19756230       4.40626257      27.19199360        0       0.00746597       0.02290928      -0.00791088
H        7.01803476       5.82558625      27.25215535        0      -0.00000311       0.00122923       0.03856966
