31
Lattice="8.421641763931781 0.0 0.0 4.2108208819658905 7.293355709136913 0.0 0.0 0.0 44.584161137365626" Properties=species:S:1:pos:R:3:tags:I:1:forces:R:3 energy=-172.80076599121094 free_energy=-172.80076599121094 stress="0.010380445048213005 1.5304103817559422e-10 -7.2854335897432065e-09 1.5304103817559422e-10 0.010380466468632221 6.2808043210793585e-09 -7.2854335897432065e-09 6.2808043210793585e-09 0.00013812919496558607" pbc="T T T"
Pt       1.40360696       0.81037286      20.00000000        3       0.00000049      -0.00000305      -0.00917098
Pt       4.21082088       0.81037286      20.00000000        3      -0.00208520       0.00282882       0.00179332
Pt       7.01803480       0.81037286      20.00000000        3       0.00175521       0.00301190       0.00178075
Pt       2.80721392       3.24149143      20.00000000        3       0.00173258      -0.00302943       0.00177959
Pt       5.61442784       3.24149143      20.00000000        3      -0.00000175      -0.00000009       0.03523013
Pt       8.42164176       3.24149143      20.00000000        3      -0.00140652      -0.00322216       0.00179091
Pt       4.21082088       5.67261000      20.00000000        3       0.00349680       0.00039317       0.00179332
Pt       7.01803480       5.67261000      20.00000000        3      -0.00349090       0.00001785       0.00177893
Pt       9.82524872       5.67261000      20.00000000        3      -0.00000121       0.00000282      -0.01458338
Pt      -0.00000000       1.62074571      22.29208057        2      -0.13852368       0.08505666       0.03907876
Pt       2.80721392       1.62074571      22.29208057        2       0.14292812       0.07743488       0.03907916
Pt       5.61442784       1.62074571      22.29208057        2       0.00084986       0.12744015       0.05054848
Pt       1.40360696       4.05186428      22.29208057        2      -0.00003638      -0.03188176      -0.06163298
Pt       4.21082088       4.05186428      22.29208057        2       0.10994139      -0.06445769       0.05055067
Pt       7.01803480       4.05186428      22.29208057        2      -0.11079706      -0.06298320       0.05054978
Pt       2.80721392       6.48298285      22.29208057        2       0.02763284       0.01590579      -0.06163308
Pt       5.61442784       6.48298285      22.29208057        2      -0.00440464      -0.16249572       0.03907611
Pt       8.42164176       6.48298285      22.29208057        2      -0.02758923       0.01597957      -0.06163691
Pt      -0.00140129       0.00421298      24.56545406        1       0.02554550      -0.01176282      -0.00534302
Pt       2.80426548      -0.00332212      24.56545424        1      -0.00258257       0.02801685      -0.00534198
Pt       5.61297171      -0.00628082      24.56941846        1      -0.00357665      -0.02453110      -0.00742781
Pt       1.40795717       2.43022557      24.56545389        1      -0.02296119      -0.01624548      -0.00534081
Pt       4.18803202       2.41475176      24.61814697        1      -0.00378241       0.01516270      -0.00883799
Pt       7.04360362       2.41956557      24.61814686        1      -0.01124418      -0.01085513      -0.00883427
Pt       2.80250298       4.86663833      24.56941892        1      -0.01945488       0.01536485      -0.00743680
Pt       5.61164852       4.89015693      24.61814681        1       0.01502054      -0.00431271      -0.00883915
Pt       8.42780871       4.86411656      24.56941863        1       0.02303440       0.00916460      -0.00742669
N        5.61442750       3.24149325      26.94315372        0       0.00003962      -0.00003789      -0.00870651
H        6.34538250       2.63568519      26.52136365        0       0.00888015       0.02317002      -0.01086627
H        4.72430733       2.91136810      26.52136356        0       0.01558688      -0.01926343      -0.01088649
H        5.77359511       4.17742086      26.52136257        0      -0.02450576      -0.00386916      -0.01088477
