31
Lattice="8.421641763931781 0.0 0.0 4.2108208819658905 7.293355709136913 0.0 0.0 0.0 44.584161137365626" Properties=species:S:1:pos:R:3:tags:I:1:forces:R:3 energy=-172.80886840820312 free_energy=-172.80886840820312 stress="0.010343107394874096 2.4981225976716814e-09 -4.445672274755452e-09 2.4981225976716814e-09 0.010292690247297287 -4.955482495461183e-07 -4.445672274755452e-09 -4.955482495461183e-07 8.40764187159948e-06" pbc="T T T"
Pt       1.40360696       0.81037286      20.00000000        3       0.00099155       0.00118475      -0.00968093
Pt       4.21082088       0.81037286      20.00000000        3      -0.00098950       0.00118614      -0.00968125
Pt       7.01803480       0.81037286      20.00000000        3      -0.00000261       0.00201364      -0.00764951
Pt       2.80721392       3.24149143      20.00000000        3       0.00000136      -0.00150716      -0.00881407
Pt       5.61442784       3.24149143      20.00000000        3      -0.00076462       0.00151019       0.01716664
Pt       8.42164176       3.24149143      20.00000000        3       0.00076400       0.00151063       0.01716560
Pt       4.21082088       5.67261000      20.00000000        3       0.00310396      -0.00226743      -0.00013182
Pt       7.01803480       5.67261000      20.00000000        3      -0.00000222      -0.00184791       0.02362123
Pt       9.82524872       5.67261000      20.00000000        3      -0.00310296      -0.00226606      -0.00013307
Pt      -0.00000000       1.62074571      22.29208057        2      -0.08001410       0.08057678      -0.02291028
Pt       2.80721392       1.62074571      22.29208057        2       0.00000046       0.00402179      -0.11545042
Pt       5.61442784       1.62074571      22.29208057        2       0.08001418       0.08057800      -0.02291186
Pt       1.40360696       4.05186428      22.29208057        2      -0.15491667       0.07568154       0.02985487
Pt       4.21082088       4.05186428      22.29208057        2       0.15491810       0.07568142       0.02985278
Pt       7.01803480       4.05186428      22.29208057        2      -0.00000295       0.03500554       0.08498113
Pt       2.80721392       6.48298285      22.29208057        2       0.00000022      -0.01605337      -0.06294508
Pt       5.61442784       6.48298285      22.29208057        2       0.01796897      -0.16558757       0.01990242
Pt       8.42164176       6.48298285      22.29208057        2      -0.01797021      -0.16558746       0.01990287
Pt      -0.00383213       0.00230913      24.56366303        1       0.00768695      -0.00903209       0.00247899
Pt       2.80721400       0.01620860      24.56553994        1      -0.00000177       0.00300507       0.01330267
Pt       5.61825963       0.00230921      24.56366398        1      -0.00768393      -0.00903488       0.00247911
Pt       1.41052392       2.42820438      24.56870176        1      -0.00121997      -0.00156859       0.00529529
Pt       4.20390397       2.42820439      24.56870194        1       0.00121705      -0.00156844       0.00529543
Pt       7.01803448       2.40908012      24.60324908        1       0.00000121       0.00121722       0.01187244
Pt       2.80721364       4.86097535      24.56180279        1      -0.00000157       0.01348252       0.00302508
Pt       5.59590696       4.87109205      24.62482088        1      -0.00090096       0.00054475      -0.00749575
Pt       8.44016115       4.87109183      24.62482151        1       0.00090466       0.00054295      -0.00749265
N        7.01803520       4.27637216      26.94624867        0      -0.00000010       0.02824407       0.01650873
H        7.83975720       4.78220299      26.56310949        0       0.00382131      -0.01075282      -0.00306754
H        7.01803482       3.36260192      26.45244092        0       0.00000530      -0.00816874      -0.02127623
H        6.19631471       4.78220297      26.56310816        0      -0.00382516      -0.01074478      -0.00306470
