31
Lattice="8.421641763931781 0.0 0.0 4.2108208819658905 7.293355709136913 0.0 0.0 0.0 44.584161137365626" Properties=species:S:1:pos:R:3:tags:I:1:forces:R:3 energy=-172.8047332763672 free_energy=-172.8047332763672 stress="0.010282140225172043 5.253729007392849e-09 -2.160259304773149e-09 5.253729007392849e-09 0.010282174684107304 1.2629627121896192e-08 -2.160259304773149e-09 1.2629627121896192e-08 -4.7016339522087947e-05" pbc="T T T"
Pt       1.40360696       0.81037286      20.00000000        3       0.00132538       0.00095421      -0.01030308
Pt       4.21082088       0.81037286      20.00000000        3      -0.00148974       0.00066686      -0.01030195
Pt       7.01803480       0.81037286      20.00000000        3       0.00020440       0.00323443      -0.00450808
Pt       2.80721392       3.24149143      20.00000000        3       0.00016793      -0.00162598      -0.01030415
Pt       5.61442784       3.24149143      20.00000000        3       0.00074477       0.00003632       0.01848033
Pt       8.42164176       3.24149143      20.00000000        3      -0.00040298       0.00062909       0.01847899
Pt       4.21082088       5.67261000      20.00000000        3       0.00270196      -0.00179564      -0.00450736
Pt       7.01803480       5.67261000      20.00000000        3      -0.00034399      -0.00066163       0.01848024
Pt       9.82524872       5.67261000      20.00000000        3      -0.00290790      -0.00143636      -0.00450748
Pt      -0.00000000       1.62074571      22.29208057        2      -0.11670666       0.09300382       0.00288917
Pt       2.80721392       1.62074571      22.29208057        2       0.00000164      -0.00000105      -0.11613849
Pt       5.61442784       1.62074571      22.29208057        2       0.12133223       0.09929635      -0.00054801
Pt       1.40360696       4.05186428      22.29208057        2      -0.14666297       0.05542935      -0.00054672
Pt       4.21082088       4.05186428      22.29208057        2       0.13890082       0.05456739       0.00288939
Pt       7.01803480       4.05186428      22.29208057        2      -0.00000266      -0.00000028       0.08545303
Pt       2.80721392       6.48298285      22.29208057        2      -0.00000108       0.00000189      -0.07482696
Pt       5.61442784       6.48298285      22.29208057        2       0.02532773      -0.15472826      -0.00054999
Pt       8.42164176       6.48298285      22.29208057        2      -0.02218858      -0.14757049       0.00288961
Pt       0.00334281      -0.00543293      24.55897804        1      -0.02337652       0.01280489       0.02296245
Pt       2.80710627       0.00951452      24.56701852        1       0.00324879       0.00701899       0.01088493
Pt       5.61746173       0.00561074      24.55897819        1       0.00059661      -0.02664895       0.02295142
Pt       1.41190074       2.42645408      24.56701871        1       0.00445566      -0.00631974       0.01088504
Pt       4.20263496       2.42626724      24.56701836        1      -0.00770376      -0.00069220       0.01088493
Pt       7.02480840       2.41007574      24.61569298        1      -0.01985465       0.00556476       0.00417021
Pt       2.80083803       4.86205895      24.55897754        1       0.02277819       0.01383806       0.02296335
Pt       5.59281766       4.86689181      24.61569293        1       0.01474332       0.01441251       0.00416907
Pt       8.43647786       4.87862473      24.61569278        1       0.00511261      -0.01997831       0.00416815
N        7.01803447       4.05186480      26.95928411        0       0.00002022      -0.00007786       0.01735666
H        6.23078877       4.58165255      26.53936871        0      -0.01346779      -0.00322091      -0.01465611
H        7.87046788       4.46874461      26.53936680        0       0.00392085       0.01326625      -0.01464118
H        6.95284687       3.10519364      26.53936747        0       0.00952601      -0.00996746      -0.01461722
