31
Lattice="8.421641763931781 0.0 0.0 4.2108208819658905 7.293355709136913 0.0 0.0 0.0 44.584161137365626" Properties=species:S:1:pos:R:3:tags:I:1:forces:R:3 energy=-173.71018981933594 free_energy=-173.71018981933594 stress="0.010702403262257576 -1.5230106953367795e-08 7.977178917428773e-09 -1.5230106953367795e-08 0.010702402330935001 1.7412669917060697e-10 7.977178917428773e-09 1.7412669917060697e-10 -2.5931829441105947e-05" pbc="T T T"
Pt       1.40360696       0.81037286      20.00000000        3       0.00525697       0.00303161      -0.00904348
Pt       4.21082088       0.81037286      20.00000000        3       0.00000177       0.00277646      -0.00569901
Pt       7.01803480       0.81037286      20.00000000        3      -0.00525844       0.00303183      -0.00904506
Pt       2.80721392       3.24149143      20.00000000        3       0.00240708      -0.00138912      -0.00570092
Pt       5.61442784       3.24149143      20.00000000        3      -0.00240785      -0.00138921      -0.00570074
Pt       8.42164176       3.24149143      20.00000000        3       0.00000126       0.00440412       0.01147714
Pt       4.21082088       5.67261000      20.00000000        3       0.00000192      -0.00606728      -0.00904313
Pt       7.01803480       5.67261000      20.00000000        3       0.00381139      -0.00219919       0.01147726
Pt       9.82524872       5.67261000      20.00000000        3      -0.00381456      -0.00219929       0.01147875
Pt      -0.00000000       1.62074571      22.29208057        2       0.00000251       0.06024661       0.03022249
Pt       2.80721392       1.62074571      22.29208057        2      -0.00578795      -0.00334466       0.00054309
Pt       5.61442784       1.62074571      22.29208057        2       0.00578775      -0.00334417       0.00054410
Pt       1.40360696       4.05186428      22.29208057        2      -0.06219591       0.03591064      -0.03350011
Pt       4.21082088       4.05186428      22.29208057        2       0.00000246       0.00668515       0.00054429
Pt       7.01803480       4.05186428      22.29208057        2       0.06219410       0.03590950      -0.03350186
Pt       2.80721392       6.48298285      22.29208057        2      -0.05217636      -0.03012354       0.03022282
Pt       5.61442784       6.48298285      22.29208057        2       0.05217586      -0.03012343       0.03022100
Pt       8.42164176       6.48298285      22.29208057        2       0.00000220      -0.07181603      -0.03350341
Pt       0.00000149      -0.00000030      24.58903575        1      -0.00000120       0.00000011      -0.00092483
Pt       2.80374100       0.00735896      24.60140020        1      -0.00856973       0.00529599      -0.00197704
Pt       5.61790315       0.00735904      24.60139957        1       0.00856689       0.00529401      -0.00197710
Pt       1.40824465       2.42443003      24.60140024        1       0.00029905      -0.01006746      -0.00197539
Pt       4.21082172       2.43111821      24.58951176        1       0.00000331       0.00000096      -0.00042567
Pt       7.01340002       2.42442950      24.60140066        1      -0.00030610      -0.01006470      -0.00197482
Pt       2.81532552       4.86156594      24.60140063        1       0.00886636       0.00477385      -0.00197624
Pt       5.60631819       4.86156658      24.60140045        1      -0.00887051       0.00476892      -0.00197670
Pt       8.42164114       4.86223752      24.65673507        1      -0.00000226      -0.00000055       0.02228296
N        8.42163596       4.86223802      26.72393432        0       0.00012511      -0.00002605       0.04995203
H        7.57985354       4.37623233      27.04678751        0       0.03696157       0.02134538      -0.01366393
H        8.42163875       5.83424718      27.04678509        0      -0.00000675      -0.04272048      -0.01366986
H        9.26342412       4.37623241      27.04678234        0      -0.03706979       0.02139962      -0.01368646
