31
Lattice="8.421641763931781 0.0 0.0 4.2108208819658905 7.293355709136913 0.0 0.0 0.0 44.584161137365626" Properties=species:S:1:pos:R:3:tags:I:1:forces:R:3 energy=-173.70559692382812 free_energy=-173.70559692382812 stress="0.010610879398882389 2.628620495670475e-05 0.0001584106939844787 2.628620495670475e-05 0.01067812368273735 3.065859345952049e-05 0.0001584106939844787 3.065859345952049e-05 9.043356840265915e-06" pbc="T T T"
Pt       1.40360696       0.81037286      20.00000000        3       0.00051930       0.00230954      -0.00503743
Pt       4.21082088       0.81037286      20.00000000        3      -0.00811575       0.00232548      -0.00741965
Pt       7.01803480       0.81037286      20.00000000        3       0.00363932       0.00376689      -0.00839236
Pt       2.80721392       3.24149143      20.00000000        3      -0.00398047      -0.00245444      -0.01002219
Pt       5.61442784       3.24149143      20.00000000        3      -0.00201485       0.00465452       0.01679757
Pt       8.42164176       3.24149143      20.00000000        3       0.00186006      -0.00250526      -0.00651783
Pt       4.21082088       5.67261000      20.00000000        3       0.00383558      -0.00333220       0.01114771
Pt       7.01803480       5.67261000      20.00000000        3      -0.00591716      -0.00201145       0.01741153
Pt       9.82524872       5.67261000      20.00000000        3      -0.00157681      -0.00626709      -0.01464576
Pt      -0.00000000       1.62074571      22.29208057        2      -0.00419508       0.00743042       0.00713894
Pt       2.80721392       1.62074571      22.29208057        2       0.02907974      -0.02398921       0.00008695
Pt       5.61442784       1.62074571      22.29208057        2       0.02246935       0.08053181       0.02974223
Pt       1.40360696       4.05186428      22.29208057        2       0.01378096       0.00094983      -0.03036697
Pt       4.21082088       4.05186428      22.29208057        2       0.12358649       0.05301985       0.00237727
Pt       7.01803480       4.05186428      22.29208057        2      -0.05037754       0.02894759      -0.04302938
Pt       2.80721392       6.48298285      22.29208057        2       0.07994804      -0.01345337       0.02088520
Pt       5.61442784       6.48298285      22.29208057        2       0.01945853      -0.07869536      -0.02145878
Pt       8.42164176       6.48298285      22.29208057        2      -0.05752164      -0.01425669       0.01133884
Pt       0.02223907       0.01934421      24.59880141        1      -0.02423236      -0.00982125      -0.00540519
Pt       2.83821345       0.00670943      24.60989765        1      -0.01783470       0.00902878       0.00449140
Pt       5.64265406       0.01093204      24.58385647        1      -0.00063441       0.00193311       0.02093279
Pt       1.43389549       2.43493938      24.58405506        1      -0.02402405      -0.01288329       0.02052733
Pt       4.23021226       2.42878578      24.59974120        1      -0.00703297       0.00280705      -0.01172103
Pt       7.04810490       2.44118444      24.61083649        1      -0.00814715      -0.00037231      -0.00072768
Pt       2.82847747       4.86695779      24.59301269        1       0.00653459       0.01120366       0.02467737
Pt       5.63884676       4.87357274      24.67164731        1      -0.02477330      -0.01950667       0.01247233
Pt       8.47454942       4.86957971      24.59082696        1      -0.02765495      -0.01583073       0.00599518
N        5.97578015       4.88165120      26.71969386        0      -0.02490523      -0.00676279       0.00436759
H        6.53802297       5.70824351      26.94197807        0      -0.01193956       0.03354035      -0.00011374
H        6.49801981       4.03256854      26.95321204        0      -0.00230052      -0.03598211      -0.00282666
H        5.07998279       4.90447881      27.21356321        0       0.00246631       0.00567529      -0.04270561
