31
Lattice="8.421641763931781 0.0 0.0 4.2108208819658905 7.293355709136913 0.0 0.0 0.0 44.584161137365626" Properties=species:S:1:pos:R:3:tags:I:1:forces:R:3 energy=-172.8055419921875 free_energy=-172.8055419921875 stress="0.010267115198075771 -3.4306136598161174e-08 1.752149869638231e-09 -3.4306136598161174e-08 0.010219140909612179 -0.0001134520280174911 1.752149869638231e-09 -0.0001134520280174911 -5.919008981436491e-05" pbc="T T T"
Pt       1.40360696       0.81037286      20.00000000        3       0.00203027       0.00306422      -0.00474921
Pt       4.21082088       0.81037286      20.00000000        3      -0.00202770       0.00306563      -0.00474688
Pt       7.01803480       0.81037286      20.00000000        3      -0.00000279       0.00165055      -0.01465970
Pt       2.80721392       3.24149143      20.00000000        3       0.00000195       0.00059653      -0.00790951
Pt       5.61442784       3.24149143      20.00000000        3      -0.00193336       0.00454709       0.00620475
Pt       8.42164176       3.24149143      20.00000000        3       0.00193215       0.00454772       0.00620100
Pt       4.21082088       5.67261000      20.00000000        3       0.00229827      -0.00216549       0.00427181
Pt       7.01803480       5.67261000      20.00000000        3      -0.00000232      -0.00018097       0.03382882
Pt       9.82524872       5.67261000      20.00000000        3      -0.00229718      -0.00216458       0.00427189
Pt      -0.00000000       1.62074571      22.29208057        2       0.01726632       0.00747077      -0.08239929
Pt       2.80721392       1.62074571      22.29208057        2       0.00000677      -0.11673737      -0.04284305
Pt       5.61442784       1.62074571      22.29208057        2      -0.01727241       0.00747454      -0.08238958
Pt       1.40360696       4.05186428      22.29208057        2      -0.16514806       0.07757796       0.05781482
Pt       4.21082088       4.05186428      22.29208057        2       0.16515295       0.07757132       0.05782298
Pt       7.01803480       4.05186428      22.29208057        2      -0.00000625       0.10183929       0.06140698
Pt       2.80721392       6.48298285      22.29208057        2      -0.00000145      -0.06784843      -0.07097649
Pt       5.61442784       6.48298285      22.29208057        2       0.08122730      -0.12512811       0.02001861
Pt       8.42164176       6.48298285      22.29208057        2      -0.08122537      -0.12512305       0.02002325
Pt      -0.00349661      -0.03012148      24.56749019        1      -0.01285257       0.01348646       0.00481424
Pt       2.80721373       0.00720702      24.59225078        1       0.00000421       0.01144568       0.01752726
Pt       5.61792563      -0.03012156      24.56749210        1       0.01284543       0.01348933       0.00480491
Pt       1.40272564       2.40139581      24.56335032        1       0.02536123       0.02807207       0.01108378
Pt       4.21170147       2.40139466      24.56335392        1      -0.02534852       0.02808360       0.01106149
Pt       7.01803600       2.37698738      24.57053457        1      -0.00001270       0.04153931      -0.01218723
Pt       2.80721273       4.82862410      24.56492731        1       0.00001099       0.01905517      -0.01173557
Pt       5.59299994       4.81991567      24.62335604        1      -0.01332366      -0.00110551      -0.02259447
Pt       8.44306986       4.81991339      24.62335524        1       0.01330983      -0.00108184      -0.02257805
N        7.01803799       5.40412308      26.90603015        0      -0.00003268       0.01405702       0.04637697
H        7.01802942       6.30144335      26.37849504        0       0.00007638      -0.00053032       0.02805202
H        7.84002992       4.88530563      26.54188354        0       0.01501277      -0.00823184      -0.00792760
H        6.19604411       4.88531388      26.54187940        0      -0.01504964      -0.00833654      -0.00788886
