31
Lattice="8.421641763931781 0.0 0.0 4.2108208819658905 7.293355709136913 0.0 0.0 0.0 44.584161137365626" Properties=species:S:1:pos:R:3:tags:I:1:forces:R:3 energy=-172.80612182617188 free_energy=-172.80612182617188 stress="0.010215009562671185 2.617171146468422e-09 2.6147062293091494e-09 2.617171146468422e-09 0.010215019807219505 1.5508159201260696e-09 2.6147062293091494e-09 1.5508159201260696e-09 -7.904190715635195e-05" pbc="T T T"
Pt       1.40360696       0.81037286      20.00000000        3       0.00000101      -0.00000225      -0.01100335
Pt       4.21082088       0.81037286      20.00000000        3      -0.00200912       0.00319064       0.00014994
Pt       7.01803480       0.81037286      20.00000000        3       0.00200870       0.00319005       0.00014853
Pt       2.80721392       3.24149143      20.00000000        3       0.00176040      -0.00333861       0.00014850
Pt       5.61442784       3.24149143      20.00000000        3      -0.00000171       0.00000016       0.03285956
Pt       8.42164176       3.24149143      20.00000000        3      -0.00175781      -0.00333732       0.00014701
Pt       4.21082088       5.67261000      20.00000000        3       0.00377185       0.00014666       0.00014949
Pt       7.01803480       5.67261000      20.00000000        3      -0.00377209       0.00014806       0.00014836
Pt       9.82524872       5.67261000      20.00000000        3      -0.00000094       0.00000277      -0.01574740
Pt      -0.00000000       1.62074571      22.29208057        2      -0.14542325       0.08395912       0.01005756
Pt       2.80721392       1.62074571      22.29208057        2       0.14542624       0.08396006       0.01005666
Pt       5.61442784       1.62074571      22.29208057        2      -0.00000232       0.12772714       0.03249445
Pt       1.40360696       4.05186428      22.29208057        2       0.00000157      -0.03007333      -0.07678579
Pt       4.21082088       4.05186428      22.29208057        2       0.11061743      -0.06386445       0.03249514
Pt       7.01803480       4.05186428      22.29208057        2      -0.11061903      -0.06386440       0.03249520
Pt       2.80721392       6.48298285      22.29208057        2       0.02604487       0.01503782      -0.07678612
Pt       5.61442784       6.48298285      22.29208057        2      -0.00000174      -0.16792080       0.01005645
Pt       8.42164176       6.48298285      22.29208057        2      -0.02604285       0.01504047      -0.07678717
Pt       0.00393412       0.00227105      24.56060047        1      -0.01717155      -0.00991564       0.01756889
Pt       2.80328026       0.00227107      24.56060015        1       0.01717254      -0.00991528       0.01757011
Pt       5.61442784      -0.00512091      24.56477934        1      -0.00000165      -0.03940221       0.01025166
Pt       1.40360707       2.42657609      24.56060098        1      -0.00000195       0.01982952       0.01757041
Pt       4.18586862       2.41671217      24.61159922        1       0.00751335       0.00433736       0.00178466
Pt       7.04298687       2.41671217      24.61159974        1      -0.00751123       0.00433652       0.00178458
Pt       2.80277931       4.86479742      24.56477948        1      -0.03412312       0.01970064       0.01025204
Pt       5.61442781       4.89104948      24.61159925        1      -0.00000264      -0.00867257       0.00178412
Pt       8.42607599       4.86479738      24.56477975        1       0.03412561       0.01969998       0.01025261
N        5.61442798       3.24149159      26.93137581        0      -0.00001555      -0.00000547       0.00369146
H        4.79294774       2.76720963      26.50980316        0      -0.02255704      -0.01302368       0.00106833
H        5.61442776       4.19005473      26.50980312        0       0.00000213       0.02605774       0.00106334
H        6.43590772       2.76720972      26.50980340        0       0.02257003      -0.01302857       0.00106147
