31
Lattice="8.421641763931781 0.0 0.0 4.2108208819658905 7.293355709136913 0.0 0.0 0.0 44.584161137365626" Properties=species:S:1:pos:R:3:tags:I:1:forces:R:3 energy=-172.575439453125 free_energy=-172.575439453125 stress="0.01046997681260109 -9.941001621882606e-08 1.2786686056642793e-05 -9.941001621882606e-08 0.01057047676295042 -1.0395907565907692e-06 1.2786686056642793e-05 -1.0395907565907692e-06 -0.00012013460218440741" pbc="T T T"
Pt       1.40360696       0.81037286      20.00000000        3       0.00093784       0.00073819      -0.00392610
Pt       4.21082088       0.81037286      20.00000000        3      -0.00098534       0.00061810      -0.00410903
Pt       7.01803480       0.81037286      20.00000000        3       0.00001854       0.00035864      -0.00612962
Pt       2.80721392       3.24149143      20.00000000        3      -0.00002565      -0.00077755      -0.00524181
Pt       5.61442784       3.24149143      20.00000000        3      -0.00041750       0.00095402       0.00243425
Pt       8.42164176       3.24149143      20.00000000        3       0.00052960       0.00021903       0.00005707
Pt       4.21082088       5.67261000      20.00000000        3       0.00087274      -0.00086033      -0.00139019
Pt       7.01803480       5.67261000      20.00000000        3      -0.00055754      -0.00071356       0.00689495
Pt       9.82524872       5.67261000      20.00000000        3      -0.00040656      -0.00049014      -0.00393957
Pt      -0.00000000       1.62074571      22.29208057        2      -0.00206508       0.01968104      -0.02391497
Pt       2.80721392       1.62074571      22.29208057        2      -0.00002165      -0.01154266      -0.04594829
Pt       5.61442784       1.62074571      22.29208057        2       0.00319384       0.02480858      -0.02192619
Pt       1.40360696       4.05186428      22.29208057        2      -0.03941627       0.01502880      -0.00911027
Pt       4.21082088       4.05186428      22.29208057        2       0.05324015       0.02312164       0.00318435
Pt       7.01803480       4.05186428      22.29208057        2      -0.01416211       0.03304763       0.04390998
Pt       2.80721392       6.48298285      22.29208057        2       0.00405618      -0.01219978      -0.02985600
Pt       5.61442784       6.48298285      22.29208057        2       0.01937367      -0.05234561       0.02674836
Pt       8.42164176       6.48298285      22.29208057        2      -0.02242466      -0.03906710       0.01556478
Pt      -0.00404631       0.00368540      24.57862977        1       0.01120147      -0.00318102      -0.00653681
Pt       2.80796424       0.00922647      24.58337329        1       0.00087399      -0.03398434       0.00005056
Pt       5.61923932       0.00379637      24.57851448        1      -0.00677362      -0.00102958      -0.00741079
Pt       1.40871882       2.42715755      24.57873359        1      -0.00641601       0.00014638      -0.00410181
Pt       4.20644035       2.42732749      24.57886118        1       0.00970118       0.00266793      -0.00327387
Pt       7.01865200       2.42255881      24.58331977        1       0.00138508       0.03314550      -0.00194587
Pt       2.80655306       4.86219320      24.57622546        1       0.00035339      -0.00012415      -0.00779465
Pt       5.59913483       4.86173736      24.59781658        1       0.01189660       0.00036981       0.02197243
Pt       8.43607317       4.86180203      24.58785907        1      -0.01518371      -0.00016110       0.00253800
N        7.01759904       4.86233502      27.58833529        0      -0.02065478       0.00037614      -0.00560737
H        7.49050903       4.04099057      27.20180031        0      -0.00348856       0.02416721       0.03900429
H        6.07227710       4.86226162      27.19136923        0       0.01930675      -0.00015426      -0.00838603
H        7.49031395       5.68364425      27.20167708        0      -0.00394212      -0.02281727       0.03819016
