31
Lattice="8.421641763931781 0.0 0.0 4.2108208819658905 7.293355709136913 0.0 0.0 0.0 44.584161137365626" Properties=species:S:1:pos:R:3:tags:I:1:forces:R:3 energy=-172.64501953125 free_energy=-172.64501953125 stress="0.010480825789272785 2.026926626541581e-09 1.5955329280004094e-09 2.026926626541581e-09 0.010480830445885658 9.794626221193425e-10 1.5955329280004094e-09 9.794626221193425e-10 5.031605724070687e-06" pbc="T T T"
Pt       1.40360696       0.81037286      20.00000000        3       0.00206492       0.00118961      -0.00083357
Pt       4.21082088       0.81037286      20.00000000        3      -0.00206301       0.00119077      -0.00083289
Pt       7.01803480       0.81037286      20.00000000        3      -0.00000190       0.00430169       0.00125542
Pt       2.80721392       3.24149143      20.00000000        3       0.00000127      -0.00238472      -0.00083491
Pt       5.61442784       3.24149143      20.00000000        3       0.00082694       0.00047811       0.03291166
Pt       8.42164176       3.24149143      20.00000000        3      -0.00082732       0.00047874       0.03291166
Pt       4.21082088       5.67261000      20.00000000        3       0.00372952      -0.00215066       0.00125486
Pt       7.01803480       5.67261000      20.00000000        3      -0.00000165      -0.00095464       0.03291118
Pt       9.82524872       5.67261000      20.00000000        3      -0.00372812      -0.00214941       0.00125426
Pt      -0.00000000       1.62074571      22.29208057        2      -0.08613271       0.09566978      -0.01345677
Pt       2.80721392       1.62074571      22.29208057        2       0.00000084      -0.00000168      -0.05686360
Pt       5.61442784       1.62074571      22.29208057        2       0.08613259       0.09567060      -0.01345699
Pt       1.40360696       4.05186428      22.29208057        2      -0.12592159       0.02675829      -0.01345680
Pt       4.21082088       4.05186428      22.29208057        2       0.12592196       0.02675714      -0.01345860
Pt       7.01803480       4.05186428      22.29208057        2      -0.00000152      -0.00000069       0.03622663
Pt       2.80721392       6.48298285      22.29208057        2       0.00000052       0.00000177      -0.08502126
Pt       5.61442784       6.48298285      22.29208057        2       0.03978566      -0.12242693      -0.01345977
Pt       8.42164176       6.48298285      22.29208057        2      -0.03978613      -0.12242766      -0.01345748
Pt      -0.00147953      -0.00085451      24.55778844        1      -0.00109290      -0.00063069       0.03598806
Pt       2.80721393       0.00255811      24.58008523        1       0.00000058       0.02804040       0.00056893
Pt       5.61590765      -0.00085463      24.55778841        1       0.00109169      -0.00062980       0.03598776
Pt       1.40582248       2.42983948      24.58008545        1       0.02428309      -0.01402016       0.00056870
Pt       4.20860544       2.42983932      24.58008556        1      -0.02428298      -0.01402097       0.00056766
Pt       7.01803439       2.40505219      24.63193051        1      -0.00000057       0.03446639      -0.01021166
Pt       2.80721365       4.86394568      24.55778872        1       0.00000113       0.00126301       0.03598893
Pt       5.59185373       4.87527021      24.63192994        1       0.02984959      -0.01723488      -0.01020323
Pt       8.44421579       4.87527056      24.63193079        1      -0.02985029      -0.01723358      -0.01021114
N        7.01803515       4.05186432      26.87786989        0      -0.00000933      -0.00000536       0.01672533
H        7.81412764       3.59223964      26.36492276        0      -0.01375256       0.00794089      -0.00312135
H        6.22194208       3.59223963      26.36492293        0       0.01376326       0.00794777      -0.00311783
H        7.01803488       4.97111286      26.36492304        0      -0.00000083      -0.01588322      -0.00312325
