31
Lattice="8.421641763931781 0.0 0.0 4.2108208819658905 7.293355709136913 0.0 0.0 0.0 44.584161137365626" Properties=species:S:1:pos:R:3:tags:I:1:forces:R:3 energy=-173.710693359375 free_energy=-173.710693359375 stress="0.010916205123066902 1.311907560364034e-08 3.3984264291575528e-09 1.311907560364034e-08 0.010916166938841343 1.5159905331074697e-08 3.3984264291575528e-09 1.5159905331074697e-08 0.000226429125177674" pbc="T T T"
Pt       1.40360696       0.81037286      20.00000000        3       0.00532202       0.00306952      -0.00583574
Pt       4.21082088       0.81037286      20.00000000        3       0.00000134       0.00275033      -0.00228950
Pt       7.01803480       0.81037286      20.00000000        3      -0.00532374       0.00307006      -0.00583634
Pt       2.80721392       3.24149143      20.00000000        3       0.00238486      -0.00137627      -0.00229177
Pt       5.61442784       3.24149143      20.00000000        3      -0.00238521      -0.00137613      -0.00229111
Pt       8.42164176       3.24149143      20.00000000        3       0.00000123       0.00388688       0.01204389
Pt       4.21082088       5.67261000      20.00000000        3       0.00000254      -0.00614314      -0.00583634
Pt       7.01803480       5.67261000      20.00000000        3       0.00336326      -0.00194056       0.01204437
Pt       9.82524872       5.67261000      20.00000000        3      -0.00336680      -0.00194050       0.01204467
Pt      -0.00000000       1.62074571      22.29208057        2       0.00000089       0.05560337       0.06554019
Pt       2.80721392       1.62074571      22.29208057        2      -0.00339109      -0.00196425       0.04121667
Pt       5.61442784       1.62074571      22.29208057        2       0.00339219      -0.00196214       0.04121768
Pt       1.40360696       4.05186428      22.29208057        2      -0.05054151       0.02918143      -0.00924534
Pt       4.21082088       4.05186428      22.29208057        2       0.00000235       0.00391775       0.04121431
Pt       7.01803480       4.05186428      22.29208057        2       0.05054003       0.02917899      -0.00924847
Pt       2.80721392       6.48298285      22.29208057        2      -0.04815683      -0.02780014       0.06554113
Pt       5.61442784       6.48298285      22.29208057        2       0.04815637      -0.02779974       0.06553929
Pt       8.42164176       6.48298285      22.29208057        2       0.00000201      -0.05835546      -0.00924507
Pt       0.00000079      -0.00000031      24.60026099        1       0.00000063      -0.00000130      -0.04451251
Pt       2.80339050       0.00818916      24.61112752        1       0.00085377       0.01184985      -0.04276747
Pt       5.61825277       0.00819067      24.61112801        1      -0.00085464       0.01184585      -0.04276618
Pt       1.40878839       2.42371086      24.61112606        1       0.01068687      -0.00518239      -0.04275823
Pt       4.21082095       2.43111872      24.60033151        1       0.00000194      -0.00000422      -0.04960698
Pt       7.01285495       2.42371219      24.61112773        1      -0.01068810      -0.00518869      -0.04276548
Pt       2.81622007       4.86145348      24.61112612        1       0.00983198      -0.00666016      -0.04275873
Pt       5.60542469       4.86145327      24.61112534        1      -0.00983874      -0.00665839      -0.04275683
Pt       8.42164319       4.86223745      24.65481080        1      -0.00001021      -0.00000194      -0.00591779
N        8.42163691       4.86223626      26.71809075        0       0.00009491       0.00013378       0.04764491
H        7.57980594       5.34827020      27.03902204        0       0.02519269      -0.01455113       0.00154768
H        9.26347394       5.34827038      27.03901278        0      -0.02527279      -0.01459534       0.00154612
H        8.42163958       3.89017256      27.03901721        0      -0.00000232       0.02901396       0.00158902
