31
Lattice="8.421641763931781 0.0 0.0 4.2108208819658905 7.293355709136913 0.0 0.0 0.0 44.584161137365626" Properties=species:S:1:pos:R:3:tags:I:1:forces:R:3 energy=-173.7103729248047 free_energy=-173.7103729248047 stress="0.010685757733881474 -9.680340085083117e-09 5.418332893469824e-09 -9.680340085083117e-09 0.010685751214623451 -3.988589458714387e-09 5.418332893469824e-09 -3.988589458714387e-09 -2.5647967049735598e-05" pbc="T T T"
Pt       1.40360696       0.81037286      20.00000000        3       0.00527607       0.00304322      -0.00951076
Pt       4.21082088       0.81037286      20.00000000        3       0.00000132       0.00302187      -0.00632164
Pt       7.01803480       0.81037286      20.00000000        3      -0.00527728       0.00304342      -0.00951147
Pt       2.80721392       3.24149143      20.00000000        3       0.00261942      -0.00151210      -0.00632271
Pt       5.61442784       3.24149143      20.00000000        3      -0.00262004      -0.00151141      -0.00632244
Pt       8.42164176       3.24149143      20.00000000        3       0.00000134       0.00468030       0.01230410
Pt       4.21082088       5.67261000      20.00000000        3       0.00000232      -0.00608963      -0.00951019
Pt       7.01803480       5.67261000      20.00000000        3       0.00405031      -0.00233758       0.01230541
Pt       9.82524872       5.67261000      20.00000000        3      -0.00405377      -0.00233791       0.01230526
Pt      -0.00000000       1.62074571      22.29208057        2       0.00000044       0.06250077       0.02824068
Pt       2.80721392       1.62074571      22.29208057        2      -0.00623962      -0.00360669      -0.00248910
Pt       5.61442784       1.62074571      22.29208057        2       0.00624114      -0.00360340      -0.00248965
Pt       1.40360696       4.05186428      22.29208057        2      -0.06797908       0.03924882      -0.02956023
Pt       4.21082088       4.05186428      22.29208057        2       0.00000436       0.00720736      -0.00248892
Pt       7.01803480       4.05186428      22.29208057        2       0.06797519       0.03924707      -0.02956065
Pt       2.80721392       6.48298285      22.29208057        2      -0.05412727      -0.03125001       0.02823986
Pt       5.61442784       6.48298285      22.29208057        2       0.05412916      -0.03125135       0.02824095
Pt       8.42164176       6.48298285      22.29208057        2      -0.00000009      -0.07849319      -0.02956408
Pt       0.00000146      -0.00000022      24.58826939        1      -0.00000150      -0.00000243       0.00225058
Pt       2.80357150       0.00773619      24.60075682        1      -0.00520435      -0.00075401       0.00138260
Pt       5.61807214       0.00773575      24.60075615        1       0.00520252      -0.00075586       0.00139149
Pt       1.40848599       2.42409485      24.60075628        1      -0.00325627      -0.00412316       0.00139204
Pt       4.21082210       2.43111833      24.58864781        1      -0.00000086       0.00000103       0.00346127
Pt       7.01315769       2.42409474      24.60075679        1       0.00325302      -0.00412622       0.00138374
Pt       2.81573642       4.86152409      24.60075659        1       0.00194086       0.00488304       0.00139187
Pt       5.60590673       4.86152402      24.60075667        1      -0.00194962       0.00488283       0.00138384
Pt       8.42164056       4.86223788      24.66180150        1       0.00000574      -0.00000370       0.00862145
N        8.42163798       4.86223809      26.72937692        0       0.00006148      -0.00004694       0.01159537
H        8.42163910       5.83354590      27.05154975        0      -0.00000343      -0.01061177      -0.00406995
H        9.26281708       4.37658290      27.05154713        0      -0.00925446       0.00534165      -0.00408900
H        7.58046087       4.37658293      27.05155178        0       0.00920279       0.00531590      -0.00407955
