31
Lattice="8.421641763931781 0.0 0.0 4.2108208819658905 7.293355709136913 0.0 0.0 0.0 44.584161137365626" Properties=species:S:1:pos:R:3:tags:I:1:forces:R:3 energy=-173.7054901123047 free_energy=-173.7054901123047 stress="0.010640088468790054 -2.7393181881052442e-05 -0.0001625219447305426 -2.7393181881052442e-05 0.010695681907236576 3.196558100171387e-05 -0.0001625219447305426 3.196558100171387e-05 2.7445283194538206e-05" pbc="T T T"
Pt       1.40360696       0.81037286      20.00000000        3       0.00815980       0.00238471      -0.00743735
Pt       4.21082088       0.81037286      20.00000000        3      -0.00044431       0.00245782      -0.00498930
Pt       7.01803480       0.81037286      20.00000000        3      -0.00351734       0.00371878      -0.00821391
Pt       2.80721392       3.24149143      20.00000000        3       0.00410767      -0.00248595      -0.00982523
Pt       5.61442784       3.24149143      20.00000000        3      -0.00191507      -0.00266837      -0.00687435
Pt       8.42164176       3.24149143      20.00000000        3       0.00218359       0.00476147       0.01724499
Pt       4.21082088       5.67261000      20.00000000        3       0.00149343      -0.00628269      -0.01462939
Pt       7.01803480       5.67261000      20.00000000        3       0.00628558      -0.00203070       0.01772910
Pt       9.82524872       5.67261000      20.00000000        3      -0.00376176      -0.00346148       0.01152658
Pt      -0.00000000       1.62074571      22.29208057        2      -0.02394760       0.08030508       0.03190722
Pt       2.80721392       1.62074571      22.29208057        2      -0.02979882      -0.02314975       0.00154370
Pt       5.61442784       1.62074571      22.29208057        2       0.00273459       0.00666208       0.00906309
Pt       1.40360696       4.05186428      22.29208057        2      -0.12534991       0.05299189       0.00297994
Pt       4.21082088       4.05186428      22.29208057        2      -0.01705418       0.00080429      -0.02843457
Pt       7.01803480       4.05186428      22.29208057        2       0.05261602       0.03060203      -0.03865609
Pt       2.80721392       6.48298285      22.29208057        2      -0.08085734      -0.01361053       0.02221250
Pt       5.61442784       6.48298285      22.29208057        2       0.05661786      -0.01386993       0.01551317
Pt       8.42164176       6.48298285      22.29208057        2      -0.02151935      -0.08039093      -0.01775254
Pt      -0.03109788       0.01101713      24.58472223        1       0.00665921      -0.00046009       0.01709631
Pt       2.77391659       0.00842116      24.61024871        1       0.01968418      -0.00367845       0.00295019
Pt       5.58983918       0.01905742      24.59951174        1       0.02340196      -0.00687300      -0.00723630
Pt       1.38211146       2.42864566      24.60023061        1       0.00703165       0.00327921      -0.01233575
Pt       4.17893099       2.43532539      24.58496960        1       0.02245805      -0.01157495       0.01652673
Pt       6.98540350       2.44113687      24.61135271        1       0.01332775       0.00153839      -0.00275086
Pt       2.78286249       4.86736650      24.59398035        1       0.00432768       0.00849023       0.02193011
Pt       5.56003870       4.86900307      24.59009407        1       0.03126781      -0.00798146       0.01069687
Pt       8.39723879       4.87321989      24.67431196        1       0.01086110      -0.01457864      -0.00221923
N        8.06417566       4.88199169      26.72209532        0       0.02561665      -0.00253933       0.01198554
H        7.54183439       4.03327086      26.95608389        0       0.00663456      -0.04353856      -0.00044519
H        7.50112301       5.70756709      26.94622820        0       0.01865299       0.03657810      -0.00317746
H        8.96129622       4.90496164      27.21413125        0      -0.01595648       0.00460070      -0.04592914
