31
Lattice="8.421641763931781 0.0 0.0 4.2108208819658905 7.293355709136913 0.0 0.0 0.0 44.584161137365626" Properties=species:S:1:pos:R:3:tags:I:1:forces:R:3 energy=-172.5792236328125 free_energy=-172.5792236328125 stress="0.010448835790157318 -1.0098019087578791e-09 5.516446854869628e-09 -1.0098019087578791e-09 0.010548694059252739 6.267543358262628e-05 5.516446854869628e-09 6.267543358262628e-05 -0.00013971146836411208" pbc="T T T"
Pt       1.40360696       0.81037286      20.00000000        3       0.00087988      -0.00016946      -0.00785038
Pt       4.21082088       0.81037286      20.00000000        3      -0.00087737      -0.00016802      -0.00784951
Pt       7.01803480       0.81037286      20.00000000        3      -0.00000236       0.00113393      -0.00677127
Pt       2.80721392       3.24149143      20.00000000        3       0.00000127      -0.00101637      -0.00977740
Pt       5.61442784       3.24149143      20.00000000        3       0.00030684       0.00149291       0.00436372
Pt       8.42164176       3.24149143      20.00000000        3      -0.00030742       0.00149322       0.00436381
Pt       4.21082088       5.67261000      20.00000000        3       0.00175620      -0.00096293      -0.00325781
Pt       7.01803480       5.67261000      20.00000000        3      -0.00000158      -0.00278876       0.01129708
Pt       9.82524872       5.67261000      20.00000000        3      -0.00175510      -0.00096182      -0.00325850
Pt      -0.00000000       1.62074571      22.29208057        2      -0.02080096       0.03952744      -0.02778538
Pt       2.80721392       1.62074571      22.29208057        2       0.00000079      -0.01375148      -0.04704084
Pt       5.61442784       1.62074571      22.29208057        2       0.02080056       0.03952795      -0.02778648
Pt       1.40360696       4.05186428      22.29208057        2      -0.07028608       0.02671848      -0.00506478
Pt       4.21082088       4.05186428      22.29208057        2       0.07028653       0.02671716      -0.00506837
Pt       7.01803480       4.05186428      22.29208057        2      -0.00000148       0.04516933       0.05191744
Pt       2.80721392       6.48298285      22.29208057        2       0.00000033      -0.00527534      -0.04578918
Pt       5.61442784       6.48298285      22.29208057        2       0.02188282      -0.06464133       0.01217290
Pt       8.42164176       6.48298285      22.29208057        2      -0.02188280      -0.06464215       0.01217387
Pt      -0.00531967       0.01005747      24.57148223        1      -0.01083419       0.00406727       0.02710754
Pt       2.80721418       0.00070642      24.57805131        1      -0.00000132       0.04293530       0.01029947
Pt       5.61974771       0.01005766      24.57148193        1       0.01083540       0.00406695       0.02710786
Pt       1.40531599       2.42820514      24.57342265        1       0.02012357      -0.00095425       0.01954997
Pt       4.20911197       2.42820519      24.57342377        1      -0.02012297      -0.00095391       0.01954871
Pt       7.01803515       2.44506333      24.58929188        1      -0.00000145      -0.04041205      -0.01083371
Pt       2.80721395       4.86172002      24.56720449        1      -0.00000091       0.00767538       0.03754255
Pt       5.59795928       4.86991875      24.60530469        1      -0.00143268      -0.00019097      -0.03416325
Pt       8.43810927       4.86991882      24.60530581        1       0.00143437      -0.00019026      -0.03417128
N        7.01803561       4.86235619      27.60063915        0      -0.00003849       0.00174126       0.01743504
H        6.19758583       5.31827138      27.19143361        0       0.00659885      -0.02233788      -0.00894510
H        7.83848329       5.31827160      27.19143389        0      -0.00656712      -0.02232840      -0.00896419
H        7.01803437       3.89904976      27.25580649        0       0.00000690      -0.00052115       0.03949746
