31
Lattice="8.421641763931781 0.0 0.0 4.2108208819658905 7.293355709136913 0.0 0.0 0.0 44.584161137365626" Properties=species:S:1:pos:R:3:tags:I:1:forces:R:3 energy=-172.65090942382812 free_energy=-172.65090942382812 stress="0.010420485399663448 1.1248212361536503e-09 -3.020009797793932e-10 1.1248212361536503e-09 0.010420502163469791 2.230998302765741e-10 -3.020009797793932e-10 2.230998302765741e-10 -9.67455798672745e-06" pbc="T T T"
Pt       1.40360696       0.81037286      20.00000000        3       0.00000123      -0.00000288      -0.00922662
Pt       4.21082088       0.81037286      20.00000000        3      -0.00161696       0.00377618       0.01037905
Pt       7.01803480       0.81037286      20.00000000        3       0.00161592       0.00377506       0.01037809
Pt       2.80721392       3.24149143      20.00000000        3       0.00246380      -0.00329118       0.01037776
Pt       5.61442784       3.24149143      20.00000000        3      -0.00000258      -0.00000016       0.05188459
Pt       8.42164176       3.24149143      20.00000000        3      -0.00246076      -0.00328996       0.01037601
Pt       4.21082088       5.67261000      20.00000000        3       0.00408294      -0.00048550       0.01037931
Pt       7.01803480       5.67261000      20.00000000        3      -0.00408304      -0.00048429       0.01037717
Pt       9.82524872       5.67261000      20.00000000        3      -0.00000086       0.00000265      -0.00294715
Pt      -0.00000000       1.62074571      22.29208057        2      -0.14261775       0.08233866      -0.01450101
Pt       2.80721392       1.62074571      22.29208057        2       0.14262071       0.08233994      -0.01450156
Pt       5.61442784       1.62074571      22.29208057        2      -0.00000244       0.10560495      -0.00440246
Pt       1.40360696       4.05186428      22.29208057        2       0.00000134      -0.00523481      -0.04636849
Pt       4.21082088       4.05186428      22.29208057        2       0.09145923      -0.05280279      -0.00440153
Pt       7.01803480       4.05186428      22.29208057        2      -0.09146164      -0.05280333      -0.00440078
Pt       2.80721392       6.48298285      22.29208057        2       0.00453532       0.00261840      -0.04636952
Pt       5.61442784       6.48298285      22.29208057        2      -0.00000270      -0.16468114      -0.01450216
Pt       8.42164176       6.48298285      22.29208057        2      -0.00453229       0.00262030      -0.04637087
Pt       0.00520195       0.00300339      24.55814387        1      -0.02220193      -0.01282333       0.03848100
Pt       2.80201234       0.00300293      24.55814292        1       0.02220086      -0.01281786       0.03848237
Pt       5.61442780       0.00060284      24.57922978        1       0.00000068      -0.02770243       0.00173254
Pt       1.40360713       2.42511168      24.55814372        1      -0.00000075       0.02563888       0.03848282
Pt       4.18051102       2.41361900      24.62834550        1       0.03289245       0.01899068      -0.01524082
Pt       7.04834431       2.41361885      24.62834643        1      -0.03289199       0.01899130      -0.01524004
Pt       2.80773595       4.86193564      24.57922980        1      -0.02398937       0.01385234       0.00173298
Pt       5.61442787       4.89723577      24.62834581        1      -0.00000400      -0.03797970      -0.01524042
Pt       8.42111887       4.86193559      24.57922926        1       0.02399462       0.01384994       0.00173412
N        5.61442792       3.24149147      26.85409195        0      -0.00000146      -0.00000589       0.03307705
H        6.41146233       3.70165931      26.34144044        0      -0.01376949      -0.00794850      -0.00472194
H        5.61442819       2.32115560      26.34144056        0      -0.00000153       0.01590665      -0.00471792
H        4.81739371       3.70165979      26.34143985        0       0.01377245      -0.00795209      -0.00472161
