31
Lattice="8.421641763931781 0.0 0.0 4.2108208819658905 7.293355709136913 0.0 0.0 0.0 44.584161137365626" Properties=species:S:1:pos:R:3:tags:I:1:forces:R:3 energy=-172.57716369628906 free_energy=-172.57716369628906 stress="0.010478955693542957 -2.728381687244763e-10 4.026679822910495e-10 -2.728381687244763e-10 0.01047896221280098 -1.4365452161158032e-09 4.026679822910495e-10 -1.4365452161158032e-09 -0.0001822316407924518" pbc="T T T"
Pt       1.40360696       0.81037286      20.00000000        3       0.00091405       0.00070216      -0.00487050
Pt       4.21082088       0.81037286      20.00000000        3      -0.00106457       0.00043723      -0.00487086
Pt       7.01803480       0.81037286      20.00000000        3       0.00008547       0.00047786      -0.00420842
Pt       2.80721392       3.24149143      20.00000000        3       0.00015428      -0.00114387      -0.00487211
Pt       5.61442784       3.24149143      20.00000000        3       0.00009721      -0.00000954       0.00331888
Pt       8.42164176       3.24149143      20.00000000        3      -0.00003984       0.00009015       0.00331780
Pt       4.21082088       5.67261000      20.00000000        3       0.00037351      -0.00031439      -0.00420907
Pt       7.01803480       5.67261000      20.00000000        3      -0.00005943      -0.00007871       0.00331825
Pt       9.82524872       5.67261000      20.00000000        3      -0.00046055      -0.00016121      -0.00420934
Pt      -0.00000000       1.62074571      22.29208057        2      -0.02598183       0.03246832      -0.00567579
Pt       2.80721392       1.62074571      22.29208057        2      -0.00000034      -0.00000084      -0.05327658
Pt       5.61442784       1.62074571      22.29208057        2       0.02726993       0.03339169      -0.00389371
Pt       1.40360696       4.05186428      22.29208057        2      -0.04255473       0.00691940      -0.00388967
Pt       4.21082088       4.05186428      22.29208057        2       0.04111339       0.00626865      -0.00567849
Pt       7.01803480       4.05186428      22.29208057        2      -0.00000256      -0.00000025       0.05031831
Pt       2.80721392       6.48298285      22.29208057        2       0.00000080       0.00000159      -0.03515410
Pt       5.61442784       6.48298285      22.29208057        2       0.01528187      -0.04031279      -0.00389402
Pt       8.42164176       6.48298285      22.29208057        2      -0.01512528      -0.03873560      -0.00567779
Pt      -0.00112218      -0.00153387      24.57707605        1       0.00738607      -0.00062367      -0.00708434
Pt       2.80671874       0.00689240      24.57902239        1      -0.00323653      -0.01788871      -0.00409636
Pt       5.61631713      -0.00020519      24.57707616        1      -0.00315360       0.00670771      -0.00708514
Pt       1.40982373       2.42810101      24.57902258        1      -0.01387474       0.01174827      -0.00410658
Pt       4.20509947       2.42724349      24.57902240        1       0.01710989       0.00614005      -0.00409654
Pt       7.02062608       2.41651280      24.58942637        1       0.00550813       0.02318337       0.00538509
Pt       2.80644714       4.86397604      24.57707626        1      -0.00423416      -0.00608455      -0.00708291
Pt       5.60048304       4.86729577      24.58942615        1       0.01732501      -0.01636101       0.00538434
Pt       8.43299478       4.87178445      24.58942651        1      -0.02283186      -0.00682146       0.00538549
N        7.01803499       4.05186433      27.59415659        0       0.00000049       0.00000931       0.00236735
H        7.49477752       4.86794396      27.19876106        0       0.00865446      -0.03272745       0.03304785
H        7.48640904       3.23095320      27.19876095        0      -0.03266631       0.00886142       0.03304355
H        6.07291776       4.05669579      27.19876093        0       0.02401181       0.02385674       0.03304556
