31
Lattice="8.421641763931781 0.0 0.0 4.2108208819658905 7.293355709136913 0.0 0.0 0.0 44.584161137365626" Properties=species:S:1:pos:R:3:tags:I:1:forces:R:3 energy=-173.70989990234375 free_energy=-173.70989990234375 stress="0.010813940316438675 3.5473060044921567e-09 -3.463488829069661e-09 3.5473060044921567e-09 0.010813950560986996 -1.3938638021571137e-09 -3.463488829069661e-09 -1.3938638021571137e-09 0.00012009706551907584" pbc="T T T"
Pt       1.40360696       0.81037286      20.00000000        3       0.00496257       0.00286150      -0.00772312
Pt       4.21082088       0.81037286      20.00000000        3       0.00000144       0.00341816      -0.00427070
Pt       7.01803480       0.81037286      20.00000000        3      -0.00496429       0.00286241      -0.00772384
Pt       2.80721392       3.24149143      20.00000000        3       0.00296310      -0.00171038      -0.00427207
Pt       5.61442784       3.24149143      20.00000000        3      -0.00296395      -0.00170987      -0.00427204
Pt       8.42164176       3.24149143      20.00000000        3       0.00000097       0.00448105       0.01262727
Pt       4.21082088       5.67261000      20.00000000        3       0.00000263      -0.00572759      -0.00772318
Pt       7.01803480       5.67261000      20.00000000        3       0.00387881      -0.00223788       0.01262900
Pt       9.82524872       5.67261000      20.00000000        3      -0.00388182      -0.00223753       0.01262867
Pt      -0.00000000       1.62074571      22.29208057        2       0.00000192       0.05747510       0.04723119
Pt       2.80721392       1.62074571      22.29208057        2      -0.00186816      -0.00108045       0.02037331
Pt       5.61442784       1.62074571      22.29208057        2       0.00186691      -0.00108085       0.02037340
Pt       1.40360696       4.05186428      22.29208057        2      -0.06377950       0.03682381      -0.01406248
Pt       4.21082088       4.05186428      22.29208057        2       0.00000176       0.00215759       0.02037417
Pt       7.01803480       4.05186428      22.29208057        2       0.06377737       0.03682423      -0.01406326
Pt       2.80721392       6.48298285      22.29208057        2      -0.04977676      -0.02873739       0.04723072
Pt       5.61442784       6.48298285      22.29208057        2       0.04977584      -0.02873755       0.04722975
Pt       8.42164176       6.48298285      22.29208057        2       0.00000124      -0.07364427      -0.01406387
Pt       0.00000027      -0.00000033      24.59664172        1      -0.00000120       0.00000063      -0.03495654
Pt       2.80263425       0.00774839      24.60512692        1       0.00224638       0.00080006      -0.01533340
Pt       5.61900752       0.00774847      24.60512733        1      -0.00224650       0.00079913      -0.01533341
Pt       1.40802747       2.42327787      24.60512709        1       0.00181622       0.00154510      -0.01533274
Pt       4.21082090       2.43111841      24.59749965        1       0.00000235      -0.00000118      -0.03700331
Pt       7.01361437       2.42327809      24.60512728        1      -0.00181688       0.00154261      -0.01533151
Pt       2.81621432       4.86232888      24.60512718        1      -0.00043137      -0.00234396      -0.01533292
Pt       5.60542752       4.86232912      24.60512691        1       0.00042805      -0.00234578      -0.01533356
Pt       8.42164088       4.86223721      24.66416281        1       0.00000002       0.00000269      -0.02246973
N        8.42164163       4.86223722      26.72911434        0      -0.00000340      -0.00001422       0.01965362
H        8.42164200       5.83329065      27.05108389        0      -0.00000108      -0.00091952       0.00141964
H        9.26259922       4.37671072      27.05108302        0      -0.00080509       0.00046426       0.00141996
H        7.58068492       4.37671047      27.05108600        0       0.00081238       0.00046988       0.00141119
