31
Lattice="8.421641763931781 0.0 0.0 4.2108208819658905 7.293355709136913 0.0 0.0 0.0 44.584161137365626" Properties=species:S:1:pos:R:3:tags:I:1:forces:R:3 energy=-172.6457061767578 free_energy=-172.6457061767578 stress="0.010564290918409824 1.1250772757875893e-08 1.1657938614462182e-08 1.1250772757875893e-08 0.01056430209428072 -6.434525356979748e-09 1.1657938614462182e-08 -6.434525356979748e-09 0.00012948464427608997" pbc="T T T"
Pt       1.40360696       0.81037286      20.00000000        3       0.00160759       0.00092507       0.00035772
Pt       4.21082088       0.81037286      20.00000000        3      -0.00160514       0.00092602       0.00035730
Pt       7.01803480       0.81037286      20.00000000        3      -0.00000268       0.00392918       0.00387073
Pt       2.80721392       3.24149143      20.00000000        3       0.00000121      -0.00185609       0.00035533
Pt       5.61442784       3.24149143      20.00000000        3       0.00078621       0.00045444       0.03163317
Pt       8.42164176       3.24149143      20.00000000        3      -0.00078678       0.00045489       0.03163210
Pt       4.21082088       5.67261000      20.00000000        3       0.00340709      -0.00196391       0.00387055
Pt       7.01803480       5.67261000      20.00000000        3      -0.00000222      -0.00090726       0.03163183
Pt       9.82524872       5.67261000      20.00000000        3      -0.00340557      -0.00196284       0.00387084
Pt      -0.00000000       1.62074571      22.29208057        2      -0.08638481       0.08268587       0.00364039
Pt       2.80721392       1.62074571      22.29208057        2      -0.00000148       0.00000021      -0.05205959
Pt       5.61442784       1.62074571      22.29208057        2       0.08638692       0.08268590       0.00363726
Pt       1.40360696       4.05186428      22.29208057        2      -0.11480218       0.03346834       0.00364114
Pt       4.21082088       4.05186428      22.29208057        2       0.11480424       0.03347026       0.00363942
Pt       7.01803480       4.05186428      22.29208057        2      -0.00000233      -0.00000057       0.03506793
Pt       2.80721392       6.48298285      22.29208057        2       0.00000148       0.00000141      -0.05438031
Pt       5.61442784       6.48298285      22.29208057        2       0.02841321      -0.11615650       0.00363804
Pt       8.42164176       6.48298285      22.29208057        2      -0.02841401      -0.11615573       0.00363707
Pt      -0.00256076      -0.00147851      24.56614456        1       0.00538404       0.00310639      -0.00713733
Pt       2.80721428       0.00400338      24.58141980        1      -0.00000257       0.01598222      -0.00493780
Pt       5.61698850      -0.00147879      24.56614469        1      -0.00538155       0.00310746      -0.00713730
Pt       1.40707422       2.42911645      24.58142036        1       0.01384187      -0.00798968      -0.00494733
Pt       4.20735393       2.42911638      24.58141991        1      -0.01384395      -0.00798935      -0.00493835
Pt       7.01803466       2.40793806      24.63179971        1       0.00000084       0.01429235      -0.00862464
Pt       2.80721377       4.86519430      24.56614492        1       0.00000083      -0.00621711      -0.00713688
Pt       5.59435310       4.87382704      24.63179955        1       0.01237481      -0.00714352      -0.00862795
Pt       8.44171643       4.87382731      24.63180049        1      -0.01237454      -0.00714560      -0.00862950
N        7.01803539       4.05186390      26.88131942        0      -0.00005790       0.00003635       0.03621320
H        7.81355048       3.59257412      26.36859687        0       0.00274266      -0.00160020      -0.01073566
H        6.22251816       3.59257283      26.36859682        0      -0.00267942      -0.00155672      -0.01070470
H        7.01803566       4.97044592      26.36859601        0      -0.00000586       0.00311862      -0.01069692
