31
Lattice="8.421641763931781 0.0 0.0 4.2108208819658905 7.293355709136913 0.0 0.0 0.0 44.584161137365626" Properties=species:S:1:pos:R:3:tags:I:1:forces:R:3 energy=-172.575439453125 free_energy=-172.575439453125 stress="0.010469975881278515 9.478205953428187e-08 -1.2785472790710628e-05 9.478205953428187e-08 0.010570473968982697 -1.0455981964696548e-06 -1.2785472790710628e-05 -1.0455981964696548e-06 -0.00012014058302156627" pbc="T T T"
Pt       1.40360696       0.81037286      20.00000000        3       0.00098767       0.00061744      -0.00410900
Pt       4.21082088       0.81037286      20.00000000        3      -0.00093516       0.00073873      -0.00392541
Pt       7.01803480       0.81037286      20.00000000        3      -0.00002377       0.00035850      -0.00613001
Pt       2.80721392       3.24149143      20.00000000        3       0.00002828      -0.00077740      -0.00524196
Pt       5.61442784       3.24149143      20.00000000        3      -0.00053050       0.00021844       0.00005868
Pt       8.42164176       3.24149143      20.00000000        3       0.00041758       0.00095437       0.00243255
Pt       4.21082088       5.67261000      20.00000000        3       0.00040816      -0.00049148      -0.00393933
Pt       7.01803480       5.67261000      20.00000000        3       0.00055346      -0.00071320       0.00689581
Pt       9.82524872       5.67261000      20.00000000        3      -0.00087189      -0.00085914      -0.00139087
Pt      -0.00000000       1.62074571      22.29208057        2      -0.00319398       0.02480715      -0.02192431
Pt       2.80721392       1.62074571      22.29208057        2       0.00002358      -0.01154259      -0.04594906
Pt       5.61442784       1.62074571      22.29208057        2       0.00206441       0.01968180      -0.02391714
Pt       1.40360696       4.05186428      22.29208057        2      -0.05323756       0.02312235       0.00318513
Pt       4.21082088       4.05186428      22.29208057        2       0.03941864       0.01502893      -0.00911081
Pt       7.01803480       4.05186428      22.29208057        2       0.01415602       0.03304769       0.04390985
Pt       2.80721392       6.48298285      22.29208057        2      -0.00405421      -0.01219984      -0.02985558
Pt       5.61442784       6.48298285      22.29208057        2       0.02242338      -0.03906896       0.01556541
Pt       8.42164176       6.48298285      22.29208057        2      -0.01937451      -0.05234370       0.02674685
Pt      -0.00481150       0.00379639      24.57851484        1       0.00677348      -0.00103025      -0.00741160
Pt       2.80646370       0.00922648      24.58337329        1      -0.00087541      -0.03398499       0.00005016
Pt       5.61847423       0.00368549      24.57862968        1      -0.01119958      -0.00318081      -0.00653645
Pt       1.40798774       2.42732745      24.57886125        1      -0.00970302       0.00266807      -0.00327358
Pt       4.20570920       2.42715756      24.57873335        1       0.00641585       0.00014643      -0.00410193
Pt       7.01741714       2.42255871      24.58331973        1      -0.00138217       0.03314466      -0.00194597
Pt       2.80787501       4.86219315      24.57622534        1      -0.00035289      -0.00012259      -0.00779447
Pt       5.59999607       4.86180184      24.58785890        1       0.01518225      -0.00015837       0.00253659
Pt       8.43693478       4.86173752      24.59781688        1      -0.01189691       0.00036599       0.02197327
N        7.01847096       4.86233526      27.58833512        0       0.02064774       0.00041798      -0.00558892
H        7.96379247       4.86226157      27.19136939        0      -0.01929155      -0.00015707      -0.00839338
H        6.54556059       4.04099079      27.20180037        0       0.00347523       0.02413662       0.03899001
H        6.54575559       5.68364406      27.20167733        0       0.00394741      -0.02282473       0.03819554
