31
Lattice="8.421641763931781 0.0 0.0 4.2108208819658905 7.293355709136913 0.0 0.0 0.0 44.584161137365626" Properties=species:S:1:pos:R:3:tags:I:1:forces:R:3 energy=-173.71585083007812 free_energy=-173.71585083007812 stress="0.010695401579141617 -2.5203478415392055e-08 1.6501225275078468e-08 -2.5203478415392055e-08 0.010695458389818668 -1.427294726852324e-08 1.6501225275078468e-08 -1.427294726852324e-08 5.398495704866946e-05" pbc="T T T"
Pt       1.40360696       0.81037286      20.00000000        3       0.00521457       0.00366232      -0.00904939
Pt       4.21082088       0.81037286      20.00000000        3       0.00041348       0.00292706      -0.00573364
Pt       7.01803480       0.81037286      20.00000000        3      -0.00578400       0.00267971      -0.00904956
Pt       2.80721392       3.24149143      20.00000000        3       0.00233183      -0.00182093      -0.00573564
Pt       5.61442784       3.24149143      20.00000000        3      -0.00274360      -0.00110799      -0.00573456
Pt       8.42164176       3.24149143      20.00000000        3      -0.00044729       0.00437537       0.01246858
Pt       4.21082088       5.67261000      20.00000000        3       0.00056959      -0.00634624      -0.00904882
Pt       7.01803480       5.67261000      20.00000000        3       0.00401047      -0.00179666       0.01246941
Pt       9.82524872       5.67261000      20.00000000        3      -0.00356504      -0.00257244       0.01246953
Pt      -0.00000000       1.62074571      22.29208057        2       0.00116909       0.06463704       0.03390396
Pt       2.80721392       1.62074571      22.29208057        2      -0.01136998       0.00413602       0.00323671
Pt       5.61442784       1.62074571      22.29208057        2       0.00209981      -0.01191807       0.00323542
Pt       1.40360696       4.05186428      22.29208057        2      -0.06389754       0.03977403      -0.02262754
Pt       4.21082088       4.05186428      22.29208057        2       0.00927024       0.00777878       0.00323660
Pt       7.01803480       4.05186428      22.29208057        2       0.06639092       0.03545069      -0.02262794
Pt       2.80721392       6.48298285      22.29208057        2      -0.05656230      -0.03130773       0.03390349
Pt       5.61442784       6.48298285      22.29208057        2       0.05539401      -0.03332979       0.03390186
Pt       8.42164176       6.48298285      22.29208057        2      -0.00249589      -0.07522146      -0.02263024
Pt       0.00000029      -0.00000014      24.58918316        1      -0.00000228       0.00000037      -0.00004005
Pt       2.79607715       0.01953022      24.60028270        1       0.01657556      -0.02171375      -0.01355354
Pt       5.61231383      -0.00204182      24.60570023        1      -0.00001818       0.00689835       0.00132994
Pt       1.40289576       2.43397000      24.60570044        1       0.00598232      -0.00343099       0.00133018
Pt       4.21082100       2.43111849      24.58864013        1      -0.00000146       0.00000000       0.00205031
Pt       7.00668926       2.41170845      24.60028285        1       0.01051962       0.02521285      -0.01355170
Pt       2.82969604       4.86211685      24.60028310        1      -0.02709316      -0.00349737      -0.01355340
Pt       5.61725246       4.86142723      24.60570048        1      -0.00596084      -0.00346623       0.00132926
Pt       8.42164164       4.86223733      24.65962260        1      -0.00000388      -0.00000076       0.02951467
N        8.42163988       4.86223862      26.72769372        0       0.00018373      -0.00013655       0.01220548
H        7.45124481       4.86344842      27.05203883        0      -0.02151962       0.00122689      -0.01451279
H        8.90788958       5.70202029      27.05203871        0       0.01176678       0.01794742      -0.01454408
H        8.90579220       4.02124131      27.05203889        0       0.00957302      -0.01904000      -0.01459239
