31
Lattice="8.421641763931781 0.0 0.0 4.2108208819658905 7.293355709136913 0.0 0.0 0.0 44.584161137365626" Properties=species:S:1:pos:R:3:tags:I:1:forces:R:3 energy=-172.793212890625 free_energy=-172.793212890625 stress="0.010255745612084866 1.0855710774748673e-09 -2.747936989067057e-09 1.0855710774748673e-09 0.010255754925310612 1.8500961873613164e-10 -2.747936989067057e-09 1.8500961873613164e-10 -4.671908391173929e-05" pbc="T T T"
Pt       1.40360696       0.81037286      20.00000000        3       0.00000113      -0.00000249      -0.00486061
Pt       4.21082088       0.81037286      20.00000000        3      -0.00227711       0.00266074       0.00166875
Pt       7.01803480       0.81037286      20.00000000        3       0.00290364       0.00139613       0.00231454
Pt       2.80721392       3.24149143      20.00000000        3      -0.00024070      -0.00321636       0.00231341
Pt       5.61442784       3.24149143      20.00000000        3      -0.00000245      -0.00000006       0.03026497
Pt       8.42164176       3.24149143      20.00000000        3      -0.00116486      -0.00330463       0.00166565
Pt       4.21082088       5.67261000      20.00000000        3       0.00344726       0.00064390       0.00166780
Pt       7.01803480       5.67261000      20.00000000        3      -0.00266611       0.00181968       0.00231376
Pt       9.82524872       5.67261000      20.00000000        3      -0.00000086       0.00000269      -0.01544541
Pt      -0.00000000       1.62074571      22.29208057        2      -0.13467985       0.06624751       0.03022411
Pt       2.80721392       1.62074571      22.29208057        2       0.12471570       0.08351178       0.03022377
Pt       5.61442784       1.62074571      22.29208057        2      -0.00400753       0.11404301       0.03495277
Pt       1.40360696       4.05186428      22.29208057        2       0.00720042      -0.04540953      -0.07373522
Pt       4.21082088       4.05186428      22.29208057        2       0.10077022      -0.05355427       0.03495401
Pt       7.01803480       4.05186428      22.29208057        2      -0.09676698      -0.06049129       0.03495441
Pt       2.80721392       6.48298285      22.29208057        2       0.03572721       0.02894086      -0.07373680
Pt       5.61442784       6.48298285      22.29208057        2       0.00996423      -0.14976144       0.03022252
Pt       8.42164176       6.48298285      22.29208057        2      -0.04292380       0.01647387      -0.07373808
Pt       0.00873018      -0.00866377      24.56865831        1      -0.01408843       0.02865724      -0.02491534
Pt       2.81035186       0.01189197      24.56865822        1      -0.01777373      -0.02652772      -0.02491471
Pt       5.60391729      -0.01354395      24.56854480        1       0.02910261       0.03360336      -0.00102423
Pt       1.39173921       2.42789003      24.56865840        1       0.03186237      -0.00212831      -0.02491428
Pt       4.17594229       2.43083564      24.60715624        1       0.00513894      -0.02171562      -0.00093825
Pt       7.03571891       2.40105368      24.60715636        1       0.01623596       0.01530891      -0.00093668
Pt       2.80074009       4.87811144      24.56854476        1       0.01454933      -0.04200527      -0.00102304
Pt       5.63162219       4.89258435      24.60715613        1      -0.02137922       0.00640820      -0.00094072
Pt       8.43862566       4.85990651      24.56854395        1      -0.04364799       0.00840023      -0.00102201
N        5.61442769       3.24149187      26.89807121        0       0.00001525      -0.00000170       0.02239090
H        4.70372892       2.98487948      26.46326376        0       0.01597583      -0.02416523       0.02066622
H        5.84754551       4.15848514      26.46326327        0      -0.02892506      -0.00175416       0.02067465
H        6.29200919       2.58110917      26.46326352        0       0.01293441       0.02592000       0.02067327
