31
Lattice="8.421641763931781 0.0 0.0 4.2108208819658905 7.293355709136913 0.0 0.0 0.0 44.584161137365626" Properties=species:S:1:pos:R:3:tags:I:1:forces:R:3 energy=-172.80453491210938 free_energy=-172.80453491210938 stress="0.010308961383998394 3.6294534044856164e-09 -5.387044588189838e-09 3.6294534044856164e-09 0.010308975353837013 4.1800611860765e-09 -5.387044588189838e-09 4.1800611860765e-09 -2.4829998437780887e-05" pbc="T T T"
Pt       1.40360696       0.81037286      20.00000000        3       0.00189865       0.00057140      -0.00842547
Pt       4.21082088       0.81037286      20.00000000        3      -0.00144428       0.00135517      -0.00842386
Pt       7.01803480       0.81037286      20.00000000        3       0.00024288       0.00310567      -0.00555533
Pt       2.80721392       3.24149143      20.00000000        3      -0.00045065      -0.00193102      -0.00842562
Pt       5.61442784       3.24149143      20.00000000        3      -0.00005022       0.00011472       0.01854673
Pt       8.42164176       3.24149143      20.00000000        3      -0.00007424      -0.00009827       0.01854590
Pt       4.21082088       5.67261000      20.00000000        3       0.00257066      -0.00176509      -0.00555477
Pt       7.01803480       5.67261000      20.00000000        3       0.00012142      -0.00001358       0.01854652
Pt       9.82524872       5.67261000      20.00000000        3      -0.00281483      -0.00133880      -0.00555506
Pt      -0.00000000       1.62074571      22.29208057        2      -0.11439377       0.09611722       0.00601566
Pt       2.80721392       1.62074571      22.29208057        2       0.00000312       0.00000063      -0.10867493
Pt       5.61442784       1.62074571      22.29208057        2       0.10751813       0.10099691       0.00855013
Pt       1.40360696       4.05186428      22.29208057        2      -0.14122355       0.04261898       0.00855177
Pt       4.21082088       4.05186428      22.29208057        2       0.14043692       0.05100678       0.00601852
Pt       7.01803480       4.05186428      22.29208057        2      -0.00000099      -0.00000031       0.08439536
Pt       2.80721392       6.48298285      22.29208057        2      -0.00000034      -0.00000192      -0.08292423
Pt       5.61442784       6.48298285      22.29208057        2       0.03370258      -0.14361320       0.00854661
Pt       8.42164176       6.48298285      22.29208057        2      -0.02604171      -0.14712557       0.00601455
Pt      -0.00042296      -0.00316257      24.55878872        1      -0.00015689       0.01291369       0.02385943
Pt       2.81677643       0.01235108      24.57145887        1      -0.02426415      -0.01661632      -0.01094072
Pt       5.61737802       0.00121532      24.55878835        1      -0.01110603      -0.00659632       0.02386042
Pt       1.40952222       2.41666111      24.57145912        1      -0.00225849       0.02932301      -0.01093891
Pt       4.19534288       2.43322377      24.57145979        1       0.02652379      -0.01270281      -0.01095070
Pt       7.01173695       2.40983781      24.61358566        1       0.01066728       0.00371365       0.00521656
Pt       2.80468674       4.86418370      24.55879112        1       0.01126413      -0.00631814       0.02385008
Pt       5.59914678       4.87833201      24.61358523        1      -0.00211794      -0.01109654       0.00522395
Pt       8.44322106       4.86742394      24.61358616        1      -0.00855183       0.00738068       0.00521694
N        7.01803441       4.05186448      26.95086911        0       0.00003019      -0.00002281      -0.01163277
H        7.87596555       4.45700975      26.52762014        0      -0.01735669       0.00293385       0.00235323
H        6.93993572       3.10630189      26.52762027        0       0.01121659       0.01356328       0.00235410
H        6.23820346       4.59228092      26.52762004        0       0.00611015      -0.01647503       0.00233641
