31
Lattice="8.421641763931781 0.0 0.0 4.2108208819658905 7.293355709136913 0.0 0.0 0.0 44.584161137365626" Properties=species:S:1:pos:R:3:tags:I:1:forces:R:3 energy=-172.793212890625 free_energy=-172.793212890625 stress="0.010255706496536732 -1.5848250489725046e-09 -4.7449524309683966e-09 -1.5848250489725046e-09 0.010255731642246246 -2.9002977797176754e-09 -4.7449524309683966e-09 -2.9002977797176754e-09 -4.6711033064639196e-05" pbc="T T T"
Pt       1.40360696       0.81037286      20.00000000        3       0.00000114      -0.00000264      -0.00486097
Pt       4.21082088       0.81037286      20.00000000        3      -0.00227725       0.00266049       0.00166896
Pt       7.01803480       0.81037286      20.00000000        3       0.00290335       0.00139630       0.00231382
Pt       2.80721392       3.24149143      20.00000000        3      -0.00024035      -0.00321580       0.00231385
Pt       5.61442784       3.24149143      20.00000000        3      -0.00000185      -0.00000052       0.03026393
Pt       8.42164176       3.24149143      20.00000000        3      -0.00116474      -0.00330453       0.00166574
Pt       4.21082088       5.67261000      20.00000000        3       0.00344695       0.00064397       0.00166833
Pt       7.01803480       5.67261000      20.00000000        3      -0.00266557       0.00181962       0.00231314
Pt       9.82524872       5.67261000      20.00000000        3      -0.00000109       0.00000262      -0.01544470
Pt      -0.00000000       1.62074571      22.29208057        2      -0.13467556       0.06624568       0.03022020
Pt       2.80721392       1.62074571      22.29208057        2       0.12471545       0.08351010       0.03022195
Pt       5.61442784       1.62074571      22.29208057        2      -0.00400952       0.11404067       0.03494984
Pt       1.40360696       4.05186428      22.29208057        2       0.00720197      -0.04540826      -0.07373484
Pt       4.21082088       4.05186428      22.29208057        2       0.10076523      -0.05355320       0.03495229
Pt       7.01803480       4.05186428      22.29208057        2      -0.09676411      -0.06048968       0.03494957
Pt       2.80721392       6.48298285      22.29208057        2       0.03572686       0.02893701      -0.07373388
Pt       5.61442784       6.48298285      22.29208057        2       0.00996298      -0.14975706       0.03021885
Pt       8.42164176       6.48298285      22.29208057        2      -0.04292282       0.01647508      -0.07373827
Pt       0.00873007      -0.00866309      24.56865884        1      -0.01408989       0.02865438      -0.02491370
Pt       2.81035135       0.01189137      24.56865860        1      -0.01777060      -0.02652521      -0.02491435
Pt       5.60391764      -0.01354402      24.56854504        1       0.02910032       0.03360423      -0.00102331
Pt       1.39174014       2.42788987      24.56865852        1       0.03185843      -0.00212801      -0.02491280
Pt       4.17594284       2.43083529      24.60715591        1       0.00514156      -0.02171399      -0.00092717
Pt       7.03571872       2.40105469      24.60715503        1       0.01623005       0.01530939      -0.00091262
Pt       2.80073984       4.87811056      24.56854544        1       0.01455137      -0.04199962      -0.00103207
Pt       5.63162151       4.89258405      24.60715478        1      -0.02137351       0.00639998      -0.00091302
Pt       8.43862536       4.85990719      24.56854488        1      -0.04364970       0.00839797      -0.00102060
N        5.61442747       3.24149163      26.89807766        0       0.00003193       0.00000976       0.02244350
H        5.84755424       4.15848253      26.46327269        0      -0.02891751      -0.00171913       0.02064234
H        6.29200167       2.58110294      26.46327295        0       0.01297874       0.02589521       0.02064235
H        4.70372830       2.98488878      26.46327244        0       0.01590779      -0.02418478       0.02063354
