31
Lattice="8.421641763931781 0.0 0.0 4.2108208819658905 7.293355709136913 0.0 0.0 0.0 44.584161137365626" Properties=species:S:1:pos:R:3:tags:I:1:forces:R:3 energy=-172.80612182617188 free_energy=-172.80612182617188 stress="0.010317458771169186 -2.5405928472110872e-09 4.026679878421646e-09 -2.5405928472110872e-09 0.010317465290427208 -7.101104149143111e-10 4.026679878421646e-09 -7.101104149143111e-10 1.471882114856271e-05" pbc="T T T"
Pt       1.40360696       0.81037286      20.00000000        3       0.00118216       0.00067969      -0.00975507
Pt       4.21082088       0.81037286      20.00000000        3      -0.00117964       0.00068126      -0.00975430
Pt       7.01803480       0.81037286      20.00000000        3      -0.00000241       0.00306348      -0.00310072
Pt       2.80721392       3.24149143      20.00000000        3       0.00000128      -0.00136518      -0.00975585
Pt       5.61442784       3.24149143      20.00000000        3       0.00054038       0.00031272       0.01786751
Pt       8.42164176       3.24149143      20.00000000        3      -0.00054120       0.00031354       0.01786682
Pt       4.21082088       5.67261000      20.00000000        3       0.00265813      -0.00153157      -0.00310132
Pt       7.01803480       5.67261000      20.00000000        3      -0.00000207      -0.00062409       0.01786703
Pt       9.82524872       5.67261000      20.00000000        3      -0.00265637      -0.00153001      -0.00310227
Pt      -0.00000000       1.62074571      22.29208057        2      -0.12058061       0.08953796       0.01156991
Pt       2.80721392       1.62074571      22.29208057        2       0.00000078      -0.00000263      -0.12116374
Pt       5.61442784       1.62074571      22.29208057        2       0.12058052       0.08953825       0.01156779
Pt       1.40360696       4.05186428      22.29208057        2      -0.13783699       0.05965533       0.01156631
Pt       4.21082088       4.05186428      22.29208057        2       0.13783756       0.05965395       0.01156396
Pt       7.01803480       4.05186428      22.29208057        2      -0.00000121      -0.00000036       0.08418083
Pt       2.80721392       6.48298285      22.29208057        2       0.00000027       0.00000439      -0.05945050
Pt       5.61442784       6.48298285      22.29208057        2       0.01725295      -0.14919353       0.01156754
Pt       8.42164176       6.48298285      22.29208057        2      -0.01725303      -0.14919421       0.01156818
Pt      -0.00072198      -0.00041730      24.56338224        1      -0.00593027      -0.00342257      -0.00191116
Pt       2.80721430       0.01175095      24.56734077        1      -0.00000164      -0.01475877       0.01010549
Pt       5.61515003      -0.00041756      24.56338279        1       0.00593096      -0.00342073      -0.00191030
Pt       1.41378379       2.42524303      24.56734082        1      -0.01278091       0.00737574       0.01010658
Pt       4.20064419       2.42524273      24.56734048        1       0.01278032       0.00737786       0.01010558
Pt       7.01803467       2.41191745      24.61556753        1       0.00000077      -0.00761338      -0.00049110
Pt       2.80721380       4.86307093      24.56338128        1       0.00000126       0.00684818      -0.00189865
Pt       5.59779881       4.87183727      24.61556709        1      -0.00658942       0.00380850      -0.00048381
Pt       8.43827034       4.87183772      24.61556749        1       0.00658764       0.00380587      -0.00049008
N        7.01803512       4.05186442      26.96079417        0      -0.00002263       0.00000370      -0.02615184
H        7.83668750       4.52451373      26.53156424        0       0.02725764       0.01573486       0.00500081
H        7.01803455       3.10656587      26.53156419        0       0.00000681      -0.03147164       0.00500468
H        6.19938235       4.52451335      26.53156373        0      -0.02724102       0.01573323       0.00501144
