31
Lattice="8.421641763931781 0.0 0.0 4.2108208819658905 7.293355709136913 0.0 0.0 0.0 44.584161137365626" Properties=species:S:1:pos:R:3:tags:I:1:forces:R:3 energy=-172.8042755126953 free_energy=-172.8042755126953 stress="0.01028797309845686 4.578987855552441e-09 4.1940046990873725e-09 4.578987855552441e-09 0.010287986136972904 -1.3494818595916058e-09 4.1940046990873725e-09 -1.3494818595916058e-09 2.581619810371194e-05" pbc="T T T"
Pt       1.40360696       0.81037286      20.00000000        3       0.00000123      -0.00000253      -0.01219031
Pt       4.21082088       0.81037286      20.00000000        3      -0.00197884       0.00239179       0.00095415
Pt       7.01803480       0.81037286      20.00000000        3       0.00218465       0.00302486       0.00097552
Pt       2.80721392       3.24149143      20.00000000        3       0.00152951      -0.00340762       0.00097555
Pt       5.61442784       3.24149143      20.00000000        3      -0.00000215       0.00000047       0.03240702
Pt       8.42164176       3.24149143      20.00000000        3      -0.00108046      -0.00291137       0.00095212
Pt       4.21082088       5.67261000      20.00000000        3       0.00306460       0.00052019       0.00095370
Pt       7.01803480       5.67261000      20.00000000        3      -0.00371726       0.00038231       0.00097504
Pt       9.82524872       5.67261000      20.00000000        3      -0.00000079       0.00000230      -0.01433000
Pt      -0.00000000       1.62074571      22.29208057        2      -0.14873211       0.08593510       0.01206103
Pt       2.80721392       1.62074571      22.29208057        2       0.14879037       0.08583862       0.01205776
Pt       5.61442784       1.62074571      22.29208057        2       0.00260917       0.12159345       0.04922242
Pt       1.40360696       4.05186428      22.29208057        2      -0.00523467      -0.02982068      -0.07348116
Pt       4.21082088       4.05186428      22.29208057        2       0.10399977      -0.06305911       0.04922283
Pt       7.01803480       4.05186428      22.29208057        2      -0.10661323      -0.05853640       0.04922515
Pt       2.80721392       6.48298285      22.29208057        2       0.02844362       0.01037551      -0.07348074
Pt       5.61442784       6.48298285      22.29208057        2      -0.00006136      -0.17177440       0.01205796
Pt       8.42164176       6.48298285      22.29208057        2      -0.02320303       0.01944638      -0.07348110
Pt       0.00528294       0.00130331      24.56071419        1      -0.02639708      -0.00284067       0.02082953
Pt       2.80344393       0.00392344      24.56071222        1       0.01566043      -0.02144352       0.02083991
Pt       5.62303610      -0.01200298      24.56953893        1      -0.02005628       0.02605379      -0.00907269
Pt       1.40209381       2.42589062      24.56071482        1       0.01073874       0.02428321       0.02083009
Pt       4.18914569       2.41046109      24.61256868        1       0.01475408       0.02396367       0.01037285
Pt       7.04676125       2.42267619      24.61256742        1      -0.02812785       0.00079709       0.01037460
Pt       2.79251491       4.86078335      24.56953731        1       0.03259402       0.00433920      -0.00907066
Pt       5.60737534       4.89133742      24.61256814        1       0.01337872      -0.02476186       0.01037637
Pt       8.42773327       4.87569254      24.56953739        1      -0.01254482      -0.03039063      -0.00907090
N        5.61442809       3.24149117      26.94051428        0      -0.00003847       0.00001197      -0.04890737
H        6.47774187       2.84438310      26.52021983        0      -0.02394859      -0.00125930       0.00246231
H        4.83886437       2.69239399      26.52021857        0       0.01092131       0.02139186       0.00248251
H        5.52667761       4.18769806      26.52022060        0       0.01306691      -0.02014396       0.00247617
