31
Lattice="8.421641763931781 0.0 0.0 4.2108208819658905 7.293355709136913 0.0 0.0 0.0 44.584161137365626" Properties=species:S:1:pos:R:3:tags:I:1:forces:R:3 energy=-172.8042755126953 free_energy=-172.8042755126953 stress="0.010287960059940815 4.2579419989863254e-09 1.2746618205383697e-09 4.2579419989863254e-09 0.010287974029779434 2.936347387461069e-09 1.2746618205383697e-09 2.936347387461069e-09 2.5799738068599254e-05" pbc="T T T"
Pt       1.40360696       0.81037286      20.00000000        3       0.00000085      -0.00000247      -0.01219070
Pt       4.21082088       0.81037286      20.00000000        3      -0.00197898       0.00239127       0.00095543
Pt       7.01803480       0.81037286      20.00000000        3       0.00218422       0.00302516       0.00097612
Pt       2.80721392       3.24149143      20.00000000        3       0.00152975      -0.00340785       0.00097567
Pt       5.61442784       3.24149143      20.00000000        3      -0.00000191      -0.00000026       0.03240746
Pt       8.42164176       3.24149143      20.00000000        3      -0.00107999      -0.00291134       0.00095236
Pt       4.21082088       5.67261000      20.00000000        3       0.00306462       0.00052039       0.00095254
Pt       7.01803480       5.67261000      20.00000000        3      -0.00371709       0.00038252       0.00097522
Pt       9.82524872       5.67261000      20.00000000        3      -0.00000152       0.00000327      -0.01432896
Pt      -0.00000000       1.62074571      22.29208057        2      -0.14873037       0.08593572       0.01205868
Pt       2.80721392       1.62074571      22.29208057        2       0.14879407       0.08583651       0.01206105
Pt       5.61442784       1.62074571      22.29208057        2       0.00260598       0.12159093       0.04922527
Pt       1.40360696       4.05186428      22.29208057        2      -0.00523616      -0.02982185      -0.07348327
Pt       4.21082088       4.05186428      22.29208057        2       0.10400034      -0.06306406       0.04922120
Pt       7.01803480       4.05186428      22.29208057        2      -0.10661212      -0.05853510       0.04922009
Pt       2.80721392       6.48298285      22.29208057        2       0.02843855       0.01037902      -0.07348247
Pt       5.61442784       6.48298285      22.29208057        2      -0.00005717      -0.17177081       0.01205431
Pt       8.42164176       6.48298285      22.29208057        2      -0.02320315       0.01944907      -0.07348265
Pt       0.00528239       0.00130326      24.56071352        1      -0.02639703      -0.00283702       0.02083865
Pt       2.80344452       0.00392313      24.56071519        1       0.01565444      -0.02143912       0.02083275
Pt       5.62303428      -0.01200391      24.56953929        1      -0.02004604       0.02606240      -0.00908281
Pt       1.40209491       2.42589036      24.56071423        1       0.01073533       0.02428337       0.02082941
Pt       4.18914559       2.41046077      24.61256907        1       0.01475640       0.02396648       0.01036398
Pt       7.04676142       2.42267746      24.61256574        1      -0.02812918       0.00078822       0.01038227
Pt       2.79251497       4.86078403      24.56953569        1       0.03259550       0.00433650      -0.00906086
Pt       5.60737543       4.89133770      24.61256691        1       0.01337380      -0.02476503       0.01038329
Pt       8.42773331       4.87569292      24.56953818        1      -0.01254304      -0.03039609      -0.00907058
N        5.61442808       3.24149158      26.94051243        0      -0.00001476      -0.00000297      -0.04888734
H        4.83886920       2.69238766      26.52021805        0       0.01090132       0.02138710       0.00247529
H        5.52667057       4.18769693      26.52021849        0       0.01306104      -0.02012411       0.00246496
H        6.47774469       2.84438974      26.52021820        0      -0.02394748      -0.00126015       0.00246385
