31
Lattice="8.421641763931781 0.0 0.0 4.2108208819658905 7.293355709136913 0.0 0.0 0.0 44.584161137365626" Properties=species:S:1:pos:R:3:tags:I:1:forces:R:3 energy=-173.7161865234375 free_energy=-173.7161865234375 stress="0.010666708461940289 8.460109057750742e-09 7.587434680544902e-09 8.460109057750742e-09 0.010666708461940289 -4.739511005880104e-09 7.587434680544902e-09 -4.739511005880104e-09 -1.8062937670038082e-06" pbc="T T T"
Pt       1.40360696       0.81037286      20.00000000        3       0.00569509       0.00250882      -0.00957423
Pt       4.21082088       0.81037286      20.00000000        3      -0.00066632       0.00312301      -0.00628421
Pt       7.01803480       0.81037286      20.00000000        3      -0.00502453       0.00367368      -0.00957528
Pt       2.80721392       3.24149143      20.00000000        3       0.00304138      -0.00098387      -0.00628594
Pt       5.61442784       3.24149143      20.00000000        3      -0.00237402      -0.00214114      -0.00628465
Pt       8.42164176       3.24149143      20.00000000        3      -0.00053831       0.00469363       0.01201943
Pt       4.21082088       5.67261000      20.00000000        3      -0.00067017      -0.00618562      -0.00957400
Pt       7.01803480       5.67261000      20.00000000        3       0.00433189      -0.00187736       0.01201963
Pt       9.82524872       5.67261000      20.00000000        3      -0.00379526      -0.00281128       0.01202032
Pt      -0.00000000       1.62074571      22.29208057        2      -0.00611641       0.06274483       0.02846924
Pt       2.80721392       1.62074571      22.29208057        2      -0.00095421      -0.01032464      -0.00398376
Pt       5.61442784       1.62074571      22.29208057        2       0.00941466       0.00433258      -0.00398475
Pt       1.40360696       4.05186428      22.29208057        2      -0.06540516       0.04311213      -0.02902864
Pt       4.21082088       4.05186428      22.29208057        2      -0.00846055       0.00598935      -0.00398492
Pt       7.01803480       4.05186428      22.29208057        2       0.07003633       0.03508857      -0.02902852
Pt       2.80721392       6.48298285      22.29208057        2      -0.05128091      -0.03667007       0.02846857
Pt       5.61442784       6.48298285      22.29208057        2       0.05739792      -0.02607398       0.02846919
Pt       8.42164176       6.48298285      22.29208057        2      -0.00463270      -0.07819622      -0.02902895
Pt      -0.00000053       0.00000047      24.58874879        1       0.00000204      -0.00000063      -0.00018770
Pt       2.80454283       0.00668630      24.60592446        1       0.00698567      -0.01684243      -0.00246647
Pt       5.61907426       0.01090860      24.59462567        1       0.00539321       0.00065541       0.01185384
Pt       1.41073018       2.42163970      24.59462575        1      -0.00212641      -0.00499992       0.01185466
Pt       4.21082057       2.43111934      24.58900176        1      -0.00000207      -0.00000289      -0.00094023
Pt       7.01357904       2.42546259      24.60592476        1       0.01109441       0.01446822      -0.00246435
Pt       2.81433984       4.86120811      24.60592473        1      -0.01807573       0.00236982      -0.00246544
Pt       5.60265734       4.86080807      24.59462531        1      -0.00326530       0.00434419       0.01185344
Pt       8.42164241       4.86223620      24.65974872        1      -0.00000169       0.00000308       0.03701568
N        8.42164236       4.86223569      26.72996897        0       0.00005203      -0.00003859      -0.04318166
H        9.39438018       4.86551549      27.04813881        0      -0.00654016       0.00116227       0.00141022
H        7.93811336       4.01817966      27.04813858        0       0.00426168       0.00506499       0.00142353
H        7.93243365       5.70301215      27.04813300        0       0.00222354      -0.00618604       0.00144617
