31
Lattice="8.421641763931781 0.0 0.0 4.2108208819658905 7.293355709136913 0.0 0.0 0.0 44.584161137365626" Properties=species:S:1:pos:R:3:tags:I:1:forces:R:3 energy=-172.76148986816406 free_energy=-172.76148986816406 stress="0.010289750061929226 1.7939852114068344e-05 0.00014316791202872992 1.7939852114068344e-05 0.010455911979079247 2.1197965907049365e-06 0.00014316791202872992 2.1197965907049365e-06 3.0760158551856875e-05" pbc="T T T"
Pt       1.40360696       0.81037286      20.00000000        3       0.00218906       0.00061577       0.00321925
Pt       4.21082088       0.81037286      20.00000000        3      -0.00350635       0.00066693       0.00237980
Pt       7.01803480       0.81037286      20.00000000        3      -0.00084106       0.00284002      -0.00485608
Pt       2.80721392       3.24149143      20.00000000        3      -0.00090140      -0.00002943      -0.00353897
Pt       5.61442784       3.24149143      20.00000000        3      -0.00228717       0.00241054       0.01940882
Pt       8.42164176       3.24149143      20.00000000        3       0.00146514       0.00183490       0.01590407
Pt       4.21082088       5.67261000      20.00000000        3       0.00199706      -0.00220174       0.00399828
Pt       7.01803480       5.67261000      20.00000000        3      -0.00195461      -0.00240334       0.03659710
Pt       9.82524872       5.67261000      20.00000000        3      -0.00348622      -0.00157542       0.00172317
Pt      -0.00000000       1.62074571      22.29208057        2       0.00069843       0.04354718      -0.04282013
Pt       2.80721392       1.62074571      22.29208057        2       0.01690057      -0.06630176      -0.05669959
Pt       5.61442784       1.62074571      22.29208057        2       0.02897335       0.06047626      -0.03392775
Pt       1.40360696       4.05186428      22.29208057        2      -0.11816485       0.05243663       0.01836857
Pt       4.21082088       4.05186428      22.29208057        2       0.18250248       0.07137775       0.06492832
Pt       7.01803480       4.05186428      22.29208057        2      -0.02831156       0.06735718       0.02686981
Pt       2.80721392       6.48298285      22.29208057        2       0.01798147      -0.01325104      -0.05894198
Pt       5.61442784       6.48298285      22.29208057        2       0.05331505      -0.12697564       0.02739435
Pt       8.42164176       6.48298285      22.29208057        2      -0.03652233      -0.09004825      -0.01966987
Pt       0.01051411       0.00627077      24.57091248        1       0.00372588      -0.00178895      -0.01212913
Pt       2.83566352      -0.01586934      24.60179962        1      -0.01504670       0.03898776       0.00962086
Pt       5.64423694       0.00975752      24.57063960        1       0.00260195       0.00682397      -0.00685829
Pt       1.43322650       2.41098323      24.57289301        1       0.02226045      -0.00302875      -0.01404563
Pt       4.21939262       2.41224947      24.57390680        1      -0.00815623       0.01363451      -0.02147622
Pt       7.04676456       2.43565457      24.60072420        1      -0.01823642      -0.01235252       0.01102078
Pt       2.81642251       4.85843531      24.55895438        1       0.00364257      -0.01374452       0.00540470
Pt       5.58278496       4.85352777      24.62803468        1      -0.01855010      -0.01474223      -0.01595587
Pt       8.47441866       4.85389448      24.61622994        1      -0.00413061      -0.01564395       0.00465998
N        7.03210137       4.87508763      26.87165351        0      -0.03188307       0.00017336       0.02700877
H        7.39855020       4.05406554      26.33079344        0      -0.02120870       0.01857241      -0.00591329
H        6.03533927       4.87025121      26.56866683        0      -0.00446844      -0.00255994       0.01813208
H        7.39105890       5.69696718      26.32759815        0      -0.02059768      -0.01510778       0.00019383
