31
Lattice="8.421641763931781 0.0 0.0 4.2108208819658905 7.293355709136913 0.0 0.0 0.0 44.584161137365626" Properties=species:S:1:pos:R:3:tags:I:1:forces:R:3 energy=-173.70989990234375 free_energy=-173.70989990234375 stress="0.010813940316438675 -4.045389800921839e-09 -2.7129447577323162e-09 -4.045389800921839e-09 0.010813956148922443 -1.0944134487544943e-09 -2.7129447577323162e-09 -1.0944134487544943e-09 0.00012008973862975836" pbc="T T T"
Pt       1.40360696       0.81037286      20.00000000        3       0.00496240       0.00286144      -0.00772336
Pt       4.21082088       0.81037286      20.00000000        3       0.00000155       0.00341841      -0.00427139
Pt       7.01803480       0.81037286      20.00000000        3      -0.00496430       0.00286237      -0.00772426
Pt       2.80721392       3.24149143      20.00000000        3       0.00296344      -0.00171018      -0.00427285
Pt       5.61442784       3.24149143      20.00000000        3      -0.00296395      -0.00170990      -0.00427225
Pt       8.42164176       3.24149143      20.00000000        3       0.00000101       0.00448164       0.01262707
Pt       4.21082088       5.67261000      20.00000000        3       0.00000251      -0.00572794      -0.00772291
Pt       7.01803480       5.67261000      20.00000000        3       0.00387877      -0.00223807       0.01262882
Pt       9.82524872       5.67261000      20.00000000        3      -0.00388152      -0.00223789       0.01262796
Pt      -0.00000000       1.62074571      22.29208057        2       0.00000183       0.05747508       0.04723109
Pt       2.80721392       1.62074571      22.29208057        2      -0.00186991      -0.00108103       0.02037263
Pt       5.61442784       1.62074571      22.29208057        2       0.00186854      -0.00108193       0.02037048
Pt       1.40360696       4.05186428      22.29208057        2      -0.06378069       0.03682357      -0.01406193
Pt       4.21082088       4.05186428      22.29208057        2       0.00000178       0.00216036       0.02037182
Pt       7.01803480       4.05186428      22.29208057        2       0.06377818       0.03682414      -0.01406348
Pt       2.80721392       6.48298285      22.29208057        2      -0.04977677      -0.02873762       0.04723030
Pt       5.61442784       6.48298285      22.29208057        2       0.04977552      -0.02873790       0.04723001
Pt       8.42164176       6.48298285      22.29208057        2       0.00000147      -0.07364552      -0.01406431
Pt       0.00000016      -0.00000033      24.59664167        1       0.00000061      -0.00000030      -0.03495651
Pt       2.80263413       0.00774853      24.60512700        1       0.00224623       0.00079901      -0.01533316
Pt       5.61900762       0.00774844      24.60512677        1      -0.00224682       0.00079709      -0.01533374
Pt       1.40802756       2.42327766      24.60512732        1       0.00181586       0.00154737      -0.01533318
Pt       4.21082094       2.43111842      24.59749850        1      -0.00000143      -0.00000038      -0.03699389
Pt       7.01361397       2.42327784      24.60512728        1      -0.00181503       0.00154537      -0.01533155
Pt       2.81621450       4.86232889      24.60512708        1      -0.00043242      -0.00234478      -0.01533219
Pt       5.60542756       4.86232909      24.60512712        1       0.00042946      -0.00234422      -0.01533329
Pt       8.42164104       4.86223705      24.66416288        1      -0.00000137       0.00000048      -0.02246967
N        8.42164115       4.86223720      26.72911431        0       0.00001760       0.00000048       0.01968151
H        9.26259986       4.37671011      27.05108312        0      -0.00083581       0.00048417       0.00140999
H        7.58068501       4.37671055      27.05108760        0       0.00082070       0.00047272       0.00140354
H        8.42164233       5.83329107      27.05108512        0       0.00000259      -0.00095622       0.00140892
