31
Lattice="8.421641763931781 0.0 0.0 4.2108208819658905 7.293355709136913 0.0 0.0 0.0 44.584161137365626" Properties=species:S:1:pos:R:3:tags:I:1:forces:R:3 energy=-173.71585083007812 free_energy=-173.71585083007812 stress="0.010695411823689938 -1.819351957976778e-08 3.677066207075086e-09 -1.819351957976778e-08 0.010695408098399639 1.2635068102895275e-08 3.677066207075086e-09 1.2635068102895275e-08 5.39917491551023e-05" pbc="T T T"
Pt       1.40360696       0.81037286      20.00000000        3       0.00578191       0.00267964      -0.00904861
Pt       4.21082088       0.81037286      20.00000000        3      -0.00040957       0.00292686      -0.00573280
Pt       7.01803480       0.81037286      20.00000000        3      -0.00521620       0.00366307      -0.00904945
Pt       2.80721392       3.24149143      20.00000000        3       0.00274302      -0.00110826      -0.00573513
Pt       5.61442784       3.24149143      20.00000000        3      -0.00233240      -0.00182060      -0.00573450
Pt       8.42164176       3.24149143      20.00000000        3       0.00044956       0.00437477       0.01246807
Pt       4.21082088       5.67261000      20.00000000        3      -0.00056522      -0.00634643      -0.00904894
Pt       7.01803480       5.67261000      20.00000000        3       0.00356196      -0.00257314       0.01246899
Pt       9.82524872       5.67261000      20.00000000        3      -0.00401336      -0.00179646       0.01246986
Pt      -0.00000000       1.62074571      22.29208057        2      -0.00116671       0.06463705       0.03390598
Pt       2.80721392       1.62074571      22.29208057        2      -0.00210103      -0.01191991       0.00323736
Pt       5.61442784       1.62074571      22.29208057        2       0.01137029       0.00413754       0.00323779
Pt       1.40360696       4.05186428      22.29208057        2      -0.06639096       0.03545030      -0.02262756
Pt       4.21082088       4.05186428      22.29208057        2      -0.00926853       0.00777978       0.00323842
Pt       7.01803480       4.05186428      22.29208057        2       0.06389319       0.03977222      -0.02262720
Pt       2.80721392       6.48298285      22.29208057        2      -0.05539465      -0.03333031       0.03390548
Pt       5.61442784       6.48298285      22.29208057        2       0.05656159      -0.03130648       0.03390534
Pt       8.42164176       6.48298285      22.29208057        2       0.00249656      -0.07521948      -0.02262883
Pt       0.00000021      -0.00000027      24.58918299        1       0.00000200      -0.00000204      -0.00003994
Pt       2.80932853      -0.00204242      24.60570076        1       0.00001649       0.00689737       0.00132048
Pt       5.62556481       0.01953089      24.60028251        1      -0.01657774      -0.02171721      -0.01355378
Pt       1.41495311       2.41170768      24.60028261        1      -0.01052157       0.02521448      -0.01355200
Pt       4.21082089       2.43111833      24.58864028        1       0.00000161       0.00000007       0.00205183
Pt       7.01874610       2.43397045      24.60570090        1      -0.00598248      -0.00343265       0.00132129
Pt       2.80438791       4.86142700      24.60570069        1       0.00596726      -0.00346417       0.00132094
Pt       5.59194456       4.86211646      24.60028256        1       0.02709438      -0.00349648      -0.01355332
Pt       8.42164134       4.86223694      24.65962002        1       0.00000059      -0.00000208       0.02952173
N        8.42164131       4.86223616      26.72769245        0       0.00002667       0.00011486       0.01213425
H        7.93749270       4.02124387      27.05203400        0      -0.00971034      -0.01926783      -0.01450225
H        7.93539424       5.70202009      27.05203398        0      -0.01177318       0.01793519      -0.01454251
H        9.39203867       4.86344854      27.05203377        0       0.02145670       0.00122008      -0.01453116
