31
Lattice="8.421641763931781 0.0 0.0 4.2108208819658905 7.293355709136913 0.0 0.0 0.0 44.584161137365626" Properties=species:S:1:pos:R:3:tags:I:1:forces:R:3 energy=-172.5950164794922 free_energy=-172.5950164794922 stress="0.010540795512497425 -1.493619272707747e-08 8.400029116728547e-09 -1.493619272707747e-08 0.010540776886045933 -1.1206685357478818e-08 8.400029116728547e-09 -1.1206685357478818e-08 -0.00010158787335967645" pbc="T T T"
Pt       1.40360696       0.81037286      20.00000000        3       0.00000080      -0.00000243      -0.00804293
Pt       4.21082088       0.81037286      20.00000000        3      -0.00033386       0.00056199      -0.00361902
Pt       7.01803480       0.81037286      20.00000000        3       0.00033353       0.00056125      -0.00362021
Pt       2.80721392       3.24149143      20.00000000        3       0.00032105      -0.00057307      -0.00362030
Pt       5.61442784       3.24149143      20.00000000        3      -0.00000235      -0.00000037       0.00279936
Pt       8.42164176       3.24149143      20.00000000        3      -0.00031798      -0.00057225      -0.00362155
Pt       4.21082088       5.67261000      20.00000000        3       0.00065771       0.00001070      -0.00361970
Pt       7.01803480       5.67261000      20.00000000        3      -0.00065769       0.00001186      -0.00362113
Pt       9.82524872       5.67261000      20.00000000        3      -0.00000151       0.00000250      -0.00901893
Pt      -0.00000000       1.62074571      22.29208057        2      -0.02764762       0.01596081      -0.01667430
Pt       2.80721392       1.62074571      22.29208057        2       0.02764910       0.01596143      -0.01667888
Pt       5.61442784       1.62074571      22.29208057        2      -0.00000082       0.02752638       0.02986572
Pt       1.40360696       4.05186428      22.29208057        2      -0.00000144      -0.01516466      -0.02844889
Pt       4.21082088       4.05186428      22.29208057        2       0.02384179      -0.01376488       0.02986639
Pt       7.01803480       4.05186428      22.29208057        2      -0.02384156      -0.01376381       0.02987076
Pt       2.80721392       6.48298285      22.29208057        2       0.01313369       0.00758410      -0.02845147
Pt       5.61442784       6.48298285      22.29208057        2      -0.00000121      -0.03192414      -0.01668127
Pt       8.42164176       6.48298285      22.29208057        2      -0.01313169       0.00758271      -0.02845337
Pt       0.00435916       0.00251429      24.57790510        1      -0.02783570      -0.01605743       0.01101163
Pt       2.80285623       0.00251542      24.57790514        1       0.02782641      -0.01606184       0.01101360
Pt       5.61442690      -0.00781466      24.57844203        1       0.00000718       0.04039034       0.01040033
Pt       1.40360736       2.42608598      24.57790555        1      -0.00000424       0.03213212       0.01101300
Pt       4.20815366       2.42957793      24.59062741        1      -0.02003645      -0.01156445       0.00456907
Pt       7.02070118       2.42957809      24.59062790        1       0.02004095      -0.01156734       0.00456987
Pt       2.80044681       4.86614384      24.57844194        1       0.03497657      -0.02019511       0.01040131
Pt       5.61442718       4.86531728      24.59062780        1       0.00000421       0.02312809       0.00457002
Pt       8.42840855       4.86614480      24.57844275        1      -0.03497830      -0.02020274       0.01039219
N        5.61442825       3.24149088      27.94718768        0      -0.00006005       0.00006503      -0.00696129
H        4.79943756       3.71202698      27.54979773        0       0.00677072      -0.00391635       0.00362010
H        6.42941714       3.71202508      27.54979728        0      -0.00670329      -0.00386828       0.00359131
H        5.61442841       2.30042325      27.54979734        0      -0.00000783       0.00771986       0.00357854
