31
Lattice="8.421641763931781 0.0 0.0 4.2108208819658905 7.293355709136913 0.0 0.0 0.0 44.584161137365626" Properties=species:S:1:pos:R:3:tags:I:1:forces:R:3 energy=-172.76148986816406 free_energy=-172.76148986816406 stress="0.010289781726896763 -1.7943657439900562e-05 -0.00014318538887891918 -1.7943657439900562e-05 0.01045591663569212 2.1102032405906357e-06 -0.00014318538887891918 2.1102032405906357e-06 3.078655936405994e-05" pbc="T T T"
Pt       1.40360696       0.81037286      20.00000000        3       0.00350892       0.00066591       0.00237992
Pt       4.21082088       0.81037286      20.00000000        3      -0.00218628       0.00061666       0.00321919
Pt       7.01803480       0.81037286      20.00000000        3       0.00083579       0.00283990      -0.00485659
Pt       2.80721392       3.24149143      20.00000000        3       0.00090426      -0.00002916      -0.00353858
Pt       5.61442784       3.24149143      20.00000000        3      -0.00146601       0.00183434       0.01590568
Pt       8.42164176       3.24149143      20.00000000        3       0.00228659       0.00241126       0.01940829
Pt       4.21082088       5.67261000      20.00000000        3       0.00348769      -0.00157654       0.00172302
Pt       7.01803480       5.67261000      20.00000000        3       0.00195061      -0.00240327       0.03659758
Pt       9.82524872       5.67261000      20.00000000        3      -0.00199597      -0.00220062       0.00399768
Pt      -0.00000000       1.62074571      22.29208057        2      -0.02897181       0.06047691      -0.03392351
Pt       2.80721392       1.62074571      22.29208057        2      -0.01690097      -0.06630000      -0.05669881
Pt       5.61442784       1.62074571      22.29208057        2      -0.00069867       0.04354872      -0.04282197
Pt       1.40360696       4.05186428      22.29208057        2      -0.18249953       0.07137572       0.06492970
Pt       4.21082088       4.05186428      22.29208057        2       0.11816751       0.05243610       0.01836647
Pt       7.01803480       4.05186428      22.29208057        2       0.02830497       0.06735647       0.02687060
Pt       2.80721392       6.48298285      22.29208057        2      -0.01797956      -0.01325132      -0.05894176
Pt       5.61442784       6.48298285      22.29208057        2       0.03652155      -0.09004980      -0.01966924
Pt       8.42164176       6.48298285      22.29208057        2      -0.05331600      -0.12697352       0.02739385
Pt      -0.02980907       0.00975738      24.57063912        1      -0.00260003       0.00682436      -0.00685859
Pt       2.77876477      -0.01586863      24.60179883        1       0.01504399       0.03898033       0.00962441
Pt       5.60391390       0.00627073      24.57091266        1      -0.00372568      -0.00179079      -0.01212895
Pt       1.39503576       2.41224951      24.57390691        1       0.00815179       0.01363392      -0.02148536
Pt       4.18120152       2.41098343      24.57289271        1      -0.02226036      -0.00302920      -0.01404554
Pt       6.98930463       2.43565380      24.60072272        1       0.01824202      -0.01234481       0.01102218
Pt       2.79800584       4.85843528      24.55895380        1      -0.00364670      -0.01374353       0.00540590
Pt       5.56165040       4.85389446      24.61622959        1       0.00414123      -0.01564034       0.00466456
Pt       8.45328407       4.85352811      24.62803511        1       0.01854191      -0.01474521      -0.01593632
N        7.00396483       4.87508664      26.87165590        0       0.03200284       0.00022520       0.02696630
H        6.64501175       5.69696662      26.32759852        0       0.02058798      -0.01512485       0.00020400
H        8.00072916       4.87025165      26.56867068        0       0.00438085      -0.00256612       0.01815721
H        6.63752137       4.05406627      26.33079349        0       0.02118725       0.01854345      -0.00593159
