31
Lattice="8.421641763931781 0.0 0.0 4.2108208819658905 7.293355709136913 0.0 0.0 0.0 44.584161137365626" Properties=species:S:1:pos:R:3:tags:I:1:forces:R:3 energy=-172.80076599121094 free_energy=-172.80076599121094 stress="0.010380446910858154 -8.464869694080335e-09 -1.2753420541855576e-09 -8.464869694080335e-09 0.010380454361438751 4.09197742357037e-09 -1.2753420541855576e-09 4.09197742357037e-09 0.0001381498295813799" pbc="T T T"
Pt       1.40360696       0.81037286      20.00000000        3       0.00000128      -0.00000244      -0.00917152
Pt       4.21082088       0.81037286      20.00000000        3      -0.00208523       0.00282873       0.00179309
Pt       7.01803480       0.81037286      20.00000000        3       0.00175493       0.00301136       0.00177795
Pt       2.80721392       3.24149143      20.00000000        3       0.00173245      -0.00302909       0.00177857
Pt       5.61442784       3.24149143      20.00000000        3      -0.00000202       0.00000019       0.03522545
Pt       8.42164176       3.24149143      20.00000000        3      -0.00140621      -0.00322199       0.00179008
Pt       4.21082088       5.67261000      20.00000000        3       0.00349674       0.00039311       0.00179273
Pt       7.01803480       5.67261000      20.00000000        3      -0.00349088       0.00001781       0.00177845
Pt       9.82524872       5.67261000      20.00000000        3      -0.00000112       0.00000266      -0.01458451
Pt      -0.00000000       1.62074571      22.29208057        2      -0.13851342       0.08505659       0.03905606
Pt       2.80721392       1.62074571      22.29208057        2       0.14292008       0.07742888       0.03905867
Pt       5.61442784       1.62074571      22.29208057        2       0.00084527       0.12743083       0.05053465
Pt       1.40360696       4.05186428      22.29208057        2      -0.00004203      -0.03188302      -0.06163733
Pt       4.21082088       4.05186428      22.29208057        2       0.10993642      -0.06444888       0.05053753
Pt       7.01803480       4.05186428      22.29208057        2      -0.11078621      -0.06297868       0.05053974
Pt       2.80721392       6.48298285      22.29208057        2       0.02763378       0.01590223      -0.06164235
Pt       5.61442784       6.48298285      22.29208057        2      -0.00440296      -0.16248897       0.03905883
Pt       8.42164176       6.48298285      22.29208057        2      -0.02759095       0.01598055      -0.06164159
Pt      -0.00139979       0.00421482      24.56545278        1       0.02553959      -0.01179179      -0.00533047
Pt       2.80426383      -0.00332039      24.56545435        1      -0.00256163       0.02801160      -0.00534064
Pt       5.61297337      -0.00628277      24.56941638        1      -0.00359512      -0.02451628      -0.00741875
Pt       1.40795712       2.43022357      24.56545382        1      -0.02297634      -0.01622197      -0.00534096
Pt       4.18802827       2.41475775      24.61813924        1      -0.00373029       0.01515512      -0.00876852
Pt       7.04360014       2.41955974      24.61813984        1      -0.01126340      -0.01080658      -0.00876644
Pt       2.80250030       4.86663781      24.56941726        1      -0.01943503       0.01537255      -0.00742735
Pt       5.61165496       4.89015594      24.61814032        1       0.01499280      -0.00434565      -0.00877600
Pt       8.42780987       4.86411889      24.56941720        1       0.02302875       0.00914263      -0.00742598
N        5.61442807       3.24149194      26.94318179        0       0.00000486      -0.00002634      -0.00911459
H        5.77359134       4.17741603      26.52136386        0      -0.02450266      -0.00399765      -0.01078482
H        6.34537919       2.63568914      26.52136303        0       0.00877325       0.02325531      -0.01077370
H        4.72431247       2.91137138      26.52136230        0       0.01572540      -0.01923078      -0.01077656
