31
Lattice="8.421641763931781 0.0 0.0 4.2108208819658905 7.293355709136913 0.0 0.0 0.0 44.584161137365626" Properties=species:S:1:pos:R:3:tags:I:1:forces:R:3 energy=-172.5946807861328 free_energy=-172.5946807861328 stress="0.010531826876103878 8.816653185306222e-09 3.9591583345099934e-09 8.816653185306222e-09 0.010531832464039326 3.275758553300534e-09 3.9591583345099934e-09 3.275758553300534e-09 -0.0001016329406411387" pbc="T T T"
Pt       1.40360696       0.81037286      20.00000000        3       0.00046537       0.00026594      -0.00699073
Pt       4.21082088       0.81037286      20.00000000        3      -0.00046294       0.00026691      -0.00699010
Pt       7.01803480       0.81037286      20.00000000        3      -0.00000237       0.00081111      -0.00487494
Pt       2.80721392       3.24149143      20.00000000        3       0.00000135      -0.00053733      -0.00699052
Pt       5.61442784       3.24149143      20.00000000        3       0.00043328       0.00025108      -0.00006601
Pt       8.42164176       3.24149143      20.00000000        3      -0.00043381       0.00025166      -0.00006676
Pt       4.21082088       5.67261000      20.00000000        3       0.00070617      -0.00040542      -0.00487489
Pt       7.01803480       5.67261000      20.00000000        3      -0.00000191      -0.00050025      -0.00006601
Pt       9.82524872       5.67261000      20.00000000        3      -0.00070461      -0.00040425      -0.00487524
Pt      -0.00000000       1.62074571      22.29208057        2      -0.02140783       0.02138705      -0.00027597
Pt       2.80721392       1.62074571      22.29208057        2       0.00000132      -0.00000102      -0.05402455
Pt       5.61442784       1.62074571      22.29208057        2       0.02140788       0.02138655      -0.00027748
Pt       1.40360696       4.05186428      22.29208057        2      -0.02922564       0.00784674      -0.00027681
Pt       4.21082088       4.05186428      22.29208057        2       0.02922573       0.00784570      -0.00027540
Pt       7.01803480       4.05186428      22.29208057        2      -0.00000136      -0.00000140       0.04413661
Pt       2.80721392       6.48298285      22.29208057        2       0.00000145      -0.00000033      -0.03138310
Pt       5.61442784       6.48298285      22.29208057        2       0.00781736      -0.02923322      -0.00028241
Pt       8.42164176       6.48298285      22.29208057        2      -0.00781804      -0.02923248      -0.00027937
Pt      -0.00239786      -0.00138659      24.57829567        1       0.01535493       0.00887541       0.00745249
Pt       2.80721401       0.00768648      24.57860599        1       0.00000318      -0.03944352       0.01256362
Pt       5.61682744      -0.00138683      24.57829438        1      -0.01536226       0.00887563       0.00745293
Pt       1.41026497       2.42727510      24.57860639        1      -0.03416230       0.01971839       0.01256582
Pt       4.20416443       2.42727379      24.57860597        1       0.03415798       0.01972835       0.01256239
Pt       7.01803475       2.42801300      24.59073963        1       0.00000095      -0.02196658       0.00538637
Pt       2.80721271       4.86500770      24.57829615        1       0.00000959      -0.01774333       0.00744271
Pt       5.61173863       4.86378949      24.59073860        1      -0.01902355       0.01097765       0.00539450
Pt       8.42433034       4.86378972      24.59073939        1       0.01901907       0.01098093       0.00538765
N        7.01803468       4.05186488      27.96139706        0      -0.00001169      -0.00004789       0.02141163
H        7.83186568       3.58199798      27.56270671        0       0.02238931      -0.01291896      -0.00629193
H        6.20420266       3.58199747      27.56270675        0      -0.02237047      -0.01290054      -0.00628612
H        7.01803523       4.99159664      27.56270656        0      -0.00000640       0.02586755      -0.00630896
