31
Lattice="8.421641763931781 0.0 0.0 4.2108208819658905 7.293355709136913 0.0 0.0 0.0 44.584161137365626" Properties=species:S:1:pos:R:3:tags:I:1:forces:R:3 energy=-172.65194702148438 free_energy=-172.65194702148438 stress="0.010527051985263824 -3.9771927973220045e-09 1.6052305318314808e-10 -3.9771927973220045e-09 0.010527057573199272 -1.986132591724754e-09 1.6052305318314808e-10 -1.986132591724754e-09 0.0001294398825848475" pbc="T T T"
Pt       1.40360696       0.81037286      20.00000000        3       0.00000038      -0.00000303      -0.00398549
Pt       4.21082088       0.81037286      20.00000000        3      -0.00164523       0.00305773       0.01139030
Pt       7.01803480       0.81037286      20.00000000        3       0.00164455       0.00305712       0.01139036
Pt       2.80721392       3.24149143      20.00000000        3       0.00182721      -0.00295614       0.01138836
Pt       5.61442784       3.24149143      20.00000000        3      -0.00000217      -0.00000018       0.04826051
Pt       8.42164176       3.24149143      20.00000000        3      -0.00182485      -0.00295567       0.01138777
Pt       4.21082088       5.67261000      20.00000000        3       0.00347544      -0.00010197       0.01139003
Pt       7.01803480       5.67261000      20.00000000        3      -0.00347490      -0.00010077       0.01138783
Pt       9.82524872       5.67261000      20.00000000        3      -0.00000089       0.00000278      -0.00338665
Pt      -0.00000000       1.62074571      22.29208057        2      -0.12621307       0.07286692       0.01768052
Pt       2.80721392       1.62074571      22.29208057        2       0.12621340       0.07286742       0.01767854
Pt       5.61442784       1.62074571      22.29208057        2      -0.00000078       0.09583578      -0.00172875
Pt       1.40360696       4.05186428      22.29208057        2       0.00000123      -0.01845890      -0.03355312
Pt       4.21082088       4.05186428      22.29208057        2       0.08300040      -0.04791735      -0.00172809
Pt       7.01803480       4.05186428      22.29208057        2      -0.08300173      -0.04791898      -0.00172671
Pt       2.80721392       6.48298285      22.29208057        2       0.01598697       0.00923057      -0.03355342
Pt       5.61442784       6.48298285      22.29208057        2      -0.00000270      -0.14573823       0.01767961
Pt       8.42164176       6.48298285      22.29208057        2      -0.01598435       0.00923256      -0.03355375
Pt       0.00357597       0.00206444      24.56716673        1      -0.00151694      -0.00087694      -0.00905162
Pt       2.80363819       0.00206398      24.56716707        1       0.00151824      -0.00087337      -0.00905180
Pt       5.61442783      -0.00257130      24.58162453        1      -0.00000177      -0.00448632      -0.00639392
Pt       1.40360675       2.42698929      24.56716705        1       0.00000277       0.00175147      -0.00905126
Pt       4.18471234       2.41604457      24.62651893        1       0.00350687       0.00202473      -0.00717762
Pt       7.04414350       2.41604471      24.62651991        1      -0.00350766       0.00202326      -0.00718519
Pt       2.80498728       4.86352255      24.58162509        1      -0.00388438       0.00224320      -0.00639224
Pt       5.61442781       4.89238478      24.62651972        1      -0.00000272      -0.00404943      -0.00718494
Pt       8.42386775       4.86352273      24.58162534        1       0.00388695       0.00224389      -0.00639121
N        5.61442808       3.24149141      26.85798129        0      -0.00000945       0.00000929       0.01055214
H        6.41149700       3.70167926      26.34499734        0      -0.02188113      -0.01263274       0.00030369
H        5.61442795       2.32111550      26.34499734        0      -0.00000291       0.02526641       0.00029987
H        4.81735903       3.70167996      26.34499702        0       0.02189329      -0.01264309       0.00030646
