31
Lattice="8.421641763931781 0.0 0.0 4.2108208819658905 7.293355709136913 0.0 0.0 0.0 44.584161137365626" Properties=species:S:1:pos:R:3:tags:I:1:forces:R:3 energy=-172.8059844970703 free_energy=-172.8059844970703 stress="0.010280285961925983 -7.587818151577608e-10 8.379847371564608e-10 -7.587818151577608e-10 0.010280290618538857 -3.4859348740923224e-10 8.379847371564608e-10 -3.4859348740923224e-10 -5.3929208661429584e-05" pbc="T T T"
Pt       1.40360696       0.81037286      20.00000000        3       0.00105096       0.00060441      -0.00947237
Pt       4.21082088       0.81037286      20.00000000        3      -0.00104902       0.00060507      -0.00947270
Pt       7.01803480       0.81037286      20.00000000        3      -0.00000197       0.00276106      -0.00425279
Pt       2.80721392       3.24149143      20.00000000        3       0.00000132      -0.00121336      -0.00947386
Pt       5.61442784       3.24149143      20.00000000        3       0.00058927       0.00034151       0.01770425
Pt       8.42164176       3.24149143      20.00000000        3      -0.00059033       0.00034205       0.01770246
Pt       4.21082088       5.67261000      20.00000000        3       0.00239532      -0.00138035      -0.00425234
Pt       7.01803480       5.67261000      20.00000000        3      -0.00000202      -0.00068093       0.01770362
Pt       9.82524872       5.67261000      20.00000000        3      -0.00239400      -0.00137906      -0.00425354
Pt      -0.00000000       1.62074571      22.29208057        2      -0.11650736       0.09124055       0.00165151
Pt       2.80721392       1.62074571      22.29208057        2       0.00000120      -0.00000088      -0.09937709
Pt       5.61442784       1.62074571      22.29208057        2       0.11650723       0.09124215       0.00165072
Pt       1.40360696       4.05186428      22.29208057        2      -0.13726963       0.05527957       0.00165335
Pt       4.21082088       4.05186428      22.29208057        2       0.13727303       0.05527903       0.00165231
Pt       7.01803480       4.05186428      22.29208057        2      -0.00000393       0.00000078       0.08201343
Pt       2.80721392       6.48298285      22.29208057        2       0.00000066      -0.00000093      -0.07234763
Pt       5.61442784       6.48298285      22.29208057        2       0.02076264      -0.14652097       0.00165044
Pt       8.42164176       6.48298285      22.29208057        2      -0.02076374      -0.14651847       0.00165153
Pt      -0.00067045      -0.00038755      24.56074773        1      -0.00382788      -0.00220860       0.01202068
Pt       2.80721389       0.00600171      24.56729944        1       0.00000123       0.04489911       0.00588231
Pt       5.61509856      -0.00038736      24.56074786        1       0.00382795      -0.00221050       0.01202089
Pt       1.40880466       2.42811767      24.56729916        1       0.03888412      -0.02245177       0.00588326
Pt       4.20562331       2.42811769      24.56729911        1      -0.03888407      -0.02245131       0.00588340
Pt       7.01803473       2.40924908      24.61409007        1      -0.00000070       0.00594444       0.00152874
Pt       2.80721398       4.86301160      24.56074847        1       0.00000024       0.00442113       0.01201104
Pt       5.59548807       4.87317187      24.61408925        1       0.00514989      -0.00297236       0.00153005
Pt       8.44058094       4.87317182      24.61409030        1      -0.00515065      -0.00297165       0.00153079
N        7.01803514       4.05186430      26.95105656        0      -0.00000946       0.00000992       0.00443068
H        7.83794531       4.52523978      26.52528400        0       0.02161455       0.01247926       0.00171459
H        7.01803501       3.10511306      26.52528381        0       0.00000005      -0.02496243       0.00171321
H        6.19812411       4.52524013      26.52528401        0      -0.02160496       0.01247352       0.00171906
