31
Lattice="8.421641763931781 0.0 0.0 4.2108208819658905 7.293355709136913 0.0 0.0 0.0 44.584161137365626" Properties=species:S:1:pos:R:3:tags:I:1:forces:R:3 energy=-172.79193115234375 free_energy=-172.79193115234375 stress="0.010310142301023006 4.418464705224778e-09 -3.0363342951034156e-09 4.418464705224778e-09 0.010310147888958454 -2.342548155453983e-09 -3.0363342951034156e-09 -2.342548155453983e-09 -5.3184583521215245e-05" pbc="T T T"
Pt       1.40360696       0.81037286      20.00000000        3       0.00082326       0.00125766      -0.00642619
Pt       4.21082088       0.81037286      20.00000000        3      -0.00150057       0.00007995      -0.00642598
Pt       7.01803480       0.81037286      20.00000000        3       0.00026528       0.00262337      -0.00198150
Pt       2.80721392       3.24149143      20.00000000        3       0.00068205      -0.00134272      -0.00642791
Pt       5.61442784       3.24149143      20.00000000        3       0.00012994      -0.00073298       0.01711357
Pt       8.42164176       3.24149143      20.00000000        3       0.00056972       0.00048166       0.01711190
Pt       4.21082088       5.67261000      20.00000000        3       0.00214227      -0.00154371      -0.00198126
Pt       7.01803480       5.67261000      20.00000000        3      -0.00070262       0.00025444       0.01711327
Pt       9.82524872       5.67261000      20.00000000        3      -0.00240940      -0.00107759      -0.00198203
Pt      -0.00000000       1.62074571      22.29208057        2      -0.10593771       0.07567363       0.01753252
Pt       2.80721392       1.62074571      22.29208057        2       0.00000084      -0.00000159      -0.12335959
Pt       5.61442784       1.62074571      22.29208057        2       0.11871260       0.08205443       0.00725828
Pt       1.40360696       4.05186428      22.29208057        2      -0.13041903       0.06178185       0.00725937
Pt       4.21082088       4.05186428      22.29208057        2       0.11850953       0.05390761       0.01753203
Pt       7.01803480       4.05186428      22.29208057        2      -0.00000377       0.00000034       0.07267129
Pt       2.80721392       6.48298285      22.29208057        2       0.00000105       0.00000155      -0.04817881
Pt       5.61442784       6.48298285      22.29208057        2       0.01170378      -0.14383671       0.00725853
Pt       8.42164176       6.48298285      22.29208057        2      -0.01256743      -0.12958071       0.01752964
Pt       0.00401530      -0.01182684      24.56825743        1      -0.01275289       0.02477696      -0.02906740
Pt       2.79849596       0.01462056      24.57019453        1       0.02185090      -0.03446975      -0.00114736
Pt       5.62266228       0.00939032      24.56825745        1      -0.01507786      -0.02343254      -0.02906671
Pt       1.42062817       2.43135833      24.57019433        1      -0.04077853      -0.00169198      -0.00114571
Pt       4.20251797       2.41625787      24.57019441        1       0.01892366       0.03616224      -0.00114702
Pt       7.03631870       2.40891793      24.60961038        1      -0.02603323      -0.01960862      -0.00390448
Pt       2.79496416       4.86467349      24.56825817        1       0.02783610      -0.00134496      -0.02906613
Pt       5.58605937       4.85750267      24.60961001        1      -0.00396510       0.03235222      -0.00390788
Pt       8.43172555       4.88917192      24.60960981        1       0.02999595      -0.01274312      -0.00390087
N        7.01803398       4.05186394      26.91369067        0       0.00001393       0.00002236       0.03990152
H        6.10805468       4.30711539      26.47644887        0       0.02097787       0.02486069       0.02027915
H        7.69407915       4.71230440      26.47644919        0       0.01103071      -0.03061117       0.02028399
H        7.25197100       3.13617297      26.47644908        0      -0.03202129       0.00572717       0.02027176
