31
Lattice="8.421641763931781 0.0 0.0 4.2108208819658905 7.293355709136913 0.0 0.0 0.0 44.584161137365626" Properties=species:S:1:pos:R:3:tags:I:1:forces:R:3 energy=-172.80471801757812 free_energy=-172.80471801757812 stress="0.010280401445925236 -1.4885111809803675e-08 1.5972043243550615e-08 -1.4885111809803675e-08 0.010280420072376728 2.641828533711532e-09 1.5972043243550615e-08 2.641828533711532e-09 -4.915358294965699e-05" pbc="T T T"
Pt       1.40360696       0.81037286      20.00000000        3       0.00149929       0.00067078      -0.01033372
Pt       4.21082088       0.81037286      20.00000000        3      -0.00133029       0.00095987      -0.01033330
Pt       7.01803480       0.81037286      20.00000000        3      -0.00020937       0.00324816      -0.00453010
Pt       2.80721392       3.24149143      20.00000000        3      -0.00016497      -0.00163461      -0.01033452
Pt       5.61442784       3.24149143      20.00000000        3       0.00040416       0.00063166       0.01849869
Pt       8.42164176       3.24149143      20.00000000        3      -0.00074883       0.00003676       0.01849964
Pt       4.21082088       5.67261000      20.00000000        3       0.00292049      -0.00144493      -0.00453070
Pt       7.01803480       5.67261000      20.00000000        3       0.00034224      -0.00066572       0.01849911
Pt       9.82524872       5.67261000      20.00000000        3      -0.00271235      -0.00180169      -0.00453126
Pt      -0.00000000       1.62074571      22.29208057        2      -0.12144008       0.09948019      -0.00071282
Pt       2.80721392       1.62074571      22.29208057        2      -0.00000137       0.00000012      -0.11659227
Pt       5.61442784       1.62074571      22.29208057        2       0.11681075       0.09316128       0.00261759
Pt       1.40360696       4.05186428      22.29208057        2      -0.13908710       0.05457739       0.00262007
Pt       4.21082088       4.05186428      22.29208057        2       0.14687446       0.05543055      -0.00071647
Pt       7.01803480       4.05186428      22.29208057        2      -0.00000082      -0.00000097       0.08542356
Pt       2.80721392       6.48298285      22.29208057        2      -0.00000013       0.00000212      -0.07506236
Pt       5.61442784       6.48298285      22.29208057        2       0.02227396      -0.14773992       0.00261539
Pt       8.42164176       6.48298285      22.29208057        2      -0.02543082      -0.15491079      -0.00071674
Pt      -0.00298901       0.00562916      24.55887127        1      -0.00106148      -0.02671634       0.02349316
Pt       2.80728942       0.00955776      24.56697305        1      -0.00301819       0.00654148       0.01114640
Pt       5.61104674      -0.00540372      24.55887139        1       0.02367151       0.01244166       0.02349328
Pt       1.41184667       2.42627404      24.56697381        1       0.00717523      -0.00065733       0.01113607
Pt       4.20250588       2.42640439      24.56697351        1      -0.00415746      -0.00588227       0.01114628
Pt       7.01121895       2.41008433      24.61570562        1       0.02011144       0.00545496       0.00403608
Pt       2.81358348       4.86201073      24.55887137        1      -0.02260692       0.01427629       0.02349479
Pt       5.59961929       4.87865679      24.61570382        1      -0.00533155      -0.02014678       0.00404151
Pt       8.44326586       4.86685189      24.61570540        1      -0.01478230       0.01468905       0.00403451
N        7.01803584       4.05186413      26.95923430        0      -0.00010953      -0.00001587       0.01854789
H        7.80520263       4.58174923      26.53935751        0       0.01413612      -0.00280862      -0.01501057
H        7.08334550       3.10521270      26.53935896        0      -0.00948580      -0.01076517      -0.01498213
H        6.16555634       4.46862874      26.53935443        0      -0.00454019       0.01358887      -0.01495750
