31
Lattice="8.421641763931781 0.0 0.0 4.2108208819658905 7.293355709136913 0.0 0.0 0.0 44.584161137365626" Properties=species:S:1:pos:R:3:tags:I:1:forces:R:3 energy=-173.7161865234375 free_energy=-173.7161865234375 stress="0.010666724294424057 -1.163520035873944e-08 1.0669340966273921e-08 -1.163520035873944e-08 0.010666679590940475 5.931190649732798e-09 1.0669340966273921e-08 5.931190649732798e-09 -1.803438408387592e-06" pbc="T T T"
Pt       1.40360696       0.81037286      20.00000000        3       0.00569521       0.00250871      -0.00957346
Pt       4.21082088       0.81037286      20.00000000        3      -0.00066646       0.00312327      -0.00628337
Pt       7.01803480       0.81037286      20.00000000        3      -0.00502461       0.00367354      -0.00957465
Pt       2.80721392       3.24149143      20.00000000        3       0.00304121      -0.00098419      -0.00628605
Pt       5.61442784       3.24149143      20.00000000        3      -0.00237372      -0.00214168      -0.00628507
Pt       8.42164176       3.24149143      20.00000000        3      -0.00053819       0.00469383       0.01201934
Pt       4.21082088       5.67261000      20.00000000        3      -0.00067034      -0.00618524      -0.00957486
Pt       7.01803480       5.67261000      20.00000000        3       0.00433181      -0.00187677       0.01202005
Pt       9.82524872       5.67261000      20.00000000        3      -0.00379559      -0.00281134       0.01202115
Pt      -0.00000000       1.62074571      22.29208057        2      -0.00611547       0.06274500       0.02846964
Pt       2.80721392       1.62074571      22.29208057        2      -0.00095306      -0.01032424      -0.00398423
Pt       5.61442784       1.62074571      22.29208057        2       0.00941582       0.00433240      -0.00398353
Pt       1.40360696       4.05186428      22.29208057        2      -0.06540625       0.04311358      -0.02902636
Pt       4.21082088       4.05186428      22.29208057        2      -0.00846033       0.00598845      -0.00398276
Pt       7.01803480       4.05186428      22.29208057        2       0.07003735       0.03508844      -0.02902762
Pt       2.80721392       6.48298285      22.29208057        2      -0.05128046      -0.03667071       0.02846957
Pt       5.61442784       6.48298285      22.29208057        2       0.05739916      -0.02607410       0.02846874
Pt       8.42164176       6.48298285      22.29208057        2      -0.00463171      -0.07819840      -0.02902829
Pt       0.00000171      -0.00000023      24.58874810        1      -0.00000251      -0.00000119      -0.00018772
Pt       2.80454439       0.00668666      24.60592464        1       0.00698139      -0.01684333      -0.00246589
Pt       5.61907585       0.01090734      24.59462592        1       0.00539531       0.00065937       0.01185389
Pt       1.41073151       2.42164012      24.59462616        1      -0.00212855      -0.00499992       0.01185408
Pt       4.21082190       2.43111838      24.58900199        1       0.00000064      -0.00000059      -0.00094137
Pt       7.01358115       2.42546141      24.60592535        1       0.01108697       0.01446763      -0.00246583
Pt       2.81434034       4.86120707      24.60592459        1      -0.01807906       0.00237289      -0.00246561
Pt       5.60265785       4.86080730      24.59462584        1      -0.00326738       0.00434222       0.01185353
Pt       8.42164036       4.86223653      24.65974929        1      -0.00000166       0.00000002       0.03700709
N        8.42163622       4.86223648      26.72997169        0       0.00015415       0.00006264      -0.04322994
H        7.93243019       5.70301333      27.04813847        0       0.00222452      -0.00618285       0.00144333
H        9.39437893       4.86551762      27.04813277        0      -0.00657806       0.00115883       0.00142461
H        7.93811105       4.01818299      27.04813975        0       0.00421000       0.00496367       0.00146182
