31
Lattice="8.421641763931781 0.0 0.0 4.2108208819658905 7.293355709136913 0.0 0.0 0.0 44.584161137365626" Properties=species:S:1:pos:R:3:tags:I:1:forces:R:3 energy=-173.70382690429688 free_energy=-173.70382690429688 stress="0.010710672475397587 -3.422476947889663e-05 -0.0001690494391368702 -3.422476947889663e-05 0.010796085000038147 3.9690639823675156e-05 -0.0001690494391368702 3.9690639823675156e-05 0.00010495853348402306" pbc="T T T"
Pt       1.40360696       0.81037286      20.00000000        3       0.00788081       0.00206633      -0.00670204
Pt       4.21082088       0.81037286      20.00000000        3      -0.00030235       0.00286170      -0.00396991
Pt       7.01803480       0.81037286      20.00000000        3      -0.00299656       0.00342078      -0.00781396
Pt       2.80721392       3.24149143      20.00000000        3       0.00451837      -0.00186125      -0.00829968
Pt       5.61442784       3.24149143      20.00000000        3      -0.00204340      -0.00296708      -0.00728866
Pt       8.42164176       3.24149143      20.00000000        3       0.00253070       0.00514415       0.01727051
Pt       4.21082088       5.67261000      20.00000000        3       0.00072774      -0.00634668      -0.01268160
Pt       7.01803480       5.67261000      20.00000000        3       0.00704200      -0.00205927       0.01834142
Pt       9.82524872       5.67261000      20.00000000        3      -0.00332129      -0.00410618       0.01318735
Pt      -0.00000000       1.62074571      22.29208057        2      -0.02419023       0.07335541       0.04141341
Pt       2.80721392       1.62074571      22.29208057        2      -0.02577451      -0.02320559       0.01842708
Pt       5.61442784       1.62074571      22.29208057        2      -0.00445769       0.00575179       0.02031602
Pt       1.40360696       4.05186428      22.29208057        2      -0.12280820       0.05711244       0.00757636
Pt       4.21082088       4.05186428      22.29208057        2      -0.02727741       0.00297150      -0.01643467
Pt       7.01803480       4.05186428      22.29208057        2       0.05399065       0.03381957      -0.03289465
Pt       2.80721392       6.48298285      22.29208057        2      -0.07820880      -0.01919236       0.03010964
Pt       5.61442784       6.48298285      22.29208057        2       0.05242783      -0.00944956       0.03317374
Pt       8.42164176       6.48298285      22.29208057        2      -0.02576734      -0.07919573      -0.00586093
Pt      -0.03919781       0.01039938      24.58961195        1       0.04555088      -0.00078696      -0.00567520
Pt       2.77191760       0.01067325      24.61259701        1       0.01417857      -0.01115452      -0.00821441
Pt       5.58850402       0.01751466      24.60089532        1      -0.00231356       0.01034185      -0.01006302
Pt       1.37899192       2.43011787      24.59990298        1       0.01380747      -0.02012134      -0.00809506
Pt       4.17818590       2.44033634      24.58988916        1       0.00945171      -0.03591257      -0.00802669
Pt       6.98257581       2.44154209      24.61301671        1       0.01370545      -0.00349851      -0.00751832
Pt       2.77385833       4.86830480      24.60157375        1       0.04177710       0.00249156      -0.00840995
Pt       5.55765457       4.86788694      24.58905216        1       0.02322605       0.01778420       0.01506388
Pt       8.39548840       4.87006879      24.67999862        1       0.00635446       0.01338876      -0.03709868
N        8.05473904       4.88283105      26.72475005        0      -0.02086858       0.02601850      -0.01363057
H        8.94633781       4.90536767      27.22499194        0       0.01529869       0.00043125      -0.03635817
H        7.53067464       4.03202124      26.94604960        0      -0.00126030      -0.03276663       0.02925915
H        7.48937792       5.70994805      26.94121380        0       0.02912179      -0.00433563       0.00089788
