31
Lattice="8.421641763931781 0.0 0.0 4.2108208819658905 7.293355709136913 0.0 0.0 0.0 44.584161137365626" Properties=species:S:1:pos:R:3:tags:I:1:forces:R:3 energy=-172.80453491210938 free_energy=-172.80453491210938 stress="0.010308985598385334 1.2542563654349692e-09 3.6240119793973236e-09 1.2542563654349692e-09 0.010308981873095036 -9.321219351932086e-09 3.6240119793973236e-09 -9.321219351932086e-09 -2.4676261091371998e-05" pbc="T T T"
Pt       1.40360696       0.81037286      20.00000000        3       0.00144684       0.00135347      -0.00842479
Pt       4.21082088       0.81037286      20.00000000        3      -0.00189583       0.00057283      -0.00842431
Pt       7.01803480       0.81037286      20.00000000        3      -0.00024772       0.00310454      -0.00555509
Pt       2.80721392       3.24149143      20.00000000        3       0.00045332      -0.00193050      -0.00842670
Pt       5.61442784       3.24149143      20.00000000        3       0.00007358      -0.00009977       0.01854882
Pt       8.42164176       3.24149143      20.00000000        3       0.00004938       0.00011531       0.01854706
Pt       4.21082088       5.67261000      20.00000000        3       0.00281558      -0.00134002      -0.00555503
Pt       7.01803480       5.67261000      20.00000000        3      -0.00012600      -0.00001316       0.01854643
Pt       9.82524872       5.67261000      20.00000000        3      -0.00256893      -0.00176295      -0.00555599
Pt      -0.00000000       1.62074571      22.29208057        2      -0.10751198       0.10099749       0.00855083
Pt       2.80721392       1.62074571      22.29208057        2       0.00000152      -0.00000156      -0.10864298
Pt       5.61442784       1.62074571      22.29208057        2       0.11438658       0.09612247       0.00600909
Pt       1.40360696       4.05186428      22.29208057        2      -0.14043510       0.05100045       0.00601294
Pt       4.21082088       4.05186428      22.29208057        2       0.14122635       0.04260863       0.00855116
Pt       7.01803480       4.05186428      22.29208057        2      -0.00000484      -0.00000041       0.08441175
Pt       2.80721392       6.48298285      22.29208057        2       0.00000106       0.00000037      -0.08293950
Pt       5.61442784       6.48298285      22.29208057        2       0.02604746      -0.14712393       0.00601036
Pt       8.42164176       6.48298285      22.29208057        2      -0.03371044      -0.14360437       0.00854891
Pt      -0.00295078       0.00121139      24.55878813        1       0.01112312      -0.00657414       0.02386773
Pt       2.79764821       0.01234528      24.57146035        1       0.02427764      -0.01656519      -0.01094981
Pt       5.61485442      -0.00315986      24.55878850        1       0.00013037       0.01291008       0.02386776
Pt       1.41908186       2.43322830      24.57146119        1      -0.02648520      -0.01273264      -0.01094981
Pt       4.20491212       2.41666087      24.57146043        1       0.00220687       0.02931102      -0.01094924
Pt       7.02433596       2.40983260      24.61359061        1      -0.01066360       0.00379343       0.00525841
Pt       2.80973931       4.86418587      24.55878827        1      -0.01125806      -0.00634401       0.02386813
Pt       5.59284263       4.86742335      24.61359016        1       0.00861717       0.00734016       0.00525423
Pt       8.43692604       4.87833762      24.61358848        1       0.00204904      -0.01113699       0.00527049
N        7.01803487       4.05186413      26.95091406        0      -0.00003371       0.00005301      -0.01175058
H        7.79782615       4.59232838      26.52765619        0      -0.00606675      -0.01646555       0.00232880
H        7.09619518       3.10631397      26.52765569        0      -0.01121410       0.01345038       0.00231762
H        6.16008395       4.45695134      26.52765297        0       0.01731655       0.00296162       0.00235343
