31
Lattice="8.421641763931781 0.0 0.0 4.2108208819658905 7.293355709136913 0.0 0.0 0.0 44.584161137365626" Properties=species:S:1:pos:R:3:tags:I:1:forces:R:3 energy=-172.8036651611328 free_energy=-172.8036651611328 stress="0.010319467633962631 9.21649312424222e-10 -5.5556235167841805e-09 9.21649312424222e-10 0.010218464769423008 7.039259071461856e-05 -5.5556235167841805e-09 7.039259071461856e-05 -1.0941337677650154e-05" pbc="T T T"
Pt       1.40360696       0.81037286      20.00000000        3       0.00222220       0.00139312      -0.00127164
Pt       4.21082088       0.81037286      20.00000000        3      -0.00221931       0.00139454      -0.00127119
Pt       7.01803480       0.81037286      20.00000000        3      -0.00000281      -0.00074090      -0.01569042
Pt       2.80721392       3.24149143      20.00000000        3       0.00000188      -0.00096642      -0.00621212
Pt       5.61442784       3.24149143      20.00000000        3      -0.00289069       0.00222415       0.00617599
Pt       8.42164176       3.24149143      20.00000000        3       0.00288989       0.00222493       0.00617483
Pt       4.21082088       5.67261000      20.00000000        3       0.00240607      -0.00366164       0.00331107
Pt       7.01803480       5.67261000      20.00000000        3      -0.00000176      -0.00306925       0.03510550
Pt       9.82524872       5.67261000      20.00000000        3      -0.00240504      -0.00366081       0.00331184
Pt      -0.00000000       1.62074571      22.29208057        2       0.03447530       0.04056457      -0.08589539
Pt       2.80721392       1.62074571      22.29208057        2       0.00000298      -0.08158782      -0.03735754
Pt       5.61442784       1.62074571      22.29208057        2      -0.03447785       0.04056486      -0.08589587
Pt       1.40360696       4.05186428      22.29208057        2      -0.15672001       0.10426039       0.05839913
Pt       4.21082088       4.05186428      22.29208057        2       0.15672025       0.10425550       0.05839460
Pt       7.01803480       4.05186428      22.29208057        2      -0.00000096       0.13903308       0.04898228
Pt       2.80721392       6.48298285      22.29208057        2      -0.00000045      -0.02629886      -0.07215953
Pt       5.61442784       6.48298285      22.29208057        2       0.07579143      -0.09864382       0.03033687
Pt       8.42164176       6.48298285      22.29208057        2      -0.07579131      -0.09864347       0.03033974
Pt      -0.00304608       0.02275639      24.56862793        1      -0.00133014      -0.04929606       0.00071801
Pt       2.80721346       0.03047272      24.59719234        1       0.00000309       0.00794238       0.01625891
Pt       5.61747452       0.02275687      24.56862804        1       0.00132732      -0.04930090       0.00071907
Pt       1.41147436       2.44079706      24.56839066        1       0.01230604       0.00011790      -0.01237592
Pt       4.20295422       2.44079723      24.56839101        1      -0.01230927       0.00011164      -0.01238620
Pt       7.01803439       2.42387136      24.56439401        1       0.00000331       0.01125362       0.01068717
Pt       2.80721484       4.88438580      24.56182821        1      -0.00000715      -0.04882687       0.00093402
Pt       5.58385928       4.85963082      24.62284096        1       0.01314169      -0.01175775      -0.00582735
Pt       8.45220913       4.85963143      24.62284250        1      -0.01313391      -0.01176346      -0.00583979
N        7.01803455       5.33335307      26.90726064        0       0.00003731      -0.00694204      -0.04219154
H        7.83737698       4.80787994      26.53905118        0      -0.02425776       0.03297035       0.01656028
H        6.19869359       4.80787859      26.53905089        0       0.02423446       0.03297165       0.01653648
H        7.01803626       6.22020251      26.35831629        0      -0.00001479      -0.02612261       0.04142839
