31
Lattice="8.421641763931781 0.0 0.0 4.2108208819658905 7.293355709136913 0.0 0.0 0.0 44.584161137365626" Properties=species:S:1:pos:R:3:tags:I:1:forces:R:3 energy=-172.65139770507812 free_energy=-172.65139770507812 stress="0.010359621606767178 -9.725138028215952e-09 1.0310545306424501e-08 -9.725138028215952e-09 0.01035962626338005 2.0296642144757016e-09 1.0310545306424501e-08 2.0296642144757016e-09 -4.087762499693781e-05" pbc="T T T"
Pt       1.40360696       0.81037286      20.00000000        3       0.00000098      -0.00000244      -0.00685528
Pt       4.21082088       0.81037286      20.00000000        3      -0.00128933       0.00270312       0.00972703
Pt       7.01803480       0.81037286      20.00000000        3       0.00128898       0.00270237       0.00972551
Pt       2.80721392       3.24149143      20.00000000        3       0.00169808      -0.00247121       0.00972527
Pt       5.61442784       3.24149143      20.00000000        3      -0.00000207      -0.00000022       0.04421803
Pt       8.42164176       3.24149143      20.00000000        3      -0.00169553      -0.00247025       0.00972489
Pt       4.21082088       5.67261000      20.00000000        3       0.00299011      -0.00023283       0.00972646
Pt       7.01803480       5.67261000      20.00000000        3      -0.00299001      -0.00023160       0.00972551
Pt       9.82524872       5.67261000      20.00000000        3      -0.00000119       0.00000293      -0.00171125
Pt      -0.00000000       1.62074571      22.29208057        2      -0.12750351       0.07361217      -0.01448481
Pt       2.80721392       1.62074571      22.29208057        2       0.12750591       0.07361365      -0.01448513
Pt       5.61442784       1.62074571      22.29208057        2      -0.00000245       0.08691433      -0.02148158
Pt       1.40360696       4.05186428      22.29208057        2       0.00000094      -0.00805570      -0.05043373
Pt       4.21082088       4.05186428      22.29208057        2       0.07527334      -0.04345784      -0.02148103
Pt       7.01803480       4.05186428      22.29208057        2      -0.07527516      -0.04345763      -0.02148016
Pt       2.80721392       6.48298285      22.29208057        2       0.00697751       0.00402893      -0.05043404
Pt       5.61442784       6.48298285      22.29208057        2      -0.00000159      -0.14722873      -0.01448617
Pt       8.42164176       6.48298285      22.29208057        2      -0.00697511       0.00403068      -0.05043477
Pt       0.00346162       0.00199821      24.56004308        1      -0.00292786      -0.00169112       0.02772024
Pt       2.80375269       0.00199839      24.56004371        1       0.00292751      -0.00169110       0.02772038
Pt       5.61442785      -0.00376735      24.58110152        1      -0.00000096       0.00321170      -0.00503999
Pt       1.40360714       2.42712159      24.56004360        1      -0.00000056       0.00337904       0.02772087
Pt       4.18473767       2.41605914      24.61787325        1       0.01591878       0.00919063       0.04069814
Pt       7.04411802       2.41605912      24.61787351        1      -0.01591807       0.00919139       0.04069771
Pt       2.80395162       4.86412056      24.58110174        1       0.00278332      -0.00160469      -0.00503892
Pt       5.61442764       4.89235531      24.61787357        1      -0.00000008      -0.01838079       0.04069696
Pt       8.42490401       4.86412054      24.58110200        1      -0.00278223      -0.00160492      -0.00503835
N        5.61442875       3.24149171      26.85605600        0      -0.00005893      -0.00001412      -0.01858634
H        5.61442769       2.32351829      26.34043567        0       0.00000213      -0.01302813      -0.00211367
H        4.81943941       3.70047853      26.34043521        0      -0.01126679       0.00650608      -0.00210431
H        6.40941533       3.70047776      26.34043583        0       0.01132394       0.00653633      -0.00213742
