31
Lattice="8.421641763931781 0.0 0.0 4.2108208819658905 7.293355709136913 0.0 0.0 0.0 44.584161137365626" Properties=species:S:1:pos:R:3:tags:I:1:forces:R:3 energy=-172.76077270507812 free_energy=-172.76077270507812 stress="0.010311982594430447 -1.4927290976629592e-05 -0.00013858923921361566 -1.4927290976629592e-05 0.010457456111907959 -5.763452008977765e-06 -0.00013858923921361566 -5.763452008977765e-06 0.00011398643982829526" pbc="T T T"
Pt       1.40360696       0.81037286      20.00000000        3       0.00359641       0.00089408       0.00178877
Pt       4.21082088       0.81037286      20.00000000        3      -0.00257850       0.00063639       0.00243175
Pt       7.01803480       0.81037286      20.00000000        3       0.00101470       0.00300039      -0.00506443
Pt       2.80721392       3.24149143      20.00000000        3       0.00064447       0.00004671      -0.00557971
Pt       5.61442784       3.24149143      20.00000000        3      -0.00087751       0.00217670       0.01665193
Pt       8.42164176       3.24149143      20.00000000        3       0.00206066       0.00258005       0.01904243
Pt       4.21082088       5.67261000      20.00000000        3       0.00334159      -0.00202558       0.00241441
Pt       7.01803480       5.67261000      20.00000000        3       0.00170449      -0.00178919       0.03803474
Pt       9.82524872       5.67261000      20.00000000        3      -0.00218017      -0.00275774       0.00365710
Pt      -0.00000000       1.62074571      22.29208057        2      -0.03199729       0.05640806      -0.03371538
Pt       2.80721392       1.62074571      22.29208057        2      -0.01448209      -0.06945119      -0.06476922
Pt       5.61442784       1.62074571      22.29208057        2       0.00526774       0.04512734      -0.03812382
Pt       1.40360696       4.05186428      22.29208057        2      -0.18541525       0.07464871       0.05175458
Pt       4.21082088       4.05186428      22.29208057        2       0.12807019       0.06055074       0.02495799
Pt       7.01803480       4.05186428      22.29208057        2       0.02192636       0.06693453       0.03638082
Pt       2.80721392       6.48298285      22.29208057        2      -0.01335630      -0.01757632      -0.05837065
Pt       5.61442784       6.48298285      22.29208057        2       0.04336286      -0.09789271      -0.00417496
Pt       8.42164176       6.48298285      22.29208057        2      -0.06064177      -0.12906310       0.03078648
Pt      -0.02582863       0.00438245      24.56952078        1       0.00097921       0.00780791      -0.00144511
Pt       2.78294483      -0.00632384      24.60469537        1      -0.00182647      -0.01913056       0.00361983
Pt       5.60478465       0.00108427      24.56933658        1      -0.00623221       0.01056109      -0.00237384
Pt       1.39613457       2.41609207      24.57114163        1      -0.00143928      -0.00899723      -0.00352317
Pt       4.18356979       2.41354078      24.57077800        1      -0.00543135      -0.00640327      -0.00210637
Pt       6.99415189       2.42616357      24.60377368        1      -0.00150112       0.01630984       0.00150210
Pt       2.79400881       4.85514477      24.55989938        1       0.02790184       0.00337595       0.00330684
Pt       5.56628773       4.85108953      24.62028269        1       0.01315804      -0.00009939       0.01262517
Pt       8.44832030       4.85079233      24.62962613        1      -0.00406045       0.00177707       0.02443667
N        6.99704510       4.86818725      26.89483384        0       0.02619654       0.00149592      -0.01393786
H        7.99093250       4.86823769      26.58755436        0       0.04632866      -0.00020625      -0.00393696
H        6.63332606       4.04999231      26.35085401        0       0.00258894      -0.03219943      -0.01684117
H        6.63333063       5.68662485      26.35178227        0       0.00387718       0.03326048      -0.01942888
