31
Lattice="8.421641763931781 0.0 0.0 4.2108208819658905 7.293355709136913 0.0 0.0 0.0 44.584161137365626" Properties=species:S:1:pos:R:3:tags:I:1:forces:R:3 energy=-172.793212890625 free_energy=-172.793212890625 stress="0.010255738161504269 -5.208836917347526e-09 -5.348954612571788e-09 -5.208836917347526e-09 0.010255740955471992 3.836228668063768e-09 -5.348954612571788e-09 3.836228668063768e-09 -4.671941132983193e-05" pbc="T T T"
Pt       1.40360696       0.81037286      20.00000000        3       0.00000113      -0.00000242      -0.00486067
Pt       4.21082088       0.81037286      20.00000000        3      -0.00290426       0.00139667       0.00231564
Pt       7.01803480       0.81037286      20.00000000        3       0.00227643       0.00265990       0.00166649
Pt       2.80721392       3.24149143      20.00000000        3       0.00116699      -0.00330549       0.00166646
Pt       5.61442784       3.24149143      20.00000000        3      -0.00000233      -0.00000034       0.03026345
Pt       8.42164176       3.24149143      20.00000000        3       0.00024365      -0.00321513       0.00231278
Pt       4.21082088       5.67261000      20.00000000        3       0.00266574       0.00181861       0.00231412
Pt       7.01803480       5.67261000      20.00000000        3      -0.00344663       0.00064514       0.00166652
Pt       9.82524872       5.67261000      20.00000000        3      -0.00000113       0.00000278      -0.01544479
Pt      -0.00000000       1.62074571      22.29208057        2      -0.12471080       0.08350836       0.03022129
Pt       2.80721392       1.62074571      22.29208057        2       0.13467960       0.06624708       0.03022039
Pt       5.61442784       1.62074571      22.29208057        2       0.00400308       0.11404000       0.03494805
Pt       1.40360696       4.05186428      22.29208057        2      -0.00719727      -0.04540905      -0.07373565
Pt       4.21082088       4.05186428      22.29208057        2       0.09676189      -0.06049015       0.03494869
Pt       7.01803480       4.05186428      22.29208057        2      -0.10076917      -0.05355255       0.03494848
Pt       2.80721392       6.48298285      22.29208057        2       0.04292515       0.01647171      -0.07373615
Pt       5.61442784       6.48298285      22.29208057        2      -0.00996819      -0.14975756       0.03021846
Pt       8.42164176       6.48298285      22.29208057        2      -0.03572465       0.02894216      -0.07373743
Pt      -0.00313720       0.01189175      24.56865861        1       0.01776898      -0.02652852      -0.02491486
Pt       2.79848411      -0.00866312      24.56865902        1       0.01408953       0.02865466      -0.02491455
Pt       5.62493786      -0.01354355      24.56854501        1      -0.02909938       0.03359935      -0.00102422
Pt       1.41547449       2.42788978      24.56865840        1      -0.03185885      -0.00212572      -0.02491480
Pt       4.19313716       2.40105425      24.60715513        1      -0.01623591       0.01531100      -0.00092014
Pt       7.05291291       2.43083569      24.60715574        1      -0.00514138      -0.02171513      -0.00091953
Pt       2.79022985       4.85990679      24.56854475        1       0.04364787       0.00840198      -0.00102328
Pt       5.59723329       4.89258380      24.60715496        1       0.02137591       0.00640340      -0.00091678
Pt       8.42811522       4.87811069      24.56854493        1      -0.01454609      -0.04200131      -0.00102133
N        5.61442741       3.24149186      26.89807416        0       0.00003147      -0.00003551       0.02236289
H        5.38130669       4.15848424      26.46326739        0       0.02892084      -0.00174239       0.02065558
H        6.52512753       2.98488290      26.46326721        0      -0.01600766      -0.02414991       0.02068298
H        4.93684974       2.58110666      26.46326709        0      -0.01294474       0.02592853       0.02067204
