31
Lattice="8.421641763931781 0.0 0.0 4.2108208819658905 7.293355709136913 0.0 0.0 0.0 44.584161137365626" Properties=species:S:1:pos:R:3:tags:I:1:forces:R:3 energy=-172.60189819335938 free_energy=-172.60189819335938 stress="0.010518893599510193 8.444515309236067e-09 9.517112431467467e-09 8.444515309236067e-09 0.010518872179090977 1.3081267624670545e-08 9.517112431467467e-09 1.3081267624670545e-08 -1.580687239766121e-05" pbc="T T T"
Pt       1.40360696       0.81037286      20.00000000        3       0.00000094      -0.00000258      -0.00634742
Pt       4.21082088       0.81037286      20.00000000        3      -0.00067221       0.00123273      -0.00134245
Pt       7.01803480       0.81037286      20.00000000        3       0.00067179       0.00123203      -0.00134379
Pt       2.80721392       3.24149143      20.00000000        3       0.00073339      -0.00120144      -0.00134370
Pt       5.61442784       3.24149143      20.00000000        3      -0.00000181      -0.00000007       0.01187214
Pt       8.42164176       3.24149143      20.00000000        3      -0.00073059      -0.00120051      -0.00134578
Pt       4.21082088       5.67261000      20.00000000        3       0.00140866      -0.00003199      -0.00134423
Pt       7.01803480       5.67261000      20.00000000        3      -0.00140839      -0.00003103      -0.00134400
Pt       9.82524872       5.67261000      20.00000000        3      -0.00000103       0.00000286      -0.00859967
Pt      -0.00000000       1.62074571      22.29208057        2      -0.04278793       0.02470172      -0.01080625
Pt       2.80721392       1.62074571      22.29208057        2       0.04278990       0.02470295      -0.01080830
Pt       5.61442784       1.62074571      22.29208057        2      -0.00000259       0.05406278       0.04110492
Pt       1.40360696       4.05186428      22.29208057        2       0.00000138      -0.01914799      -0.03130676
Pt       4.21082088       4.05186428      22.29208057        2       0.04682278      -0.02703232       0.04110676
Pt       7.01803480       4.05186428      22.29208057        2      -0.04682439      -0.02703150       0.04110855
Pt       2.80721392       6.48298285      22.29208057        2       0.01658307       0.00957532      -0.03130798
Pt       5.61442784       6.48298285      22.29208057        2      -0.00000172      -0.04940720      -0.01080776
Pt       8.42164176       6.48298285      22.29208057        2      -0.01658181       0.00957694      -0.03130887
Pt       0.00154947       0.00089435      24.57688562        1      -0.00320292      -0.00184885      -0.00631046
Pt       2.80566457       0.00089444      24.57688566        1       0.00320256      -0.00184987      -0.00630972
Pt       5.61442780      -0.00688279      24.57748777        1       0.00000078       0.02061489      -0.00907651
Pt       1.40360716       2.42932947      24.57688588        1      -0.00000072       0.00369880      -0.00630912
Pt       4.19942447       2.42453885      24.59691502        1       0.01709433       0.00986950       0.02064882
Pt       7.02943095       2.42453887      24.59691524        1      -0.01709251       0.00987006       0.02064893
Pt       2.80125343       4.86567857      24.57748769        1       0.01785377      -0.01030815      -0.00907698
Pt       5.61442771       4.87539659      24.59691512        1       0.00000137      -0.01973769       0.02064712
Pt       8.42760230       4.86567864      24.57748785        1      -0.01785589      -0.01030880      -0.00907567
N        5.61442829       3.24149250      27.59226999        0      -0.00005488      -0.00008936      -0.02898183
H        4.79609721       2.76902792      27.19286750        0       0.02509302       0.01449189       0.00914469
H        5.61442792       4.18641689      27.19286791        0       0.00000151      -0.02886596       0.00909545
H        6.43275780       2.76902838      27.19286759        0      -0.02503997       0.01446306       0.00911934
