31
Lattice="8.421641763931781 0.0 0.0 4.2108208819658905 7.293355709136913 0.0 0.0 0.0 44.584161137365626" Properties=species:S:1:pos:R:3:tags:I:1:forces:R:3 energy=-172.76148986816406 free_energy=-172.76148986816406 stress="0.010289764031767845 1.7942058548214845e-05 0.00014317261229734868 1.7942058548214845e-05 0.010455922223627567 2.1156040475034388e-06 0.00014317261229734868 2.1156040475034388e-06 3.0768329452257603e-05" pbc="T T T"
Pt       1.40360696       0.81037286      20.00000000        3       0.00218911       0.00061486       0.00321880
Pt       4.21082088       0.81037286      20.00000000        3      -0.00350624       0.00066671       0.00237998
Pt       7.01803480       0.81037286      20.00000000        3      -0.00084111       0.00283993      -0.00485635
Pt       2.80721392       3.24149143      20.00000000        3      -0.00090146      -0.00002950      -0.00353870
Pt       5.61442784       3.24149143      20.00000000        3      -0.00228697       0.00241069       0.01940945
Pt       8.42164176       3.24149143      20.00000000        3       0.00146509       0.00183471       0.01590312
Pt       4.21082088       5.67261000      20.00000000        3       0.00199726      -0.00220210       0.00399795
Pt       7.01803480       5.67261000      20.00000000        3      -0.00195525      -0.00240334       0.03659725
Pt       9.82524872       5.67261000      20.00000000        3      -0.00348626      -0.00157472       0.00172207
Pt      -0.00000000       1.62074571      22.29208057        2       0.00069806       0.04354902      -0.04282234
Pt       2.80721392       1.62074571      22.29208057        2       0.01690188      -0.06630188      -0.05669980
Pt       5.61442784       1.62074571      22.29208057        2       0.02897206       0.06047716      -0.03392681
Pt       1.40360696       4.05186428      22.29208057        2      -0.11816227       0.05243487       0.01836266
Pt       4.21082088       4.05186428      22.29208057        2       0.18250270       0.07137708       0.06492649
Pt       7.01803480       4.05186428      22.29208057        2      -0.02831380       0.06735621       0.02686842
Pt       2.80721392       6.48298285      22.29208057        2       0.01798014      -0.01325144      -0.05894496
Pt       5.61442784       6.48298285      22.29208057        2       0.05331755      -0.12697695       0.02739146
Pt       8.42164176       6.48298285      22.29208057        2      -0.03652299      -0.09004533      -0.01967181
Pt       0.01051411       0.00627060      24.57091233        1       0.00372604      -0.00178616      -0.01211846
Pt       2.83566351      -0.01586916      24.60179925        1      -0.01504578       0.03898386       0.00962313
Pt       5.64423701       0.00975746      24.57063935        1       0.00260095       0.00682641      -0.00685859
Pt       1.43322654       2.41098402      24.57289317        1       0.02226098      -0.00303717      -0.01404539
Pt       4.21939233       2.41224969      24.57390640        1      -0.00815231       0.01363406      -0.02147625
Pt       7.04676474       2.43565430      24.60072300        1      -0.01824176      -0.01234768       0.01102269
Pt       2.81642196       4.85843505      24.55895386        1       0.00365034      -0.01374358       0.00540540
Pt       5.58278508       4.85352785      24.62803429        1      -0.01854280      -0.01474535      -0.01594407
Pt       8.47441937       4.85389411      24.61622836        1      -0.00414787      -0.01563898       0.00468007
N        7.03210326       4.87508718      26.87165564        0      -0.03194159       0.00018930       0.02692661
H        7.39105777       5.69696731      26.32759888        0      -0.02059687      -0.01514335       0.00021300
H        7.39854861       4.05406538      26.33079421        0      -0.02120807       0.01859578      -0.00590163
H        6.03533999       4.87025166      26.56866840        0      -0.00440873      -0.00256331       0.01815682
