31
Lattice="8.421641763931781 0.0 0.0 4.2108208819658905 7.293355709136913 0.0 0.0 0.0 44.584161137365626" Properties=species:S:1:pos:R:3:tags:I:1:forces:R:3 energy=-172.80886840820312 free_energy=-172.80886840820312 stress="0.01034311018884182 1.091792967145011e-08 -3.6209881759674545e-09 1.091792967145011e-08 0.010292673483490944 -4.851686981055536e-07 -3.6209881759674545e-09 -4.851686981055536e-07 8.413388059125282e-06" pbc="T T T"
Pt       1.40360696       0.81037286      20.00000000        3       0.00099211       0.00118538      -0.00968125
Pt       4.21082088       0.81037286      20.00000000        3      -0.00098943       0.00118634      -0.00968096
Pt       7.01803480       0.81037286      20.00000000        3      -0.00000260       0.00201384      -0.00764981
Pt       2.80721392       3.24149143      20.00000000        3       0.00000170      -0.00150654      -0.00881478
Pt       5.61442784       3.24149143      20.00000000        3      -0.00076473       0.00151018       0.01716760
Pt       8.42164176       3.24149143      20.00000000        3       0.00076413       0.00151076       0.01716602
Pt       4.21082088       5.67261000      20.00000000        3       0.00310404      -0.00226788      -0.00013241
Pt       7.01803480       5.67261000      20.00000000        3      -0.00000207      -0.00184801       0.02362075
Pt       9.82524872       5.67261000      20.00000000        3      -0.00310241      -0.00226657      -0.00013289
Pt      -0.00000000       1.62074571      22.29208057        2      -0.08001623       0.08058058      -0.02290862
Pt       2.80721392       1.62074571      22.29208057        2       0.00000092       0.00402684      -0.11545275
Pt       5.61442784       1.62074571      22.29208057        2       0.08001640       0.08058082      -0.02290984
Pt       1.40360696       4.05186428      22.29208057        2      -0.15491346       0.07568533       0.02985383
Pt       4.21082088       4.05186428      22.29208057        2       0.15491524       0.07568572       0.02985475
Pt       7.01803480       4.05186428      22.29208057        2      -0.00000322       0.03500459       0.08498296
Pt       2.80721392       6.48298285      22.29208057        2       0.00000160      -0.01605130      -0.06294289
Pt       5.61442784       6.48298285      22.29208057        2       0.01796926      -0.16558580       0.01990405
Pt       8.42164176       6.48298285      22.29208057        2      -0.01797105      -0.16558400       0.01990221
Pt      -0.00383051       0.00231295      24.56366422        1       0.00768241      -0.00903771       0.00247860
Pt       2.80721411       0.01621395      24.56554075        1      -0.00000171       0.00299615       0.01330498
Pt       5.61825841       0.00231211      24.56366408        1      -0.00768128      -0.00903267       0.00247893
Pt       1.41052452       2.42821002      24.56870226        1      -0.00122263      -0.00157507       0.00529663
Pt       4.20390379       2.42820941      24.56870247        1       0.00122196      -0.00157096       0.00529647
Pt       7.01803495       2.40907993      24.60324835        1      -0.00000139       0.00122057       0.01185862
Pt       2.80721321       4.86098098      24.56180450        1       0.00000420       0.01347552       0.00301541
Pt       5.59590874       4.87109603      24.62482044        1      -0.00090280       0.00053957      -0.00748840
Pt       8.44016006       4.87109660      24.62482022        1       0.00090025       0.00053614      -0.00748450
N        7.01803515       4.27635127      26.94624936        0       0.00002742       0.02826187       0.01653796
H        6.19631395       4.78218437      26.56311519        0      -0.00384954      -0.01072661      -0.00308785
H        7.83975699       4.78218599      26.56311689        0       0.00381130      -0.01076262      -0.00307785
H        7.01803338       3.36258421      26.45243635        0       0.00001170      -0.00818428      -0.02127513
