31
Lattice="8.421641763931781 0.0 0.0 4.2108208819658905 7.293355709136913 0.0 0.0 0.0 44.584161137365626" Properties=species:S:1:pos:R:3:tags:I:1:forces:R:3 energy=-173.71240234375 free_energy=-173.71240234375 stress="0.010804605670273304 -4.541141240821389e-09 -2.2330388649294264e-09 -4.541141240821389e-09 0.010804620571434498 -1.5019278043482132e-09 -2.2330388649294264e-09 -1.5019278043482132e-09 0.00011949025793001056" pbc="T T T"
Pt       1.40360696       0.81037286      20.00000000        3       0.00531817       0.00306761      -0.00782266
Pt       4.21082088       0.81037286      20.00000000        3       0.00000205       0.00336343      -0.00487337
Pt       7.01803480       0.81037286      20.00000000        3      -0.00531986       0.00306779      -0.00782365
Pt       2.80721392       3.24149143      20.00000000        3       0.00291554      -0.00168260      -0.00487494
Pt       5.61442784       3.24149143      20.00000000        3      -0.00291585      -0.00168217      -0.00487417
Pt       8.42164176       3.24149143      20.00000000        3       0.00000106       0.00485980       0.01284629
Pt       4.21082088       5.67261000      20.00000000        3       0.00000212      -0.00613885      -0.00782335
Pt       7.01803480       5.67261000      20.00000000        3       0.00420627      -0.00242705       0.01284546
Pt       9.82524872       5.67261000      20.00000000        3      -0.00420933      -0.00242708       0.01284719
Pt      -0.00000000       1.62074571      22.29208057        2       0.00000173       0.05838862       0.05123167
Pt       2.80721392       1.62074571      22.29208057        2      -0.00409774      -0.00236662       0.01918414
Pt       5.61442784       1.62074571      22.29208057        2       0.00409707      -0.00236869       0.01918584
Pt       1.40360696       4.05186428      22.29208057        2      -0.06503817       0.03755050      -0.01545850
Pt       4.21082088       4.05186428      22.29208057        2      -0.00000004       0.00473179       0.01918397
Pt       7.01803480       4.05186428      22.29208057        2       0.06503795       0.03754857      -0.01545991
Pt       2.80721392       6.48298285      22.29208057        2      -0.05056772      -0.02919425       0.05123146
Pt       5.61442784       6.48298285      22.29208057        2       0.05056468      -0.02919240       0.05122737
Pt       8.42164176       6.48298285      22.29208057        2       0.00000328      -0.07509816      -0.01546005
Pt       0.00000024      -0.00000015      24.59631286        1      -0.00000021       0.00000059      -0.03171459
Pt       2.80449236       0.00918248      24.60522747        1      -0.00508723      -0.00390497      -0.01701438
Pt       5.61714970       0.00918255      24.60522833        1       0.00508625      -0.00390466      -0.01702257
Pt       1.41019855       2.42417025      24.60522833        1      -0.00592628      -0.00245420      -0.01702222
Pt       4.21082087       2.43111846      24.59619158        1       0.00000227      -0.00000032      -0.03323242
Pt       7.01144305       2.42417023      24.60522837        1       0.00592448      -0.00245426      -0.01702170
Pt       2.81652743       4.86000276      24.60522846        1      -0.00083834       0.00635996      -0.01702152
Pt       5.60511471       4.86000277      24.60522744        1       0.00083608       0.00635682      -0.01701339
Pt       8.42164097       4.86223714      24.66368019        1      -0.00000119       0.00000360      -0.02417257
N        8.42164133       4.86223753      26.72836884        0      -0.00001100      -0.00002748       0.01974434
H        8.42164210       3.89113555      27.05000556        0      -0.00000007      -0.00032490       0.00205764
H        7.58064387       5.34778749      27.05000895        0      -0.00029594       0.00017080       0.00205402
H        9.26264037       5.34778716      27.05000541        0       0.00030987       0.00017907       0.00206673
