31
Lattice="8.421641763931781 0.0 0.0 4.2108208819658905 7.293355709136913 0.0 0.0 0.0 44.584161137365626" Properties=species:S:1:pos:R:3:tags:I:1:forces:R:3 energy=-173.71018981933594 free_energy=-173.71018981933594 stress="0.010702358558773994 -3.4036191642883296e-09 -1.0687685181309803e-09 -3.4036191642883296e-09 0.010702350176870823 -4.935403641326275e-09 -1.0687685181309803e-09 -4.935403641326275e-09 -2.6075615096488036e-05" pbc="T T T"
Pt       1.40360696       0.81037286      20.00000000        3       0.00525648       0.00303135      -0.00904617
Pt       4.21082088       0.81037286      20.00000000        3       0.00000200       0.00277727      -0.00570288
Pt       7.01803480       0.81037286      20.00000000        3      -0.00525854       0.00303240      -0.00904682
Pt       2.80721392       3.24149143      20.00000000        3       0.00240764      -0.00138954      -0.00570467
Pt       5.61442784       3.24149143      20.00000000        3      -0.00240842      -0.00138955      -0.00570360
Pt       8.42164176       3.24149143      20.00000000        3       0.00000096       0.00440613       0.01148060
Pt       4.21082088       5.67261000      20.00000000        3       0.00000238      -0.00606768      -0.00904584
Pt       7.01803480       5.67261000      20.00000000        3       0.00381304      -0.00220058       0.01148158
Pt       9.82524872       5.67261000      20.00000000        3      -0.00381634      -0.00220027       0.01148218
Pt      -0.00000000       1.62074571      22.29208057        2       0.00000305       0.06025558       0.03020633
Pt       2.80721392       1.62074571      22.29208057        2      -0.00579058      -0.00334541       0.00052379
Pt       5.61442784       1.62074571      22.29208057        2       0.00578995      -0.00334575       0.00052470
Pt       1.40360696       4.05186428      22.29208057        2      -0.06222269       0.03592527      -0.03349846
Pt       4.21082088       4.05186428      22.29208057        2       0.00000254       0.00668751       0.00052410
Pt       7.01803480       4.05186428      22.29208057        2       0.06222104       0.03592492      -0.03350148
Pt       2.80721392       6.48298285      22.29208057        2      -0.05218371      -0.03012782       0.03020441
Pt       5.61442784       6.48298285      22.29208057        2       0.05218364      -0.03012709       0.03020408
Pt       8.42164176       6.48298285      22.29208057        2       0.00000171      -0.07184642      -0.03350220
Pt       0.00000093      -0.00000044      24.58903012        1       0.00000280       0.00000317      -0.00090054
Pt       2.80374211       0.00735898      24.60139518        1      -0.00857414       0.00529062      -0.00194971
Pt       5.61790251       0.00735842      24.60139528        1       0.00856916       0.00529267      -0.00195104
Pt       1.40824497       2.42443137      24.60139524        1       0.00029122      -0.01006721      -0.00194953
Pt       4.21082162       2.43111864      24.58950668        1       0.00000379      -0.00000205      -0.00040337
Pt       7.01339979       2.42443116      24.60139519        1      -0.00029725      -0.01006968      -0.00194889
Pt       2.81532506       4.86156593      24.60139515        1       0.00886136       0.00477547      -0.00194962
Pt       5.60631920       4.86156550      24.60139509        1      -0.00887011       0.00477829      -0.00194922
Pt       8.42164089       4.86223723      24.65675726        1      -0.00000014      -0.00000287       0.02213591
N        8.42163687       4.86223679      26.72395189        0       0.00003286      -0.00004351       0.04996270
H        9.26342486       4.37623152      27.04679460        0      -0.03704428       0.02138588      -0.01365981
H        7.57985183       4.37623090      27.04680023        0       0.03702425       0.02137856      -0.01366874
H        8.42163895       5.83424781      27.04679738        0      -0.00000372      -0.04271987      -0.01364781
