36
Lattice="8.421641763931781 0.0 0.0 4.2108208819658905 7.293355709136913 0.0 0.0 0.0 46.87624170604845" Properties=species:S:1:pos:R:3:tags:I:1:forces:R:3 charge=0 spin=0 energy=-186.93033381965532 free_energy=-186.93033381965532 stress="0.008562121540307999 -1.767728741164376e-09 4.761410155040835e-10 -1.767728741164376e-09 0.008562121540307999 -2.4414423815954933e-09 4.761410155040835e-10 -2.4414423815954933e-09 -0.0033283403608947992" pbc="T T T"
Pt       0.00000000       0.00000000      20.00000000        4       0.00000207      -0.00000303      -0.22563669
Pt       2.80721392       0.00000000      20.00000000        4       0.00000026      -0.00000209      -0.22563592
Pt       5.61442784       0.00000000      20.00000000        4      -0.00000241      -0.00000132      -0.22563513
Pt       1.40360696       2.43111857      20.00000000        4       0.00000118       0.00000005      -0.22563803
Pt       4.21082088       2.43111857      20.00000000        4       0.00000200       0.00000012      -0.22563611
Pt       7.01803480       2.43111857      20.00000000        4      -0.00000264      -0.00000031      -0.22563827
Pt       2.80721392       4.86223714      20.00000000        4       0.00000087       0.00000093      -0.22563776
Pt       5.61442784       4.86223714      20.00000000        4      -0.00000255       0.00000167      -0.22563607
Pt       8.42164176       4.86223714      20.00000000        4       0.00000152       0.00000270      -0.22563727
Pt       1.40360696       0.81037286      22.29208057        3       0.00000151      -0.00000383       0.21236129
Pt       4.21082088       0.81037286      22.29208057        3       0.00000372      -0.00000314       0.21236095
Pt       7.01803480       0.81037286      22.29208057        3      -0.00000387      -0.00000291       0.21236145
Pt       2.80721392       3.24149143      22.29208057        3       0.00000096      -0.00000074       0.21235918
Pt       5.61442784       3.24149143      22.29208057        3      -0.00000340       0.00000008       0.21236056
Pt       8.42164176       3.24149143      22.29208057        3       0.00000270       0.00000090       0.21236101
Pt       4.21082088       5.67261000      22.29208057        3       0.00000475       0.00000159       0.21235879
Pt       7.01803480       5.67261000      22.29208057        3      -0.00000232       0.00000352       0.21235994
Pt       9.82524872       5.67261000      22.29208057        3      -0.00000263       0.00000396       0.21236125
Pt       0.00000000       1.62074571      24.58416114        2       0.00000326      -0.00000155      -0.21236053
Pt       2.80721392       1.62074571      24.58416114        2       0.00000078      -0.00000294      -0.21236001
Pt       5.61442784       1.62074571      24.58416114        2      -0.00000297      -0.00000312      -0.21236065
Pt       1.40360696       4.05186428      24.58416114        2      -0.00000314       0.00000158      -0.21236056
Pt       4.21082088       4.05186428      24.58416114        2       0.00000493      -0.00000001      -0.21235991
Pt       7.01803480       4.05186428      24.58416114        2      -0.00000241       0.00000008      -0.21236061
Pt       2.80721392       6.48298285      24.58416114        2      -0.00000717       0.00000222      -0.21236078
Pt       5.61442784       6.48298285      24.58416114        2      -0.00000172       0.00000218      -0.21236086
Pt       8.42164176       6.48298285      24.58416114        2       0.00000524       0.00000384      -0.21235955
Pt       0.00000000       0.00000000      26.87624171        1       0.00000258      -0.00000204       0.22563724
Pt       2.80721392       0.00000000      26.87624171        1       0.00000059      -0.00000146       0.22563592
Pt       5.61442784       0.00000000      26.87624171        1      -0.00000216      -0.00000210       0.22563416
Pt       1.40360696       2.43111857      26.87624171        1       0.00000125      -0.00000025       0.22563820
Pt       4.21082088       2.43111857      26.87624171        1       0.00000189      -0.00000033       0.22563632
Pt       7.01803480       2.43111857      26.87624171        1      -0.00000253       0.00000018       0.22563832
Pt       2.80721392       4.86223714      26.87624171        1       0.00000033       0.00000170       0.22563753
Pt       5.61442784       4.86223714      26.87624171        1      -0.00000217       0.00000107       0.22563578
Pt       8.42164176       4.86223714      26.87624171        1       0.00000164       0.00000285       0.22563693
