36
Lattice="8.421641763931781 0.0 0.0 4.2108208819658905 7.293355709136913 0.0 0.0 0.0 46.87624170604845" Properties=species:S:1:pos:R:3:tags:I:1:forces:R:3 charge=0 spin=0 energy=-187.00367709663286 free_energy=-187.00367709663286 stress="0.010496673174202442 1.5633827565864067e-09 8.583467825395985e-10 1.5633827565864067e-09 0.010496685281395912 -1.453424325337238e-10 8.583467825395985e-10 -1.453424325337238e-10 4.6263299736892805e-05" pbc="T T T"
Pt       0.00000010      -0.00000008      19.95723426        4      -0.00000053       0.00000440       0.01627792
Pt       2.80721405      -0.00000019      19.95723440        4      -0.00000111       0.00000325       0.01627076
Pt       5.61442775      -0.00000009      19.95723442        4       0.00000014       0.00000380       0.01627108
Pt       1.40360720       2.43111839      19.95723424        4      -0.00000111       0.00000087       0.01628125
Pt       4.21082081       2.43111837      19.95723432        4       0.00000232       0.00000076       0.01627981
Pt       7.01803477       2.43111848      19.95723418        4      -0.00000078       0.00000027       0.01628070
Pt       2.80721414       4.86223733      19.95723402        4      -0.00000087      -0.00000420       0.01627824
Pt       5.61442794       4.86223738      19.95723427        4       0.00000052      -0.00000528       0.01627697
Pt       8.42164140       4.86223725      19.95723427        4       0.00000140      -0.00000465       0.01627983
Pt       1.40360721       0.81037259      22.29206787        3      -0.00000470       0.00000337      -0.04298466
Pt       4.21082128       0.81037250      22.29206793        3      -0.00000245       0.00000717      -0.04298549
Pt       7.01803467       0.81037258      22.29206786        3       0.00000632       0.00000166      -0.04298724
Pt       2.80721448       3.24149122      22.29206778        3      -0.00000721       0.00000231      -0.04298684
Pt       5.61442763       3.24149122      22.29206789        3       0.00000267       0.00000113      -0.04298755
Pt       8.42164155       3.24149130      22.29206805        3       0.00000349       0.00000030      -0.04298938
Pt       4.21082092       5.67260998      22.29206742        3      -0.00000361       0.00000366      -0.04296824
Pt       7.01803485       5.67261039      22.29206777        3      -0.00000268      -0.00000592      -0.04298254
Pt       9.82524820       5.67261067      22.29206812        3       0.00000707      -0.00001114      -0.04298590
Pt      -0.00000055       1.62074567      24.58417374        2       0.00000329      -0.00000113       0.04298802
Pt       2.80721444       1.62074549      24.58417396        2      -0.00000630       0.00000266       0.04298849
Pt       5.61442779       1.62074539      24.58417380        2       0.00000172       0.00000776       0.04298774
Pt       1.40360639       4.05186440      24.58417384        2       0.00000680      -0.00000315       0.04298620
Pt       4.21082086       4.05186395      24.58417380        2       0.00000041       0.00000691       0.04298419
Pt       7.01803503       4.05186407      24.58417406        2      -0.00000427       0.00000289       0.04298732
Pt       2.80721273       6.48298346      24.58417380        2       0.00001642      -0.00000926       0.04298101
Pt       5.61442804       6.48298329      24.58417398        2      -0.00000563      -0.00000349       0.04298374
Pt       8.42164222       6.48298340      24.58417377        2      -0.00001037      -0.00000666       0.04298818
Pt       0.00000048      -0.00000004      26.91900757        1       0.00000041       0.00000290      -0.01628108
Pt       2.80721389      -0.00000016      26.91900731        1      -0.00000057       0.00000289      -0.01627998
Pt       5.61442786      -0.00000011      26.91900717        1      -0.00000095       0.00000257      -0.01626948
Pt       1.40360732       2.43111853      26.91900756        1      -0.00000003       0.00000025      -0.01628147
Pt       4.21082083       2.43111856      26.91900736        1       0.00000205      -0.00000012      -0.01627979
Pt       7.01803487       2.43111867      26.91900739        1      -0.00000064      -0.00000096      -0.01628030
Pt       2.80721391       4.86223726      26.91900769        1      -0.00000294      -0.00000280      -0.01628155
Pt       5.61442817       4.86223744      26.91900741        1      -0.00000058      -0.00000283      -0.01628038
Pt       8.42164121       4.86223712      26.91900742        1       0.00000216      -0.00000016      -0.01627979
