31
Lattice="8.421641763931781 0.0 0.0 4.2108208819658905 7.293355709136913 0.0 0.0 0.0 44.584161137365626" Properties=species:S:1:pos:R:3:tags:I:1:forces:R:3 energy=-173.71633911132812 free_energy=-173.71633911132812 stress="0.01068414468318224 9.351827756631792e-09 9.971473646785967e-10 9.351827756631792e-09 0.010684188455343246 7.787408051740385e-09 9.971473646785967e-10 7.787408051740385e-09 -3.842742898996221e-06" pbc="T T T"
Pt       1.40360696       0.81037286      20.00000000        3       0.00502851       0.00377289      -0.00913998
Pt       4.21082088       0.81037286      20.00000000        3       0.00070032       0.00299426      -0.00606346
Pt       7.01803480       0.81037286      20.00000000        3      -0.00578586       0.00246508      -0.00913978
Pt       2.80721392       3.24149143      20.00000000        3       0.00224647      -0.00210263      -0.00606504
Pt       5.61442784       3.24149143      20.00000000        3      -0.00294530      -0.00089360      -0.00606477
Pt       8.42164176       3.24149143      20.00000000        3       0.00051937       0.00464942       0.01214671
Pt       4.21082088       5.67261000      20.00000000        3       0.00075753      -0.00624086      -0.00913996
Pt       7.01803480       5.67261000      20.00000000        3       0.00376450      -0.00277190       0.01214626
Pt       9.82524872       5.67261000      20.00000000        3      -0.00428696      -0.00187320       0.01214787
Pt       0.00000000       1.62074571      22.29208057        2       0.00646150       0.06193390       0.03263577
Pt       2.80721392       1.62074571      22.29208057        2      -0.01087240       0.00429819      -0.00003076
Pt       5.61442784       1.62074571      22.29208057        2       0.00171408      -0.01156586      -0.00002651
Pt       1.40360696       4.05186428      22.29208057        2      -0.06801237       0.03419718      -0.02865773
Pt       4.21082088       4.05186428      22.29208057        2       0.00915821       0.00726860      -0.00002397
Pt       7.01803480       4.05186428      22.29208057        2       0.06361935       0.04180570      -0.02867196
Pt       2.80721392       6.48298285      22.29208057        2      -0.05686848      -0.02537541       0.03263920
Pt       5.61442784       6.48298285      22.29208057        2       0.05040453      -0.03655988       0.03263019
Pt       8.42164176       6.48298285      22.29208057        2       0.00440099      -0.07599874      -0.02866776
Pt       0.00000144      -0.00000014      24.58945643        1      -0.00000722       0.00000287      -0.00312793
Pt       2.80201479       0.01134386      24.59564296        1      -0.00740441       0.00254564       0.00772782
Pt       5.61576428       0.00571831      24.60742997        1      -0.00025681      -0.01159837      -0.00824323
Pt       1.40789184       2.42710265      24.60742923        1      -0.00991569       0.00603927      -0.00824286
Pt       4.21082128       2.43111835      24.58918467        1       0.00000705       0.00000940      -0.00129420
Pt       7.01081264       2.42094573      24.59564292        1       0.00149622      -0.00769710       0.00772485
Pt       2.81963952       4.86106914      24.59564314        1       0.00588950       0.00514033       0.00771481
Pt       5.60881192       4.86053695      24.60742963        1       0.01014531       0.00556056      -0.00824092
Pt       8.42163704       4.86223903      24.65960402        1       0.00003108      -0.00000383       0.00527313
N        8.42163730       4.86223504      26.72621010        0       0.00007977       0.00002459      -0.00096959
H        7.44953630       4.86479538      27.04597185        0      -0.00106320       0.00120629      -0.00032365
H        8.90991096       5.70282164      27.04596385        0       0.00152744       0.00022890      -0.00033331
H        8.90547283       4.01908501      27.04595730        0      -0.00053300      -0.00146185      -0.00031930
