31
Lattice="8.421641763931781 0.0 0.0 4.2108208819658905 7.293355709136913 0.0 0.0 0.0 44.584161137365626" Properties=species:S:1:pos:R:3:tags:I:1:forces:R:3 energy=-173.71629333496094 free_energy=-173.71629333496094 stress="0.010681801475584507 7.569069815360763e-09 1.9805550977025632e-08 7.569069815360763e-09 0.010681775398552418 1.0306123954251234e-08 1.9805550977025632e-08 1.0306123954251234e-08 -9.213285920850467e-06" pbc="T T T"
Pt       1.40360696       0.81037286      20.00000000        3       0.00577857       0.00242943      -0.00921541
Pt       4.21082088       0.81037286      20.00000000        3      -0.00072462       0.00293296      -0.00620657
Pt       7.01803480       0.81037286      20.00000000        3      -0.00499731       0.00378646      -0.00921589
Pt       2.80721392       3.24149143      20.00000000        3       0.00290586      -0.00083835      -0.00620881
Pt       5.61442784       3.24149143      20.00000000        3      -0.00218062      -0.00209728      -0.00620747
Pt       8.42164176       3.24149143      20.00000000        3      -0.00056705       0.00471674       0.01214930
Pt       4.21082088       5.67261000      20.00000000        3      -0.00078044      -0.00621868      -0.00921440
Pt       7.01803480       5.67261000      20.00000000        3       0.00436580      -0.00186358       0.01214913
Pt       9.82524872       5.67261000      20.00000000        3      -0.00380096      -0.00284801       0.01215020
Pt       0.00000000       1.62074571      22.29208057        2      -0.00684103       0.06181329       0.03174139
Pt       2.80721392       1.62074571      22.29208057        2      -0.00188448      -0.01192557      -0.00064932
Pt       5.61442784       1.62074571      22.29208057        2       0.01126825       0.00432705      -0.00064439
Pt       1.40360696       4.05186428      22.29208057        2      -0.06377374       0.04238221      -0.03008596
Pt       4.21082088       4.05186428      22.29208057        2      -0.00937913       0.00759831      -0.00064453
Pt       7.01803480       4.05186428      22.29208057        2       0.06858660       0.03404216      -0.03008583
Pt       2.80721392       6.48298285      22.29208057        2      -0.05011195      -0.03683389       0.03174391
Pt       5.61442784       6.48298285      22.29208057        2       0.05695304      -0.02498365       0.03174255
Pt       8.42164176       6.48298285      22.29208057        2      -0.00481132      -0.07641742      -0.03009165
Pt       0.00000052       0.00000020      24.58906517        1       0.00000138      -0.00000458      -0.00155449
Pt       2.80602391       0.00563017      24.60735720        1      -0.00189897      -0.00918381      -0.00837967
Pt       5.61924294       0.01079893      24.59507929        1       0.01018227       0.00618068       0.01006526
Pt       1.41055281       2.42154943      24.59507816        1       0.00024834      -0.01188961       0.01007344
Pt       4.21082080       2.43111880      24.58875811        1       0.00000982      -0.00000066       0.00032529
Pt       7.01375619       2.42727339      24.60735793        1       0.00889888       0.00295766      -0.00837851
Pt       2.81268645       4.86045278      24.60735839        1      -0.00700697       0.00623634      -0.00838883
Pt       5.60267014       4.86100660      24.59507887        1      -0.01043450       0.00573048       0.01006247
Pt       8.42164463       4.86224268      24.65982463        1       0.00000452      -0.00001036       0.00928187
N        8.42164083       4.86223998      26.72698246        0       0.00006306      -0.00007120      -0.00705117
H        7.93317474       5.70313064      27.04606867        0       0.00192022      -0.00568368       0.00025226
H        9.39410769       4.86480586      27.04607153        0      -0.00598679       0.00118764       0.00021584
H        7.93762996       4.01876646      27.04604461        0       0.00399336       0.00454884       0.00026998
