31
Lattice="8.421641763931781 0.0 0.0 4.2108208819658905 7.293355709136913 0.0 0.0 0.0 44.584161137365626" Properties=species:S:1:pos:R:3:tags:I:1:forces:R:3 energy=-172.5792236328125 free_energy=-172.5792236328125 stress="0.010448778048157692 -2.142357402590278e-09 7.871711282803062e-09 -2.142357402590278e-09 0.010548634454607964 6.26764158369042e-05 7.871711282803062e-09 6.26764158369042e-05 -0.0001397640153300017" pbc="T T T"
Pt       1.40360696       0.81037286      20.00000000        3       0.00087966      -0.00016893      -0.00785002
Pt       4.21082088       0.81037286      20.00000000        3      -0.00087660      -0.00016840      -0.00785062
Pt       7.01803480       0.81037286      20.00000000        3      -0.00000261       0.00113403      -0.00677180
Pt       2.80721392       3.24149143      20.00000000        3       0.00000082      -0.00101655      -0.00977856
Pt       5.61442784       3.24149143      20.00000000        3       0.00030695       0.00149321       0.00436258
Pt       8.42164176       3.24149143      20.00000000        3      -0.00030723       0.00149350       0.00436193
Pt       4.21082088       5.67261000      20.00000000        3       0.00175605      -0.00096308      -0.00325820
Pt       7.01803480       5.67261000      20.00000000        3      -0.00000231      -0.00278888       0.01129603
Pt       9.82524872       5.67261000      20.00000000        3      -0.00175517      -0.00096159      -0.00325876
Pt       0.00000000       1.62074571      22.29208057        2      -0.02080055       0.03952401      -0.02779169
Pt       2.80721392       1.62074571      22.29208057        2       0.00000036      -0.01375488      -0.04704614
Pt       5.61442784       1.62074571      22.29208057        2       0.02080041       0.03952553      -0.02779085
Pt       1.40360696       4.05186428      22.29208057        2      -0.07028606       0.02671983      -0.00507202
Pt       4.21082088       4.05186428      22.29208057        2       0.07028981       0.02671893      -0.00507308
Pt       7.01803480       4.05186428      22.29208057        2      -0.00000314       0.04517075       0.05191326
Pt       2.80721392       6.48298285      22.29208057        2       0.00000036      -0.00527324      -0.04579267
Pt       5.61442784       6.48298285      22.29208057        2       0.02188353      -0.06464192       0.01217266
Pt       8.42164176       6.48298285      22.29208057        2      -0.02188367      -0.06464032       0.01217308
Pt      -0.00531951       0.01005737      24.57148155        1      -0.01083213       0.00406450       0.02710643
Pt       2.80721420       0.00070684      24.57805137        1      -0.00000192       0.04293098       0.01029906
Pt       5.61974769       0.01005725      24.57148170        1       0.01083366       0.00406601       0.02710626
Pt       1.40531593       2.42820532      24.57342202        1       0.02012425      -0.00095439       0.01955920
Pt       4.20911159       2.42820522      24.57342233        1      -0.02011876      -0.00095496       0.01955929
Pt       7.01803518       2.44506250      24.58929097        1      -0.00000617      -0.04040838      -0.01082423
Pt       2.80721434       4.86172001      24.56720439        1      -0.00000274       0.00767616       0.03755260
Pt       5.59795933       4.86991828      24.60530471        1      -0.00143178      -0.00018879      -0.03416488
Pt       8.43810898       4.86991815      24.60530560        1       0.00143517      -0.00018721      -0.03416453
N        7.01803527       4.86235627      27.60063808        0      -0.00004995       0.00172989       0.01748854
H        6.19758616       5.31827189      27.19143440        0       0.00657289      -0.02231954      -0.00896246
H        7.83848321       5.31827183      27.19143429        0      -0.00652713      -0.02229795      -0.00898635
H        7.01803468       3.89905096      27.25580434        0       0.00000389      -0.00055820       0.03948591
