31
Lattice="8.421641763931781 0.0 0.0 4.2108208819658905 7.293355709136913 0.0 0.0 0.0 44.584161137365626" Properties=species:S:1:pos:R:3:tags:I:1:forces:R:3 energy=-173.71286010742188 free_energy=-173.71286010742188 stress="0.010689320974051952 -1.4075200560625944e-08 -1.3871639836793292e-08 -1.4075200560625944e-08 0.010689317248761654 -1.8174474147869546e-09 -1.3871639836793292e-08 -1.8174474147869546e-09 -8.123500379042525e-07" pbc="T T T"
Pt       1.40360696       0.81037286      20.00000000        3       0.00540877       0.00312002      -0.00960869
Pt       4.21082088       0.81037286      20.00000000        3       0.00000198       0.00326152      -0.00671300
Pt       7.01803480       0.81037286      20.00000000        3      -0.00540995       0.00312074      -0.00960866
Pt       2.80721392       3.24149143      20.00000000        3       0.00282597      -0.00163207      -0.00671285
Pt       5.61442784       3.24149143      20.00000000        3      -0.00282761      -0.00163155      -0.00671393
Pt       8.42164176       3.24149143      20.00000000        3       0.00000124       0.00504140       0.01241806
Pt       4.21082088       5.67261000      20.00000000        3       0.00000246      -0.00624319      -0.00960797
Pt       7.01803480       5.67261000      20.00000000        3       0.00436328      -0.00251827       0.01241821
Pt       9.82524872       5.67261000      20.00000000        3      -0.00436700      -0.00251820       0.01241758
Pt       0.00000000       1.62074571      22.29208057        2       0.00000296       0.06238540       0.03128560
Pt       2.80721392       1.62074571      22.29208057        2      -0.00560853      -0.00323698      -0.00202593
Pt       5.61442784       1.62074571      22.29208057        2       0.00560804      -0.00323738      -0.00202739
Pt       1.40360696       4.05186428      22.29208057        2      -0.07025257       0.04056058      -0.02787694
Pt       4.21082088       4.05186428      22.29208057        2       0.00000223       0.00647745      -0.00202431
Pt       7.01803480       4.05186428      22.29208057        2       0.07025131       0.04056060      -0.02787859
Pt       2.80721392       6.48298285      22.29208057        2      -0.05402574      -0.03119318       0.03128328
Pt       5.61442784       6.48298285      22.29208057        2       0.05402572      -0.03119229       0.03128304
Pt       8.42164176       6.48298285      22.29208057        2       0.00000230      -0.08112218      -0.02788140
Pt       0.00000128       0.00000059      24.58984497        1       0.00000276      -0.00000014      -0.00326592
Pt       2.80433334       0.00911911      24.60032707        1      -0.00181770      -0.00594867       0.00255716
Pt       5.61731168       0.00911877      24.60032707        1       0.00181036      -0.00595310       0.00255674
Pt       1.41006447       2.42406353      24.60032768        1      -0.00606125       0.00140435       0.00254981
Pt       4.21082241       2.43111933      24.58937897        1      -0.00000287      -0.00000086      -0.00328171
Pt       7.01158021       2.42406269      24.60032774        1       0.00605989       0.00140747       0.00255108
Pt       2.81655289       4.86017510      24.60032810        1      -0.00424823       0.00454300       0.00254972
Pt       5.60509055       4.86017518      24.60032794        1       0.00424421       0.00454364       0.00254987
Pt       8.42164104       4.86223682      24.66258006        1      -0.00000072      -0.00000432       0.01706207
N        8.42163775       4.86223455      26.73159998        0      -0.00007626       0.00001530      -0.00474936
H        8.42163850       3.89043434      27.05269553        0       0.00000090       0.01827288      -0.00450655
H        7.58003295       5.34813635      27.05269569        0       0.01588216      -0.00916469      -0.00452481
H        9.26324248       5.34813523      27.05268829        0      -0.01579806      -0.00911715      -0.00447387
