31
Lattice="8.421641763931781 0.0 0.0 4.2108208819658905 7.293355709136913 0.0 0.0 0.0 44.584161137365626" Properties=species:S:1:pos:R:3:tags:I:1:forces:R:3 energy=-172.80897521972656 free_energy=-172.80897521972656 stress="0.010300850495696068 1.954429951211978e-09 7.682660063679236e-10 1.954429951211978e-09 0.01023299153894186 -1.4009308415552368e-06 7.682660063679236e-10 -1.4009308415552368e-06 -5.03982528243796e-06" pbc="T T T"
Pt       1.40360696       0.81037286      20.00000000        3       0.00266469       0.00147240      -0.00206950
Pt       4.21082088       0.81037286      20.00000000        3      -0.00266203       0.00147270      -0.00206906
Pt       7.01803480       0.81037286      20.00000000        3      -0.00000212       0.00014645      -0.01603609
Pt       2.80721392       3.24149143      20.00000000        3       0.00000077      -0.00011517      -0.00897098
Pt       5.61442784       3.24149143      20.00000000        3      -0.00243318       0.00340621       0.00406358
Pt       8.42164176       3.24149143      20.00000000        3       0.00243275       0.00340673       0.00406244
Pt       4.21082088       5.67261000      20.00000000        3       0.00232930      -0.00312545       0.00241032
Pt       7.01803480       5.67261000      20.00000000        3      -0.00000205      -0.00120689       0.03430608
Pt       9.82524872       5.67261000      20.00000000        3      -0.00232818      -0.00312395       0.00241032
Pt       0.00000000       1.62074571      22.29208057        2       0.02881914       0.02121962      -0.07853562
Pt       2.80721392       1.62074571      22.29208057        2       0.00000050      -0.11913291      -0.02880916
Pt       5.61442784       1.62074571      22.29208057        2      -0.02881984       0.02122069      -0.07853712
Pt       1.40360696       4.05186428      22.29208057        2      -0.15952550       0.09022059       0.05009545
Pt       4.21082088       4.05186428      22.29208057        2       0.15952826       0.09022016       0.05009536
Pt       7.01803480       4.05186428      22.29208057        2      -0.00000336       0.12730570       0.05075471
Pt       2.80721392       6.48298285      22.29208057        2      -0.00000017      -0.04128359      -0.07619732
Pt       5.61442784       6.48298285      22.29208057        2       0.08927907      -0.09925401       0.03362747
Pt       8.42164176       6.48298285      22.29208057        2      -0.08928076      -0.09925210       0.03362738
Pt      -0.00470299      -0.00148907      24.56711345        1      -0.00144985       0.00195842       0.00480552
Pt       2.80721350       0.02235817      24.60122887        1       0.00000070      -0.00239167       0.01021953
Pt       5.61913026      -0.00148915      24.56711398        1       0.00145155       0.00195819       0.00480479
Pt       1.40946094       2.42502174      24.56456158        1      -0.00775331       0.01022968       0.00390777
Pt       4.20496689       2.42502176      24.56456131        1       0.00775081       0.01023102       0.00390804
Pt       7.01803436       2.41058306      24.56471800        1       0.00000059      -0.00120083       0.01161219
Pt       2.80721333       4.85992024      24.56195754        1       0.00000184      -0.01935181       0.00476561
Pt       5.59025452       4.84257955      24.62122133        1       0.00104478       0.00137700      -0.00539751
Pt       8.44581424       4.84257951      24.62122156        1      -0.00104474       0.00137749      -0.00539641
N        7.01803536       5.44530177      26.92569655        0      -0.00001350      -0.02259062       0.02495113
H        6.19418462       4.93885459      26.54854532        0      -0.00004081       0.00628152      -0.00568826
H        7.01803412       6.36142599      26.43662201        0       0.00000605       0.01224169      -0.02102787
H        7.84188581       4.93885523      26.54854585        0       0.00004846       0.00628272      -0.00569307
