31
Lattice="8.421641763931781 0.0 0.0 4.2108208819658905 7.293355709136913 0.0 0.0 0.0 44.584161137365626" Properties=species:S:1:pos:R:3:tags:I:1:forces:R:3 energy=-172.80453491210938 free_energy=-172.80453491210938 stress="0.010309026576578617 2.094961842891152e-10 -1.5725817315015433e-09 2.094961842891152e-10 0.010309026576578617 -2.525517350804307e-09 -1.5725817315015433e-09 -2.525517350804307e-09 -2.446241705911234e-05" pbc="T T T"
Pt       1.40360696       0.81037286      20.00000000        3       0.00189882       0.00057126      -0.00842452
Pt       4.21082088       0.81037286      20.00000000        3      -0.00144392       0.00135502      -0.00842458
Pt       7.01803480       0.81037286      20.00000000        3       0.00024251       0.00310423      -0.00555739
Pt       2.80721392       3.24149143      20.00000000        3      -0.00045177      -0.00193093      -0.00842643
Pt       5.61442784       3.24149143      20.00000000        3      -0.00004980       0.00011525       0.01854977
Pt       8.42164176       3.24149143      20.00000000        3      -0.00007449      -0.00009837       0.01854768
Pt       4.21082088       5.67261000      20.00000000        3       0.00257061      -0.00176435      -0.00555629
Pt       7.01803480       5.67261000      20.00000000        3       0.00012184      -0.00001310       0.01854974
Pt       9.82524872       5.67261000      20.00000000        3      -0.00281431      -0.00133818      -0.00555712
Pt       0.00000000       1.62074571      22.29208057        2      -0.11437582       0.09612800       0.00600843
Pt       2.80721392       1.62074571      22.29208057        2       0.00000068      -0.00000162      -0.10859635
Pt       5.61442784       1.62074571      22.29208057        2       0.10749467       0.10100366       0.00855433
Pt       1.40360696       4.05186428      22.29208057        2      -0.14122309       0.04259434       0.00855787
Pt       4.21082088       4.05186428      22.29208057        2       0.14044492       0.05099016       0.00600982
Pt       7.01803480       4.05186428      22.29208057        2      -0.00000309       0.00000186       0.08443440
Pt       2.80721392       6.48298285      22.29208057        2       0.00000066       0.00000095      -0.08296145
Pt       5.61442784       6.48298285      22.29208057        2       0.03372253      -0.14359938       0.00855626
Pt       8.42164176       6.48298285      22.29208057        2      -0.02606245      -0.14711890       0.00600808
Pt      -0.00043050      -0.00315850      24.55878701        1      -0.00009585       0.01291915       0.02388659
Pt       2.81678375       0.01233964      24.57146394        1      -0.02429327      -0.01650652      -0.01096909
Pt       5.61737741       0.00120552      24.55878714        1      -0.01113715      -0.00653999       0.02388647
Pt       1.40950866       2.41666089      24.57146375        1      -0.00214899       0.02929226      -0.01096950
Pt       4.19534962       2.43323666      24.57146389        1       0.02644114      -0.01278467      -0.01096961
Pt       7.01172781       2.40982570      24.61359492        1       0.01066742       0.00388382       0.00531489
Pt       2.80469436       4.86418929      24.55878717        1       0.01123636      -0.00637788       0.02388871
Pt       5.59914195       4.87834492      24.61359577        1      -0.00197392      -0.01117855       0.00529979
Pt       8.44323470       4.86742167      24.61359639        1      -0.00869539       0.00729367       0.00530386
N        7.01803454       4.05186433      26.95097119        0      -0.00000388       0.00001923      -0.01191458
H        7.87601584       4.45686992      26.52769807        0      -0.01724079       0.00301223       0.00232482
H        6.93978971       3.10632817      26.52769858        0       0.01123092       0.01340824       0.00231440
H        6.23829872       4.59239438      26.52769730        0       0.00601482      -0.01644078       0.00233088
