31
Lattice="8.421641763931781 0.0 0.0 4.2108208819658905 7.293355709136913 0.0 0.0 0.0 44.584161137365626" Properties=species:S:1:pos:R:3:tags:I:1:forces:R:3 energy=-172.5950164794922 free_energy=-172.5950164794922 stress="0.010540745221078396 1.1918950271194717e-08 -1.9898832803733058e-08 1.1918950271194717e-08 0.010540752671658993 2.606459048593024e-09 -1.9898832803733058e-08 2.606459048593024e-09 -0.00010160634701605886" pbc="T T T"
Pt       1.40360696       0.81037286      20.00000000        3       0.00000067      -0.00000235      -0.00804386
Pt       4.21082088       0.81037286      20.00000000        3      -0.00033343       0.00056142      -0.00361982
Pt       7.01803480       0.81037286      20.00000000        3       0.00033331       0.00056135      -0.00362065
Pt       2.80721392       3.24149143      20.00000000        3       0.00032054      -0.00057280      -0.00362098
Pt       5.61442784       3.24149143      20.00000000        3      -0.00000164       0.00000013       0.00279906
Pt       8.42164176       3.24149143      20.00000000        3      -0.00031884      -0.00057165      -0.00362140
Pt       4.21082088       5.67261000      20.00000000        3       0.00065795       0.00001021      -0.00361991
Pt       7.01803480       5.67261000      20.00000000        3      -0.00065776       0.00001163      -0.00362107
Pt       9.82524872       5.67261000      20.00000000        3      -0.00000142       0.00000268      -0.00901958
Pt       0.00000000       1.62074571      22.29208057        2      -0.02764734       0.01596342      -0.01667810
Pt       2.80721392       1.62074571      22.29208057        2       0.02764969       0.01596183      -0.01667860
Pt       5.61442784       1.62074571      22.29208057        2      -0.00000276       0.02752689       0.02986702
Pt       1.40360696       4.05186428      22.29208057        2      -0.00000005      -0.01516598      -0.02845034
Pt       4.21082088       4.05186428      22.29208057        2       0.02384211      -0.01376484       0.02986560
Pt       7.01803480       4.05186428      22.29208057        2      -0.02384190      -0.01376486       0.02986807
Pt       2.80721392       6.48298285      22.29208057        2       0.01313193       0.00758300      -0.02845324
Pt       5.61442784       6.48298285      22.29208057        2       0.00000088      -0.03192605      -0.01668341
Pt       8.42164176       6.48298285      22.29208057        2      -0.01313166       0.00758500      -0.02845275
Pt       0.00435959       0.00251553      24.57790413        1      -0.02783716      -0.01606265       0.01102221
Pt       2.80285597       0.00251584      24.57790511        1       0.02782999      -0.01606491       0.01101258
Pt       5.61442758      -0.00781464      24.57844225        1       0.00000290       0.04038776       0.01039919
Pt       1.40360735       2.42608588      24.57790532        1      -0.00000396       0.03213435       0.01101169
Pt       4.20815350       2.42957847      24.59062781        1      -0.02003627      -0.01157041       0.00457047
Pt       7.02070109       2.42957776      24.59062840        1       0.02004229      -0.01156645       0.00457038
Pt       2.80044674       4.86614348      24.57844202        1       0.03497570      -0.02019091       0.01040071
Pt       5.61442719       4.86531688      24.59062683        1       0.00000490       0.02313326       0.00457114
Pt       8.42840865       4.86614395      24.57844228        1      -0.03497840      -0.02019811       0.01040128
N        5.61442577       3.24149135      27.94719023        0       0.00014231      -0.00001012      -0.00689548
H        4.79943807       3.71202714      27.54980453        0       0.00662750      -0.00384359       0.00353770
H        6.42941761       3.71202560      27.54980369        0      -0.00674483      -0.00388199       0.00360623
H        5.61442887       2.30042185      27.54980332        0      -0.00002535       0.00773467       0.00357571
