31
Lattice="8.421641763931781 0.0 0.0 4.2108208819658905 7.293355709136913 0.0 0.0 0.0 44.584161137365626" Properties=species:S:1:pos:R:3:tags:I:1:forces:R:3 energy=-172.64501953125 free_energy=-172.64501953125 stress="0.010480796918272972 -2.472831661659569e-10 2.5572086670422323e-09 -2.472831661659569e-10 0.010480795055627823 -3.972265183449508e-09 2.5572086670422323e-09 -3.972265183449508e-09 5.017621333536226e-06" pbc="T T T"
Pt       1.40360696       0.81037286      20.00000000        3       0.00206510       0.00118989      -0.00083461
Pt       4.21082088       0.81037286      20.00000000        3      -0.00206189       0.00118995      -0.00083321
Pt       7.01803480       0.81037286      20.00000000        3      -0.00000220       0.00430203       0.00125429
Pt       2.80721392       3.24149143      20.00000000        3       0.00000091      -0.00238447      -0.00083479
Pt       5.61442784       3.24149143      20.00000000        3       0.00082697       0.00047840       0.03291023
Pt       8.42164176       3.24149143      20.00000000        3      -0.00082729       0.00047944       0.03290993
Pt       4.21082088       5.67261000      20.00000000        3       0.00372907      -0.00215093       0.00125453
Pt       7.01803480       5.67261000      20.00000000        3      -0.00000193      -0.00095475       0.03291053
Pt       9.82524872       5.67261000      20.00000000        3      -0.00372859      -0.00214951       0.00125426
Pt       0.00000000       1.62074571      22.29208057        2      -0.08613101       0.09566839      -0.01345903
Pt       2.80721392       1.62074571      22.29208057        2       0.00000073      -0.00000126      -0.05686460
Pt       5.61442784       1.62074571      22.29208057        2       0.08612998       0.09566939      -0.01345947
Pt       1.40360696       4.05186428      22.29208057        2      -0.12591921       0.02675756      -0.01345839
Pt       4.21082088       4.05186428      22.29208057        2       0.12592217       0.02675725      -0.01345764
Pt       7.01803480       4.05186428      22.29208057        2      -0.00000280       0.00000033       0.03622412
Pt       2.80721392       6.48298285      22.29208057        2       0.00000035       0.00000152      -0.08502182
Pt       5.61442784       6.48298285      22.29208057        2       0.03978558      -0.12242762      -0.01345910
Pt       8.42164176       6.48298285      22.29208057        2      -0.03978605      -0.12242554      -0.01346025
Pt      -0.00147962      -0.00085437      24.55778914        1      -0.00109025      -0.00063282       0.03598808
Pt       2.80721412       0.00255823      24.58008542        1      -0.00000037       0.02803979       0.00056939
Pt       5.61590760      -0.00085438      24.55778851        1       0.00109130      -0.00063144       0.03598757
Pt       1.40582268       2.42983931      24.58008606        1       0.02428279      -0.01402048       0.00056921
Pt       4.20860532       2.42983921      24.58008552        1      -0.02428325      -0.01401800       0.00056876
Pt       7.01803425       2.40505179      24.63192967        1       0.00000080       0.03447069      -0.01020096
Pt       2.80721398       4.86394588      24.55778861        1       0.00000234       0.00126059       0.03598824
Pt       5.59185386       4.87527010      24.63192978        1       0.02984820      -0.01723334      -0.01020251
Pt       8.44421548       4.87527059      24.63193003        1      -0.02985142      -0.01723432      -0.01020095
N        7.01803496       4.05186368      26.87786993        0      -0.00001034       0.00001960       0.01671886
H        7.81412765       3.59224008      26.36492405        0      -0.01374666       0.00793245      -0.00312662
H        6.22194206       3.59223999      26.36492388        0       0.01375677       0.00793811      -0.00312084
H        7.01803515       4.97111291      26.36492371        0       0.00000013      -0.01589075      -0.00311354
