31
Lattice="8.421641763931781 0.0 0.0 4.2108208819658905 7.293355709136913 0.0 0.0 0.0 44.584161137365626" Properties=species:S:1:pos:R:3:tags:I:1:forces:R:3 energy=-172.76077270507812 free_energy=-172.76077270507812 stress="0.010311941616237164 1.4924412425898481e-05 0.000138593721203506 1.4924412425898481e-05 0.010457406751811504 -5.755507572757779e-06 0.000138593721203506 -5.755507572757779e-06 0.0001139511659857817" pbc="T T T"
Pt       1.40360696       0.81037286      20.00000000        3       0.00258144       0.00063559       0.00243112
Pt       4.21082088       0.81037286      20.00000000        3      -0.00359305       0.00089488       0.00178972
Pt       7.01803480       0.81037286      20.00000000        3      -0.00101982       0.00300038      -0.00506485
Pt       2.80721392       3.24149143      20.00000000        3      -0.00064235       0.00004698      -0.00557953
Pt       5.61442784       3.24149143      20.00000000        3      -0.00206142       0.00257964       0.01904279
Pt       8.42164176       3.24149143      20.00000000        3       0.00087648       0.00217760       0.01665047
Pt       4.21082088       5.67261000      20.00000000        3       0.00218130      -0.00275936       0.00365731
Pt       7.01803480       5.67261000      20.00000000        3      -0.00170879      -0.00178995       0.03803381
Pt       9.82524872       5.67261000      20.00000000        3      -0.00334069      -0.00202434       0.00241297
Pt       0.00000000       1.62074571      22.29208057        2      -0.00526726       0.04512823      -0.03811987
Pt       2.80721392       1.62074571      22.29208057        2       0.01447955      -0.06944965      -0.06477060
Pt       5.61442784       1.62074571      22.29208057        2       0.03199990       0.05640766      -0.03371818
Pt       1.40360696       4.05186428      22.29208057        2      -0.12806895       0.06054774       0.02495580
Pt       4.21082088       4.05186428      22.29208057        2       0.18541861       0.07464786       0.05174662
Pt       7.01803480       4.05186428      22.29208057        2      -0.02193043       0.06693231       0.03637889
Pt       2.80721392       6.48298285      22.29208057        2       0.01335703      -0.01757348      -0.05837201
Pt       5.61442784       6.48298285      22.29208057        2       0.06063991      -0.12906347       0.03078239
Pt       8.42164176       6.48298285      22.29208057        2      -0.04336202      -0.09789117      -0.00417836
Pt       0.00964383       0.00108434      24.56933686        1       0.00622845       0.01056115      -0.00237416
Pt       2.83148342      -0.00632436      24.60469526        1       0.00182524      -0.01912471       0.00362831
Pt       5.64025636       0.00438245      24.56952078        1      -0.00097509       0.00780960      -0.00144631
Pt       1.43085822       2.41354093      24.57077907        1       0.00543263      -0.00640632      -0.00211528
Pt       4.21829343       2.41609232      24.57114078        1       0.00143788      -0.00900009      -0.00351427
Pt       7.04191750       2.42616403      24.60377378        1       0.00150072       0.01630545       0.00149933
Pt       2.82041860       4.85514453      24.55989914        1      -0.02789906       0.00337989       0.00331765
Pt       5.58774866       4.85079225      24.62962401        1       0.00406036       0.00177738       0.02444473
Pt       8.46978166       4.85108942      24.62028328        1      -0.01315892      -0.00010004       0.01262507
N        7.03902413       4.86818745      26.89483268        0      -0.02622180       0.00145508      -0.01387438
H        7.40274306       4.04999140      26.35085397        0      -0.00257689      -0.03220922      -0.01685449
H        6.04513709       4.86823756      26.58755421        0      -0.04634285      -0.00020430      -0.00394491
H        7.40273827       5.68662504      26.35178326        0      -0.00385004       0.03330863      -0.01946980
