31
Lattice="8.421641763931781 0.0 0.0 4.2108208819658905 7.293355709136913 0.0 0.0 0.0 44.584161137365626" Properties=species:S:1:pos:R:3:tags:I:1:forces:R:3 energy=-172.65139770507812 free_energy=-172.65139770507812 stress="0.010359598323702812 -4.072572057367552e-09 7.278121660903025e-09 -4.072572057367552e-09 0.010359602980315685 -1.1590308712783326e-09 7.278121660903025e-09 -1.1590308712783326e-09 -4.088075729669072e-05" pbc="T T T"
Pt       1.40360696       0.81037286      20.00000000        3       0.00000097      -0.00000254      -0.00685543
Pt       4.21082088       0.81037286      20.00000000        3      -0.00128887       0.00270239       0.00972670
Pt       7.01803480       0.81037286      20.00000000        3       0.00128864       0.00270224       0.00972497
Pt       2.80721392       3.24149143      20.00000000        3       0.00169747      -0.00247060       0.00972480
Pt       5.61442784       3.24149143      20.00000000        3      -0.00000190      -0.00000006       0.04421648
Pt       8.42164176       3.24149143      20.00000000        3      -0.00169528      -0.00246987       0.00972453
Pt       4.21082088       5.67261000      20.00000000        3       0.00298978      -0.00023244       0.00972632
Pt       7.01803480       5.67261000      20.00000000        3      -0.00299016      -0.00023170       0.00972539
Pt       9.82524872       5.67261000      20.00000000        3      -0.00000150       0.00000284      -0.00171176
Pt       0.00000000       1.62074571      22.29208057        2      -0.12749976       0.07361302      -0.01448166
Pt       2.80721392       1.62074571      22.29208057        2       0.12750231       0.07361244      -0.01448008
Pt       5.61442784       1.62074571      22.29208057        2      -0.00000277       0.08691629      -0.02148142
Pt       1.40360696       4.05186428      22.29208057        2       0.00000163      -0.00805899      -0.05043177
Pt       4.21082088       4.05186428      22.29208057        2       0.07527370      -0.04345869      -0.02147864
Pt       7.01803480       4.05186428      22.29208057        2      -0.07527436      -0.04345757      -0.02147888
Pt       2.80721392       6.48298285      22.29208057        2       0.00697932       0.00402829      -0.05043755
Pt       5.61442784       6.48298285      22.29208057        2      -0.00000012      -0.14722605      -0.01448368
Pt       8.42164176       6.48298285      22.29208057        2      -0.00697936       0.00403145      -0.05043617
Pt       0.00346132       0.00199801      24.56004351        1      -0.00292409      -0.00168739       0.02772053
Pt       2.80375303       0.00199811      24.56004461        1       0.00292331      -0.00168642       0.02771033
Pt       5.61442774      -0.00376772      24.58110100        1       0.00000092       0.00321322      -0.00503181
Pt       1.40360712       2.42712203      24.56004483        1       0.00000081       0.00337625       0.02771200
Pt       4.18473701       2.41605883      24.61787368        1       0.01592211       0.00919501       0.04069746
Pt       7.04411862       2.41605882      24.61787422        1      -0.01592319       0.00919318       0.04069765
Pt       2.80395117       4.86412082      24.58110153        1       0.00278398      -0.00160875      -0.00503871
Pt       5.61442782       4.89235616      24.61787398        1      -0.00000248      -0.01838851       0.04069798
Pt       8.42490421       4.86412089      24.58110151        1      -0.00278144      -0.00160805      -0.00503770
N        5.61442831       3.24149126      26.85605584        0      -0.00004669       0.00001097      -0.01854393
H        6.40941575       3.70047772      26.34043741        0       0.01132629       0.00653749      -0.00214347
H        5.61442764       2.32351833      26.34043730        0       0.00000293      -0.01306307      -0.00213543
H        4.81943947       3.70047830      26.34043699        0      -0.01128209       0.00651548      -0.00211740
