31
Lattice="8.421641763931781 0.0 0.0 4.2108208819658905 7.293355709136913 0.0 0.0 0.0 44.584161137365626" Properties=species:S:1:pos:R:3:tags:I:1:forces:R:3 energy=-172.793212890625 free_energy=-172.793212890625 stress="0.010255729779601097 2.156178124934627e-09 4.1572749687190935e-09 2.156178124934627e-09 0.0102557223290205 5.6856448438225016e-09 4.1572749687190935e-09 5.6856448438225016e-09 -4.6712597395526245e-05" pbc="T T T"
Pt       1.40360696       0.81037286      20.00000000        3       0.00000055      -0.00000246      -0.00486121
Pt       4.21082088       0.81037286      20.00000000        3      -0.00227668       0.00266050       0.00166774
Pt       7.01803480       0.81037286      20.00000000        3       0.00290394       0.00139687       0.00231409
Pt       2.80721392       3.24149143      20.00000000        3      -0.00024145      -0.00321583       0.00231239
Pt       5.61442784       3.24149143      20.00000000        3      -0.00000121       0.00000019       0.03026274
Pt       8.42164176       3.24149143      20.00000000        3      -0.00116490      -0.00330412       0.00166550
Pt       4.21082088       5.67261000      20.00000000        3       0.00344721       0.00064427       0.00166717
Pt       7.01803480       5.67261000      20.00000000        3      -0.00266656       0.00181977       0.00231370
Pt       9.82524872       5.67261000      20.00000000        3      -0.00000106       0.00000243      -0.01544544
Pt       0.00000000       1.62074571      22.29208057        2      -0.13467924       0.06624718       0.03022439
Pt       2.80721392       1.62074571      22.29208057        2       0.12471288       0.08350824       0.03022071
Pt       5.61442784       1.62074571      22.29208057        2      -0.00400518       0.11404087       0.03495266
Pt       1.40360696       4.05186428      22.29208057        2       0.00719916      -0.04541006      -0.07373696
Pt       4.21082088       4.05186428      22.29208057        2       0.10077107      -0.05355148       0.03495182
Pt       7.01803480       4.05186428      22.29208057        2      -0.09676537      -0.06049053       0.03495512
Pt       2.80721392       6.48298285      22.29208057        2       0.03572741       0.02894107      -0.07373582
Pt       5.61442784       6.48298285      22.29208057        2       0.00996416      -0.14976139       0.03022148
Pt       8.42164176       6.48298285      22.29208057        2      -0.04292430       0.01647365      -0.07373674
Pt       0.00873035      -0.00866314      24.56865861        1      -0.01409086       0.02865428      -0.02491473
Pt       2.81035154       0.01189144      24.56865860        1      -0.01777119      -0.02652856      -0.02491435
Pt       5.60391751      -0.01354429      24.56854486        1       0.02910094       0.03360454      -0.00102490
Pt       1.39173989       2.42788982      24.56865826        1       0.03185725      -0.00212894      -0.02491555
Pt       4.17594217       2.43083539      24.60715545        1       0.00514788      -0.02171207      -0.00091631
Pt       7.03571877       2.40105361      24.60715646        1       0.01623296       0.01531261      -0.00092972
Pt       2.80073976       4.87811099      24.56854488        1       0.01455335      -0.04200027      -0.00102216
Pt       5.63162162       4.89258440      24.60715602        1      -0.02137424       0.00640081      -0.00093098
Pt       8.43862629       4.85990683      24.56854465        1      -0.04365567       0.00840023      -0.00102098
N        5.61442791       3.24149183      26.89807439        0      -0.00002266      -0.00003073       0.02238998
H        6.29200596       2.58110585      26.46326844        0       0.01294427       0.02591713       0.02066535
H        4.70372790       2.98488459      26.46326878        0       0.01599230      -0.02416541       0.02066678
H        5.84754971       4.15848355      26.46326850        0      -0.02891477      -0.00172263       0.02065420
