31
Lattice="8.421641763931781 0.0 0.0 4.2108208819658905 7.293355709136913 0.0 0.0 0.0 44.584161137365626" Properties=species:S:1:pos:R:3:tags:I:1:forces:R:3 energy=-172.80612182617188 free_energy=-172.80612182617188 stress="0.010215003974735737 -2.3679742611193433e-09 -3.489845967763472e-09 -2.3679742611193433e-09 0.010215004906058311 4.2715453396624525e-09 -3.489845967763472e-09 4.2715453396624525e-09 -7.902878132881597e-05" pbc="T T T"
Pt       1.40360696       0.81037286      20.00000000        3       0.00000055      -0.00000225      -0.01100406
Pt       4.21082088       0.81037286      20.00000000        3      -0.00200824       0.00319041       0.00014946
Pt       7.01803480       0.81037286      20.00000000        3       0.00200842       0.00319009       0.00014812
Pt       2.80721392       3.24149143      20.00000000        3       0.00175963      -0.00333743       0.00014773
Pt       5.61442784       3.24149143      20.00000000        3      -0.00000165       0.00000030       0.03285974
Pt       8.42164176       3.24149143      20.00000000        3      -0.00175750      -0.00333652       0.00014690
Pt       4.21082088       5.67261000      20.00000000        3       0.00377188       0.00014645       0.00014865
Pt       7.01803480       5.67261000      20.00000000        3      -0.00377175       0.00014787       0.00014806
Pt       9.82524872       5.67261000      20.00000000        3      -0.00000120       0.00000200      -0.01574594
Pt       0.00000000       1.62074571      22.29208057        2      -0.14542322       0.08395822       0.01005671
Pt       2.80721392       1.62074571      22.29208057        2       0.14542547       0.08395974       0.01005645
Pt       5.61442784       1.62074571      22.29208057        2      -0.00000233       0.12772699       0.03249555
Pt       1.40360696       4.05186428      22.29208057        2       0.00000112      -0.03007216      -0.07678550
Pt       4.21082088       4.05186428      22.29208057        2       0.11061856      -0.06386483       0.03249546
Pt       7.01803480       4.05186428      22.29208057        2      -0.11061980      -0.06386429       0.03249558
Pt       2.80721392       6.48298285      22.29208057        2       0.02604323       0.01503741      -0.07678585
Pt       5.61442784       6.48298285      22.29208057        2      -0.00000115      -0.16792071       0.01005525
Pt       8.42164176       6.48298285      22.29208057        2      -0.02604230       0.01503950      -0.07678599
Pt       0.00393411       0.00227092      24.56060028        1      -0.01717423      -0.00991472       0.01757015
Pt       2.80328014       0.00227107      24.56060061        1       0.01717493      -0.00991565       0.01756866
Pt       5.61442777      -0.00512088      24.56477964        1       0.00000025      -0.03940367       0.01025097
Pt       1.40360707       2.42657606      24.56060095        1       0.00000053       0.01982857       0.01757032
Pt       4.18586830       2.41671202      24.61159915        1       0.00751818       0.00433939       0.00178939
Pt       7.04298733       2.41671196      24.61159920        1      -0.00751955       0.00433910       0.00179091
Pt       2.80277937       4.86479728      24.56477969        1      -0.03412464       0.01970376       0.01025136
Pt       5.61442775       4.89104998      24.61159868        1       0.00000035      -0.00867964       0.00178497
Pt       8.42607616       4.86479730      24.56477982        1       0.03412438       0.01970392       0.01025245
N        5.61442737       3.24149210      26.93137682        0       0.00002572      -0.00000873       0.00368324
H        5.61442784       4.19005445      26.50980446        0      -0.00000205       0.02606560       0.00106455
H        6.43590789       2.76720975      26.50980534        0       0.02255507      -0.01302379       0.00106920
H        4.79294825       2.76721007      26.50980503        0      -0.02257870      -0.01303492       0.00105742
