31
Lattice="8.421641763931781 0.0 0.0 4.2108208819658905 7.293355709136913 0.0 0.0 0.0 44.584161137365626" Properties=species:S:1:pos:R:3:tags:I:1:forces:R:3 energy=-173.7102813720703 free_energy=-173.7102813720703 stress="0.010712267830967903 2.2828022139265158e-08 -1.548931116701624e-08 2.2828022139265158e-08 0.010712306015193462 1.3704315016127566e-08 -1.548931116701624e-08 1.3704315016127566e-08 4.412514499563258e-06" pbc="T T T"
Pt       1.40360696       0.81037286      20.00000000        3       0.00529906       0.00305664      -0.00948265
Pt       4.21082088       0.81037286      20.00000000        3       0.00000201       0.00307809      -0.00639087
Pt       7.01803480       0.81037286      20.00000000        3      -0.00530059       0.00305733      -0.00948423
Pt       2.80721392       3.24149143      20.00000000        3       0.00266775      -0.00154024      -0.00639188
Pt       5.61442784       3.24149143      20.00000000        3      -0.00266902      -0.00153935      -0.00639215
Pt       8.42164176       3.24149143      20.00000000        3       0.00000094       0.00475543       0.01275006
Pt       4.21082088       5.67261000      20.00000000        3       0.00000201      -0.00611680      -0.00948372
Pt       7.01803480       5.67261000      20.00000000        3       0.00411571      -0.00237504       0.01275131
Pt       9.82524872       5.67261000      20.00000000        3      -0.00411876      -0.00237482       0.01275203
Pt       0.00000000       1.62074571      22.29208057        2       0.00000188       0.06344005       0.03027329
Pt       2.80721392       1.62074571      22.29208057        2      -0.00684117      -0.00395227      -0.00154250
Pt       5.61442784       1.62074571      22.29208057        2       0.00683977      -0.00395225      -0.00154306
Pt       1.40360696       4.05186428      22.29208057        2      -0.07011995       0.04048389      -0.02523229
Pt       4.21082088       4.05186428      22.29208057        2       0.00000208       0.00790005      -0.00154312
Pt       7.01803480       4.05186428      22.29208057        2       0.07011870       0.04048466      -0.02523122
Pt       2.80721392       6.48298285      22.29208057        2      -0.05494286      -0.03171976       0.03027132
Pt       5.61442784       6.48298285      22.29208057        2       0.05494210      -0.03171975       0.03027179
Pt       8.42164176       6.48298285      22.29208057        2       0.00000106      -0.08096584      -0.02523276
Pt       0.00000027      -0.00000030      24.58850352        1       0.00000073       0.00000115       0.00132120
Pt       2.80355206       0.00802482      24.60119103        1      -0.00458980      -0.00414253      -0.00084881
Pt       5.61809000       0.00802480      24.60119102        1       0.00458683      -0.00414296      -0.00084917
Pt       1.40872588       2.42393458      24.60119127        1      -0.00588135      -0.00190464      -0.00084859
Pt       4.21082100       2.43111862      24.58865192        1      -0.00000197      -0.00000178       0.00399405
Pt       7.01291582       2.42393452      24.60119125        1       0.00588369      -0.00190290      -0.00084798
Pt       2.81599475       4.86139608      24.60119108        1      -0.00129294       0.00604336      -0.00084712
Pt       5.60564682       4.86139595      24.60119118        1       0.00129450       0.00604743      -0.00084861
Pt       8.42164099       4.86223695      24.66375461        1      -0.00000002      -0.00000051       0.01507923
N        8.42164298       4.86223559      26.73316245        0      -0.00014434       0.00013521      -0.02632761
H        9.26401330       4.37589406      27.05193416        0      -0.02545764       0.01469532       0.00334311
H        7.57927002       4.37589367      27.05193627        0       0.02559510       0.01476766       0.00328610
H        8.42164189       5.83492536      27.05193560        0       0.00000633      -0.02959484       0.00327488
