31
Lattice="8.421641763931781 0.0 0.0 4.2108208819658905 7.293355709136913 0.0 0.0 0.0 44.584161137365626" Properties=species:S:1:pos:R:3:tags:I:1:forces:R:3 energy=-172.80535888671875 free_energy=-172.80535888671875 stress="0.01031484454870224 3.4856173503072796e-09 -7.454799000328194e-10 3.4856173503072796e-09 0.010264898650348186 -6.444418977480382e-05 -7.454799000328194e-10 -6.444418977480382e-05 -1.553970832901541e-05" pbc="T T T"
Pt       1.40360696       0.81037286      20.00000000        3       0.00093177       0.00201160      -0.00833032
Pt       4.21082088       0.81037286      20.00000000        3      -0.00092849       0.00201325      -0.00832894
Pt       7.01803480       0.81037286      20.00000000        3      -0.00000235       0.00254301      -0.00997120
Pt       2.80721392       3.24149143      20.00000000        3       0.00000063      -0.00056305      -0.00643358
Pt       5.61442784       3.24149143      20.00000000        3      -0.00182650       0.00281457       0.01604977
Pt       8.42164176       3.24149143      20.00000000        3       0.00182597       0.00281489       0.01604816
Pt       4.21082088       5.67261000      20.00000000        3       0.00275820      -0.00175002       0.00135729
Pt       7.01803480       5.67261000      20.00000000        3      -0.00000284      -0.00165681       0.02707955
Pt       9.82524872       5.67261000      20.00000000        3      -0.00275694      -0.00174855       0.00135604
Pt       0.00000000       1.62074571      22.29208057        2      -0.05991281       0.06153441      -0.03975314
Pt       2.80721392       1.62074571      22.29208057        2       0.00000105      -0.01343672      -0.10785922
Pt       5.61442784       1.62074571      22.29208057        2       0.05991197       0.06153512      -0.03975246
Pt       1.40360696       4.05186428      22.29208057        2      -0.15452035       0.06490365       0.03627651
Pt       4.21082088       4.05186428      22.29208057        2       0.15452366       0.06490480       0.03627398
Pt       7.01803480       4.05186428      22.29208057        2      -0.00000270       0.04678786       0.07277777
Pt       2.80721392       6.48298285      22.29208057        2       0.00000075      -0.04094928      -0.07370774
Pt       5.61442784       6.48298285      22.29208057        2       0.02178387      -0.17521989       0.02285120
Pt       8.42164176       6.48298285      22.29208057        2      -0.02178447      -0.17521769       0.02285135
Pt      -0.01123060      -0.01385034      24.56335238        1       0.04619591       0.00736449       0.00770107
Pt       2.80721411       0.00059175      24.56808415        1       0.00000055       0.01147454      -0.00643884
Pt       5.62565922      -0.01385110      24.56335302        1      -0.04619789       0.00736964       0.00770113
Pt       1.40770183       2.40721753      24.57008962        1       0.01529853       0.01630863      -0.00071332
Pt       4.20672654       2.40721790      24.57008918        1      -0.01529837       0.01630458      -0.00071265
Pt       7.01803505       2.40304551      24.59456928        1      -0.00000168      -0.01717768       0.04192281
Pt       2.80721382       4.83911475      24.56370970        1       0.00000119       0.02286839      -0.00901072
Pt       5.58907305       4.85269539      24.62682665        1       0.01530047       0.02645848      -0.00761985
Pt       8.44699591       4.85269554      24.62682664        1      -0.01529952       0.02645787      -0.00761907
N        7.01803547       4.35580873      26.93230430        0       0.00000233      -0.00944907      -0.03411832
H        7.83759161       4.87255303      26.55475287        0      -0.01876087       0.01047426       0.01214947
H        7.01803517       3.46739471      26.38941880        0       0.00000124      -0.03025241       0.02582520
H        6.19847972       4.87255350      26.55475178        0       0.01875770       0.01047720       0.01214807
