31
Lattice="8.421641763931781 0.0 0.0 4.2108208819658905 7.293355709136913 0.0 0.0 0.0 44.584161137365626" Properties=species:S:1:pos:R:3:tags:I:1:forces:R:3 energy=-172.57896423339844 free_energy=-172.57896423339844 stress="0.010473090223968029 7.799991763590697e-10 -5.033349737004755e-09 7.799991763590697e-10 0.010473089292645454 6.774616978511006e-10 -5.033349737004755e-09 6.774616978511006e-10 -0.00020023316028527915" pbc="T T T"
Pt       1.40360696       0.81037286      20.00000000        3       0.00000048      -0.00000199      -0.00540268
Pt       4.21082088       0.81037286      20.00000000        3      -0.00079371       0.00067931      -0.00219890
Pt       7.01803480       0.81037286      20.00000000        3       0.00074400       0.00084681      -0.00204530
Pt       2.80721392       3.24149143      20.00000000        3       0.00036241      -0.00107104      -0.00204557
Pt       5.61442784       3.24149143      20.00000000        3      -0.00000180      -0.00000035       0.00783747
Pt       8.42164176       3.24149143      20.00000000        3      -0.00019038      -0.00102926      -0.00220188
Pt       4.21082088       5.67261000      20.00000000        3       0.00099013       0.00035026      -0.00220028
Pt       7.01803480       5.67261000      20.00000000        3      -0.00111054       0.00022452      -0.00204536
Pt       9.82524872       5.67261000      20.00000000        3      -0.00000139       0.00000233      -0.00681749
Pt       0.00000000       1.62074571      22.29208057        2      -0.03219039       0.01882774      -0.02422091
Pt       2.80721392       1.62074571      22.29208057        2       0.03240383       0.01846307      -0.02422170
Pt       5.61442784       1.62074571      22.29208057        2       0.00152489       0.04198242       0.02925854
Pt       1.40360696       4.05186428      22.29208057        2       0.00078566      -0.01329052      -0.03097408
Pt       4.21082088       4.05186428      22.29208057        2       0.03559616      -0.02231340       0.02926086
Pt       7.01803480       4.05186428      22.29208057        2      -0.03712391      -0.01966792       0.02926211
Pt       2.80721392       6.48298285      22.29208057        2       0.01111932       0.00732525      -0.03097675
Pt       5.61442784       6.48298285      22.29208057        2      -0.00021300      -0.03729352      -0.02422231
Pt       8.42164176       6.48298285      22.29208057        2      -0.01190242       0.00596713      -0.03097636
Pt       0.00125020       0.00150242      24.57723218        1      -0.00713288      -0.00009531      -0.00424278
Pt       2.80528750       0.00033118      24.57723232        1       0.00365134      -0.00613040      -0.00424236
Pt       5.61499733      -0.00636830      24.57875343        1       0.00298984       0.01932102      -0.00732338
Pt       1.40428340       2.42928464      24.57723233        1       0.00348301       0.00622522      -0.00424191
Pt       4.19857749       2.42122453      24.58945445        1       0.02483443       0.00794729       0.00628336
Pt       7.03272489       2.42546238      24.58945459        1      -0.01930024       0.01753278       0.00628433
Pt       2.80141425       4.86492805      24.57875348        1       0.01523673      -0.01225162      -0.00733188
Pt       5.61198093       4.87778744      24.58945439        1      -0.00553294      -0.02548168       0.00628377
Pt       8.42687204       4.86591452      24.57875367        1      -0.01822918      -0.00706853      -0.00733116
N        5.61442751       3.24149122      27.59559739        0       0.00002442       0.00000852       0.00372133
H        5.14645369       4.06216591      27.19906554        0       0.03360984      -0.00872061       0.03568911
H        6.55913978       3.23643177      27.19906539        0      -0.02437665      -0.02474995       0.03569676
H        5.13769029       2.42587701      27.19906559        0      -0.00925709       0.03346223       0.03568558
