31
Lattice="8.421641763931781 0.0 0.0 4.2108208819658905 7.293355709136913 0.0 0.0 0.0 44.584161137365626" Properties=species:S:1:pos:R:3:tags:I:1:forces:R:3 energy=-173.7161865234375 free_energy=-173.7161865234375 stress="0.01066671498119831 -7.400384749445266e-09 1.7575912947265238e-09 -7.400384749445266e-09 0.010666714049875736 4.334122394311635e-09 1.7575912947265238e-09 4.334122394311635e-09 -1.7597420765014249e-06" pbc="T T T"
Pt       1.40360696       0.81037286      20.00000000        3       0.00569510       0.00250881      -0.00957483
Pt       4.21082088       0.81037286      20.00000000        3      -0.00066572       0.00312303      -0.00628489
Pt       7.01803480       0.81037286      20.00000000        3      -0.00502457       0.00367417      -0.00957510
Pt       2.80721392       3.24149143      20.00000000        3       0.00304102      -0.00098362      -0.00628459
Pt       5.61442784       3.24149143      20.00000000        3      -0.00237334      -0.00214090      -0.00628409
Pt       8.42164176       3.24149143      20.00000000        3      -0.00053872       0.00469296       0.01201895
Pt       4.21082088       5.67261000      20.00000000        3      -0.00066951      -0.00618616      -0.00957420
Pt       7.01803480       5.67261000      20.00000000        3       0.00433114      -0.00187753       0.01201975
Pt       9.82524872       5.67261000      20.00000000        3      -0.00379532      -0.00281074       0.01202044
Pt       0.00000000       1.62074571      22.29208057        2      -0.00611724       0.06274647       0.02847465
Pt       2.80721392       1.62074571      22.29208057        2      -0.00095664      -0.01032173      -0.00398047
Pt       5.61442784       1.62074571      22.29208057        2       0.00941636       0.00433216      -0.00397887
Pt       1.40360696       4.05186428      22.29208057        2      -0.06540207       0.04311040      -0.02902473
Pt       4.21082088       4.05186428      22.29208057        2      -0.00845982       0.00599024      -0.00397848
Pt       7.01803480       4.05186428      22.29208057        2       0.07003327       0.03508613      -0.02902508
Pt       2.80721392       6.48298285      22.29208057        2      -0.05128270      -0.03666984       0.02847422
Pt       5.61442784       6.48298285      22.29208057        2       0.05739666      -0.02607507       0.02847233
Pt       8.42164176       6.48298285      22.29208057        2      -0.00462990      -0.07819452      -0.02902666
Pt      -0.00000035       0.00000057      24.58874855        1       0.00000047       0.00000061      -0.00018662
Pt       2.80454270       0.00668701      24.60592543        1       0.00698305      -0.01684336      -0.00246719
Pt       5.61907385       0.01090854      24.59462714        1       0.00539644       0.00065643       0.01184259
Pt       1.41072994       2.42164018      24.59462691        1      -0.00212613      -0.00499978       0.01184410
Pt       4.21082036       2.43111919      24.58900212        1       0.00000078       0.00000122      -0.00093862
Pt       7.01357851       2.42546246      24.60592570        1       0.01109508       0.01446589      -0.00247422
Pt       2.81434060       4.86120856      24.60592589        1      -0.01807937       0.00236795      -0.00247443
Pt       5.60265789       4.86080842      24.59462687        1      -0.00326927       0.00434202       0.01184478
Pt       8.42164165       4.86223653      24.65974710        1       0.00000470      -0.00000139       0.03704190
N        8.42164281       4.86223409      26.72996835        0      -0.00000027       0.00003955      -0.04323184
H        9.39438051       4.86551519      27.04813728        0      -0.00648434       0.00116448       0.00143102
H        7.93811441       4.01817977      27.04813723        0       0.00423586       0.00501731       0.00143888
H        7.93243334       5.70301173      27.04813210        0       0.00224499      -0.00621544       0.00144127
