31
Lattice="8.421641763931781 0.0 0.0 4.2108208819658905 7.293355709136913 0.0 0.0 0.0 44.584161137365626" Properties=species:S:1:pos:R:3:tags:I:1:forces:R:3 energy=-173.70379638671875 free_energy=-173.70379638671875 stress="0.010711546055972576 3.401957292226143e-05 0.00016684010915923864 3.401957292226143e-05 0.010800023563206196 4.122666723560542e-05 0.00016684010915923864 4.122666723560542e-05 0.00011174249812029302" pbc="T T T"
Pt       1.40360696       0.81037286      20.00000000        3       0.00032898       0.00293381      -0.00399089
Pt       4.21082088       0.81037286      20.00000000        3      -0.00783904       0.00205064      -0.00670427
Pt       7.01803480       0.81037286      20.00000000        3       0.00305022       0.00340278      -0.00788361
Pt       2.80721392       3.24149143      20.00000000        3      -0.00454610      -0.00184080      -0.00835571
Pt       5.61442784       3.24149143      20.00000000        3      -0.00250557       0.00523507       0.01750958
Pt       8.42164176       3.24149143      20.00000000        3       0.00216357      -0.00299425      -0.00754061
Pt       4.21082088       5.67261000      20.00000000        3       0.00338851      -0.00417040       0.01353493
Pt       7.01803480       5.67261000      20.00000000        3      -0.00706724      -0.00209345       0.01856056
Pt       9.82524872       5.67261000      20.00000000        3      -0.00065629      -0.00638507      -0.01274502
Pt       0.00000000       1.62074571      22.29208057        2       0.00413343       0.00508596       0.02084100
Pt       2.80721392       1.62074571      22.29208057        2       0.02527190      -0.02351911       0.01895651
Pt       5.61442784       1.62074571      22.29208057        2       0.02339344       0.07381116       0.04200248
Pt       1.40360696       4.05186428      22.29208057        2       0.02735005       0.00336565      -0.01759412
Pt       4.21082088       4.05186428      22.29208057        2       0.12356392       0.05824871       0.00949880
Pt       7.01803480       4.05186428      22.29208057        2      -0.05613287       0.03467597      -0.03205327
Pt       2.80721392       6.48298285      22.29208057        2       0.07845612      -0.01955126       0.03055582
Pt       5.61442784       6.48298285      22.29208057        2       0.02512791      -0.08026527      -0.00348166
Pt       8.42164176       6.48298285      22.29208057        2      -0.05348971      -0.00906261       0.03376703
Pt       0.02485163       0.01749466      24.60105036        1       0.00582855       0.01022006      -0.01082733
Pt       2.84173583       0.01101461      24.61266689        1      -0.01498675      -0.01319418      -0.00881572
Pt       5.65301560       0.01041247      24.58962470        1      -0.04707801      -0.00041079      -0.00596607
Pt       1.43536711       2.44099129      24.58983660        1      -0.00916034      -0.04092283      -0.00778288
Pt       4.23442855       2.43024844      24.60000037        1      -0.01176899      -0.02016457      -0.00854287
Pt       7.05267564       2.44160122      24.61295155        1      -0.01394274      -0.00364564      -0.00731875
Pt       2.83952256       4.86824494      24.60184936        1      -0.03838063       0.00376563      -0.00974078
Pt       5.63981831       4.86991095      24.68142541        1      -0.00533233       0.01569904      -0.04071668
Pt       8.47777106       4.86766868      24.58877386        1      -0.02560530       0.02091469       0.01645312
N        5.98277634       4.88280081      26.72601885        0       0.01336154       0.02976832      -0.02262098
H        5.09124280       4.90542279      27.22609681        0      -0.01956491      -0.00136043      -0.03270257
H        6.54743884       5.71033830      26.94224273        0      -0.02365050      -0.00466903       0.00103296
H        6.50642776       4.03168922      26.94636334        0       0.00628931      -0.03492780       0.03267117
