31
Lattice="8.421641763931781 0.0 0.0 4.2108208819658905 7.293355709136913 0.0 0.0 0.0 44.584161137365626" Properties=species:S:1:pos:R:3:tags:I:1:forces:R:3 energy=-172.80535888671875 free_energy=-172.80535888671875 stress="0.0103148203343153 8.383116978372129e-10 8.020711206313536e-09 8.383116978372129e-10 0.010264870710670948 -6.444632890634239e-05 8.020711206313536e-09 -6.444632890634239e-05 -1.5567395166726783e-05" pbc="T T T"
Pt       1.40360696       0.81037286      20.00000000        3       0.00093168       0.00201248      -0.00833023
Pt       4.21082088       0.81037286      20.00000000        3      -0.00092824       0.00201287      -0.00833023
Pt       7.01803480       0.81037286      20.00000000        3      -0.00000219       0.00254308      -0.00997058
Pt       2.80721392       3.24149143      20.00000000        3       0.00000058      -0.00056319      -0.00643304
Pt       5.61442784       3.24149143      20.00000000        3      -0.00182646       0.00281476       0.01604995
Pt       8.42164176       3.24149143      20.00000000        3       0.00182573       0.00281482       0.01604801
Pt       4.21082088       5.67261000      20.00000000        3       0.00275800      -0.00174992       0.00135717
Pt       7.01803480       5.67261000      20.00000000        3      -0.00000259      -0.00165691       0.02707848
Pt       9.82524872       5.67261000      20.00000000        3      -0.00275680      -0.00174833       0.00135592
Pt       0.00000000       1.62074571      22.29208057        2      -0.05991265       0.06153367      -0.03975506
Pt       2.80721392       1.62074571      22.29208057        2       0.00000004      -0.01343463      -0.10786079
Pt       5.61442784       1.62074571      22.29208057        2       0.05991212       0.06153560      -0.03975383
Pt       1.40360696       4.05186428      22.29208057        2      -0.15451732       0.06490286       0.03627270
Pt       4.21082088       4.05186428      22.29208057        2       0.15452375       0.06490459       0.03627637
Pt       7.01803480       4.05186428      22.29208057        2      -0.00000547       0.04678626       0.07277502
Pt       2.80721392       6.48298285      22.29208057        2       0.00000194      -0.04095025      -0.07370823
Pt       5.61442784       6.48298285      22.29208057        2       0.02178051      -0.17522168       0.02285001
Pt       8.42164176       6.48298285      22.29208057        2      -0.02178150      -0.17521760       0.02284617
Pt      -0.01123152      -0.01385011      24.56335349        1       0.04620251       0.00736014       0.00770107
Pt       2.80721448       0.00059095      24.56808316        1      -0.00000539       0.01147815      -0.00642850
Pt       5.62565899      -0.01385070      24.56335228        1      -0.04619719       0.00736676       0.00770032
Pt       1.40770109       2.40721735      24.57009029        1       0.01530523       0.01630627      -0.00071359
Pt       4.20672638       2.40721758      24.57008879        1      -0.01530185       0.01630866      -0.00071378
Pt       7.01803497       2.40304528      24.59456980        1      -0.00000341      -0.01717957       0.04191840
Pt       2.80721374       4.83911488      24.56371009        1       0.00000500       0.02286735      -0.00901146
Pt       5.58907359       4.85269520      24.62682755        1       0.01529301       0.02646221      -0.00762726
Pt       8.44699695       4.85269522      24.62682583        1      -0.01530190       0.02645960      -0.00760959
N        7.01803631       4.35580940      26.93230071        0      -0.00005476      -0.00945367      -0.03409731
H        7.01803396       3.46739642      26.38941419        0       0.00002005      -0.03025638       0.02582487
H        6.19848026       4.87255368      26.55474882        0       0.01876190       0.01048031       0.01216192
H        7.83759060       4.87255525      26.55475073        0      -0.01872440       0.01048163       0.01212711
