31
Lattice="8.421641763931781 0.0 0.0 4.2108208819658905 7.293355709136913 0.0 0.0 0.0 44.584161137365626" Properties=species:S:1:pos:R:3:tags:I:1:forces:R:3 energy=-172.80596923828125 free_energy=-172.80596923828125 stress="0.010340855456888676 1.1932844934392506e-08 -1.014424011458459e-08 1.1932844934392506e-08 0.010238111019134521 0.00010188265878241509 -1.014424011458459e-08 0.00010188265878241509 -2.5187255232594907e-05" pbc="T T T"
Pt       1.40360696       0.81037286      20.00000000        3       0.00137034       0.00058615      -0.00833568
Pt       4.21082088       0.81037286      20.00000000        3      -0.00136699       0.00058717      -0.00833511
Pt       7.01803480       0.81037286      20.00000000        3      -0.00000265       0.00054184      -0.01008829
Pt       2.80721392       3.24149143      20.00000000        3       0.00000094      -0.00272460      -0.00847241
Pt       5.61442784       3.24149143      20.00000000        3      -0.00164515       0.00133676       0.01607454
Pt       8.42164176       3.24149143      20.00000000        3       0.00164452       0.00133755       0.01607248
Pt       4.21082088       5.67261000      20.00000000        3       0.00306905      -0.00382180       0.00073209
Pt       7.01803480       5.67261000      20.00000000        3      -0.00000253      -0.00263129       0.02806702
Pt       9.82524872       5.67261000      20.00000000        3      -0.00306757      -0.00382021       0.00073063
Pt       0.00000000       1.62074571      22.29208057        2      -0.06632537       0.08840394      -0.04020094
Pt       2.80721392       1.62074571      22.29208057        2       0.00000049       0.01983368      -0.12073040
Pt       5.61442784       1.62074571      22.29208057        2       0.06632408       0.08840537      -0.04020109
Pt       1.40360696       4.05186428      22.29208057        2      -0.15750389       0.09655479       0.02518933
Pt       4.21082088       4.05186428      22.29208057        2       0.15750754       0.09655528       0.02518870
Pt       7.01803480       4.05186428      22.29208057        2      -0.00000331       0.06662313       0.08368786
Pt       2.80721392       6.48298285      22.29208057        2       0.00000039      -0.00960234      -0.06138038
Pt       5.61442784       6.48298285      22.29208057        2       0.02929570      -0.15446171       0.02591717
Pt       8.42164176       6.48298285      22.29208057        2      -0.02929645      -0.15445900       0.02591749
Pt      -0.00201883       0.01868575      24.56279976        1      -0.01061686      -0.00948184       0.00658569
Pt       2.80721412       0.04624248      24.56969703        1      -0.00000021      -0.04436788      -0.00401156
Pt       5.61644633       0.01868526      24.56279988        1       0.01061698      -0.00947797       0.00658411
Pt       1.40760337       2.45042598      24.56863137        1       0.00294541      -0.02024773       0.00780234
Pt       4.20682435       2.45042601      24.56863146        1      -0.00294401      -0.02024894       0.00780195
Pt       7.01803465       2.42384909      24.59392359        1      -0.00000073       0.00319795       0.02679414
Pt       2.80721378       4.87606376      24.56256558        1       0.00000102       0.01986383      -0.00170355
Pt       5.59298692       4.89382185      24.62805816        1       0.02576338      -0.02176640      -0.00592271
Pt       8.44308205       4.89382189      24.62805786        1      -0.02576401      -0.02176784      -0.00591893
N        7.01803450       4.34187075      26.93106826        0       0.00005903       0.02506621      -0.01035914
H        7.01803537       3.45219939      26.38980498        0      -0.00000564       0.00734860       0.02858955
H        6.19839533       4.86426443      26.56361145        0       0.00286789      -0.01866740      -0.00304992
H        7.83767599       4.86426426      26.56361262        0      -0.00292125      -0.01869525      -0.00302486
