31
Lattice="8.421641763931781 0.0 0.0 4.2108208819658905 7.293355709136913 0.0 0.0 0.0 44.584161137365626" Properties=species:S:1:pos:R:3:tags:I:1:forces:R:3 energy=-172.80076599121094 free_energy=-172.80076599121094 stress="0.010380502790212631 -1.1889588202862456e-09 -1.2787428893545894e-09 -1.1889588202862456e-09 0.01038049440830946 3.9940308838026795e-09 -1.2787428893545894e-09 3.9940308838026795e-09 0.00013817816216032952" pbc="T T T"
Pt       1.40360696       0.81037286      20.00000000        3       0.00000029      -0.00000229      -0.00917107
Pt       4.21082088       0.81037286      20.00000000        3      -0.00208427       0.00282897       0.00179294
Pt       7.01803480       0.81037286      20.00000000        3       0.00175508       0.00301276       0.00177985
Pt       2.80721392       3.24149143      20.00000000        3       0.00173239      -0.00302931       0.00177950
Pt       5.61442784       3.24149143      20.00000000        3      -0.00000151       0.00000005       0.03523046
Pt       8.42164176       3.24149143      20.00000000        3      -0.00140692      -0.00322215       0.00179157
Pt       4.21082088       5.67261000      20.00000000        3       0.00349719       0.00039308       0.00179282
Pt       7.01803480       5.67261000      20.00000000        3      -0.00349185       0.00001720       0.00177902
Pt       9.82524872       5.67261000      20.00000000        3      -0.00000087       0.00000290      -0.01458350
Pt       0.00000000       1.62074571      22.29208057        2      -0.13852243       0.08505856       0.03908651
Pt       2.80721392       1.62074571      22.29208057        2       0.14292432       0.07743534       0.03908305
Pt       5.61442784       1.62074571      22.29208057        2       0.00085094       0.12743920       0.05055315
Pt       1.40360696       4.05186428      22.29208057        2      -0.00004012      -0.03188074      -0.06162532
Pt       4.21082088       4.05186428      22.29208057        2       0.10994328      -0.06445777       0.05055318
Pt       7.01803480       4.05186428      22.29208057        2      -0.11079594      -0.06298423       0.05055518
Pt       2.80721392       6.48298285      22.29208057        2       0.02762879       0.01590502      -0.06162792
Pt       5.61442784       6.48298285      22.29208057        2      -0.00440467      -0.16249564       0.03908253
Pt       8.42164176       6.48298285      22.29208057        2      -0.02758554       0.01597685      -0.06162906
Pt      -0.00140305       0.00421295      24.56545487        1       0.02555911      -0.01176206      -0.00534377
Pt       2.80426657      -0.00332194      24.56545497        1      -0.00259282       0.02801476      -0.00534233
Pt       5.61297205      -0.00627999      24.56942012        1      -0.00358020      -0.02454285      -0.00743970
Pt       1.40795775       2.43022624      24.56545596        1      -0.02296804      -0.01625091      -0.00535247
Pt       4.18803152       2.41475126      24.61814783        1      -0.00377651       0.01516373      -0.00883510
Pt       7.04360351       2.41956541      24.61814815        1      -0.01124201      -0.01085300      -0.00884534
Pt       2.80250330       4.86663718      24.56942072        1      -0.01946618       0.01537157      -0.00743860
Pt       5.61164795       4.89015639      24.61814832        1       0.01501998      -0.00430820      -0.00884652
Pt       8.42780733       4.86411640      24.56942072        1       0.02304859       0.00917000      -0.00743680
N        5.61442743       3.24149192      26.94315459        0      -0.00000112      -0.00002977      -0.00876534
H        4.72430718       2.91136566      26.52136192        0       0.01565403      -0.01925921      -0.01085852
H        5.77358993       4.17742108      26.52136140        0      -0.02449898      -0.00389250      -0.01086525
H        6.34538606       2.63568853      26.52136145        0       0.00884590       0.02318072      -0.01085314
