31
Lattice="8.421641763931781 0.0 0.0 4.2108208819658905 7.293355709136913 0.0 0.0 0.0 44.584161137365626" Properties=species:S:1:pos:R:3:tags:I:1:forces:R:3 energy=-172.80628967285156 free_energy=-172.80628967285156 stress="0.010336610488593578 1.012694728075303e-08 -8.118656857902806e-09 1.012694728075303e-08 0.010336620733141899 -1.5861854052445779e-09 -8.118656857902806e-09 -1.5861854052445779e-09 2.1101195670780726e-05" pbc="T T T"
Pt       1.40360696       0.81037286      20.00000000        3       0.00129047       0.00074260      -0.00833604
Pt       4.21082088       0.81037286      20.00000000        3      -0.00128770       0.00074306      -0.00833580
Pt       7.01803480       0.81037286      20.00000000        3      -0.00000191       0.00278401      -0.00336188
Pt       2.80721392       3.24149143      20.00000000        3       0.00000078      -0.00149016      -0.00833675
Pt       5.61442784       3.24149143      20.00000000        3       0.00012246       0.00007170       0.01724860
Pt       8.42164176       3.24149143      20.00000000        3      -0.00012270       0.00007197       0.01724860
Pt       4.21082088       5.67261000      20.00000000        3       0.00241430      -0.00139086      -0.00336245
Pt       7.01803480       5.67261000      20.00000000        3      -0.00000260      -0.00014123       0.01724872
Pt       9.82524872       5.67261000      20.00000000        3      -0.00241318      -0.00138993      -0.00336358
Pt       0.00000000       1.62074571      22.29208057        2      -0.11445434       0.08732463       0.01453559
Pt       2.80721392       1.62074571      22.29208057        2       0.00000025      -0.00000161      -0.11073509
Pt       5.61442784       1.62074571      22.29208057        2       0.11445361       0.08732467       0.01453401
Pt       1.40360696       4.05186428      22.29208057        2      -0.13285476       0.05545834       0.01453599
Pt       4.21082088       4.05186428      22.29208057        2       0.13285746       0.05545794       0.01453497
Pt       7.01803480       4.05186428      22.29208057        2      -0.00000217       0.00000033       0.08593740
Pt       2.80721392       6.48298285      22.29208057        2       0.00000049       0.00000167      -0.05644554
Pt       5.61442784       6.48298285      22.29208057        2       0.01839776      -0.14278401       0.01453400
Pt       8.42164176       6.48298285      22.29208057        2      -0.01839820      -0.14278296       0.01453532
Pt      -0.00121464      -0.00070158      24.56507411        1      -0.00107959      -0.00062280      -0.00976242
Pt       2.80721392       0.01191092      24.57002358        1      -0.00000022      -0.01413910      -0.00317049
Pt       5.61564245      -0.00070161      24.56507424        1       0.00107947      -0.00062322      -0.00976250
Pt       1.41392231       2.42516287      24.57002361        1      -0.01224484       0.00706938      -0.00316966
Pt       4.20050559       2.42516289      24.57002357        1       0.01224370       0.00706943      -0.00317083
Pt       7.01803467       2.40978275      24.61315517        1       0.00000143       0.00144553       0.00335376
Pt       2.80721393       4.86363989      24.56507461        1      -0.00000175       0.00124537      -0.00976139
Pt       5.59595032       4.87290493      24.61315494        1       0.00125367      -0.00072269       0.00335173
Pt       8.44011879       4.87290489      24.61315471        1      -0.00125197      -0.00072182       0.00335195
N        7.01803468       4.05186413      26.94874444        0       0.00005594       0.00001913       0.04621211
H        7.01803480       3.10212029      26.53110602        0      -0.00000530      -0.01187991      -0.01336928
H        6.19553271       4.52673612      26.53110600        0      -0.01030049       0.00594176      -0.01337371
H        7.84053744       4.52673637      26.53110584        0       0.01024984       0.00591872      -0.01334505
