31
Lattice="8.421641763931781 0.0 0.0 4.2108208819658905 7.293355709136913 0.0 0.0 0.0 44.584161137365626" Properties=species:S:1:pos:R:3:tags:I:1:forces:R:3 energy=-172.65139770507812 free_energy=-172.65139770507812 stress="0.01035960391163826 5.309875650283402e-09 -4.907195094716599e-09 5.309875650283402e-09 0.010359608568251133 3.101631729229837e-10 -4.907195094716599e-09 3.101631729229837e-10 -4.088722198503092e-05" pbc="T T T"
Pt       1.40360696       0.81037286      20.00000000        3       0.00000060      -0.00000240      -0.00685441
Pt       4.21082088       0.81037286      20.00000000        3      -0.00128888       0.00270278       0.00972658
Pt       7.01803480       0.81037286      20.00000000        3       0.00128908       0.00270262       0.00972536
Pt       2.80721392       3.24149143      20.00000000        3       0.00169712      -0.00247107       0.00972551
Pt       5.61442784       3.24149143      20.00000000        3      -0.00000196      -0.00000001       0.04421702
Pt       8.42164176       3.24149143      20.00000000        3      -0.00169539      -0.00246984       0.00972447
Pt       4.21082088       5.67261000      20.00000000        3       0.00298942      -0.00023271       0.00972641
Pt       7.01803480       5.67261000      20.00000000        3      -0.00299008      -0.00023160       0.00972569
Pt       9.82524872       5.67261000      20.00000000        3      -0.00000092       0.00000254      -0.00171268
Pt       0.00000000       1.62074571      22.29208057        2      -0.12749881       0.07361288      -0.01448198
Pt       2.80721392       1.62074571      22.29208057        2       0.12750216       0.07361229      -0.01447927
Pt       5.61442784       1.62074571      22.29208057        2      -0.00000279       0.08691674      -0.02148059
Pt       1.40360696       4.05186428      22.29208057        2       0.00000127      -0.00806004      -0.05043377
Pt       4.21082088       4.05186428      22.29208057        2       0.07527402      -0.04345898      -0.02147906
Pt       7.01803480       4.05186428      22.29208057        2      -0.07527435      -0.04345734      -0.02147833
Pt       2.80721392       6.48298285      22.29208057        2       0.00697939       0.00402863      -0.05043873
Pt       5.61442784       6.48298285      22.29208057        2       0.00000076      -0.14722618      -0.01448286
Pt       8.42164176       6.48298285      22.29208057        2      -0.00698004       0.00403140      -0.05043643
Pt       0.00346083       0.00199785      24.56004420        1      -0.00291881      -0.00168539       0.02772121
Pt       2.80375346       0.00199780      24.56004505        1       0.00292063      -0.00168455       0.02771111
Pt       5.61442783      -0.00376784      24.58110111        1      -0.00000166       0.00321665      -0.00503175
Pt       1.40360716       2.42712251      24.56004494        1       0.00000137       0.00337111       0.02771184
Pt       4.18473708       2.41605882      24.61787452        1       0.01592009       0.00919265       0.04069376
Pt       7.04411867       2.41605873      24.61787425        1      -0.01592172       0.00919396       0.04069471
Pt       2.80395102       4.86412090      24.58110143        1       0.00278797      -0.00161020      -0.00503872
Pt       5.61442781       4.89235619      24.61787420        1      -0.00000111      -0.01838516       0.04069449
Pt       8.42490454       4.86412085      24.58110171        1      -0.00278743      -0.00160918      -0.00503746
N        5.61442741       3.24149152      26.85605520        0       0.00002296      -0.00000513      -0.01853840
H        4.81943983       3.70047796      26.34043451        0      -0.01131695       0.00653274      -0.00213897
H        6.40941634       3.70047822      26.34043412        0       0.01129542       0.00652191      -0.00212574
H        5.61442784       2.32351810      26.34043468        0      -0.00000130      -0.01304902      -0.00212905
