31
Lattice="8.421641763931781 0.0 0.0 4.2108208819658905 7.293355709136913 0.0 0.0 0.0 44.584161137365626" Properties=species:S:1:pos:R:3:tags:I:1:forces:R:3 energy=-172.57989501953125 free_energy=-172.57989501953125 stress="0.010444450192153454 -6.392781415343052e-09 -6.683630537906993e-09 -6.392781415343052e-09 0.010553082451224327 -6.761781696695834e-05 -6.683630537906993e-09 -6.761781696695834e-05 -0.00013548981223721057" pbc="T T T"
Pt       1.40360696       0.81037286      20.00000000        3       0.00173000       0.00015744      -0.00500438
Pt       4.21082088       0.81037286      20.00000000        3      -0.00172687       0.00015765      -0.00500417
Pt       7.01803480       0.81037286      20.00000000        3      -0.00000264       0.00069494      -0.00966063
Pt       2.80721392       3.24149143      20.00000000        3       0.00000066      -0.00016545      -0.00903374
Pt       5.61442784       3.24149143      20.00000000        3      -0.00022010       0.00202641       0.00114772
Pt       8.42164176       3.24149143      20.00000000        3       0.00021975       0.00202741       0.00114709
Pt       4.21082088       5.67261000      20.00000000        3       0.00215666      -0.00053317      -0.00299382
Pt       7.01803480       5.67261000      20.00000000        3      -0.00000217      -0.00165470       0.01389912
Pt       9.82524872       5.67261000      20.00000000        3      -0.00215569      -0.00053172      -0.00299230
Pt       0.00000000       1.62074571      22.29208057        2      -0.00083212       0.02239101      -0.03542451
Pt       2.80721392       1.62074571      22.29208057        2      -0.00000102      -0.03676888      -0.03857639
Pt       5.61442784       1.62074571      22.29208057        2       0.00083284       0.02238797      -0.03542545
Pt       1.40360696       4.05186428      22.29208057        2      -0.06290489       0.02315719      -0.00485428
Pt       4.21082088       4.05186428      22.29208057        2       0.06290600       0.02315711      -0.00485957
Pt       7.01803480       4.05186428      22.29208057        2      -0.00000033       0.05622325       0.04125144
Pt       2.80721392       6.48298285      22.29208057        2      -0.00000282      -0.01184257      -0.04683250
Pt       5.61442784       6.48298285      22.29208057        2       0.03640339      -0.06522093       0.02287584
Pt       8.42164176       6.48298285      22.29208057        2      -0.03640039      -0.06522052       0.02288107
Pt      -0.00082427       0.00225949      24.57164856        1      -0.02059921       0.00187565       0.02615598
Pt       2.80721405      -0.01279076      24.59023748        1       0.00000166       0.03806428      -0.01323321
Pt       5.61525221       0.00225952      24.57164869        1       0.02059907       0.00187378       0.02614304
Pt       1.41015971       2.42061381      24.57383867        1       0.00786228      -0.00326949       0.01765046
Pt       4.20426841       2.42061408      24.57383799        1      -0.00786382      -0.00327240       0.01766160
Pt       7.01803469       2.43103440      24.57686693        1       0.00000079      -0.04154892       0.01433873
Pt       2.80721414       4.86225659      24.56783144        1      -0.00000196      -0.00920214       0.03424171
Pt       5.59768331       4.85323049      24.60467433        1      -0.00094891      -0.00083691      -0.03186104
Pt       8.43838562       4.85323058      24.60467455        1       0.00094946      -0.00083631      -0.03186658
N        7.01803455       4.86337221      27.59995864        0       0.00004265      -0.00035830       0.01546150
H        7.83850804       4.40626237      27.19199345        0      -0.00750616       0.02293125      -0.00789099
H        6.19756201       4.40626268      27.19199355        0       0.00746512       0.02290984      -0.00791046
H        7.01803475       5.82558677      27.25215604        0      -0.00000133       0.00122738       0.03856882
