31
Lattice="8.421641763931781 0.0 0.0 4.2108208819658905 7.293355709136913 0.0 0.0 0.0 44.584161137365626" Properties=species:S:1:pos:R:3:tags:I:1:forces:R:3 energy=-172.57896423339844 free_energy=-172.57896423339844 stress="0.010473094880580902 -3.1934563327062904e-10 -5.495873756089509e-10 -3.1934563327062904e-10 0.01047308836132288 5.95839766415196e-10 -5.495873756089509e-10 5.95839766415196e-10 -0.00020022776152472943" pbc="T T T"
Pt       1.40360696       0.81037286      20.00000000        3       0.00000053      -0.00000235      -0.00540212
Pt       4.21082088       0.81037286      20.00000000        3      -0.00079334       0.00067904      -0.00219899
Pt       7.01803480       0.81037286      20.00000000        3       0.00074415       0.00084675      -0.00204474
Pt       2.80721392       3.24149143      20.00000000        3       0.00036221      -0.00107077      -0.00204584
Pt       5.61442784       3.24149143      20.00000000        3      -0.00000191      -0.00000040       0.00783682
Pt       8.42164176       3.24149143      20.00000000        3      -0.00019034      -0.00102919      -0.00220183
Pt       4.21082088       5.67261000      20.00000000        3       0.00098982       0.00035059      -0.00220060
Pt       7.01803480       5.67261000      20.00000000        3      -0.00111040       0.00022462      -0.00204554
Pt       9.82524872       5.67261000      20.00000000        3      -0.00000155       0.00000306      -0.00681651
Pt       0.00000000       1.62074571      22.29208057        2      -0.03219104       0.01882719      -0.02422074
Pt       2.80721392       1.62074571      22.29208057        2       0.03240414       0.01846241      -0.02422165
Pt       5.61442784       1.62074571      22.29208057        2       0.00152493       0.04197963       0.02926064
Pt       1.40360696       4.05186428      22.29208057        2       0.00078549      -0.01328955      -0.03097362
Pt       4.21082088       4.05186428      22.29208057        2       0.03559528      -0.02231376       0.02926065
Pt       7.01803480       4.05186428      22.29208057        2      -0.03712291      -0.01966801       0.02926145
Pt       2.80721392       6.48298285      22.29208057        2       0.01111696       0.00732640      -0.03097416
Pt       5.61442784       6.48298285      22.29208057        2      -0.00021306      -0.03729288      -0.02422143
Pt       8.42164176       6.48298285      22.29208057        2      -0.01190040       0.00596841      -0.03097418
Pt       0.00125019       0.00150241      24.57723221        1      -0.00713261      -0.00009563      -0.00424334
Pt       2.80528754       0.00033117      24.57723233        1       0.00365103      -0.00613068      -0.00424215
Pt       5.61499735      -0.00636824      24.57875348        1       0.00299080       0.01931972      -0.00733277
Pt       1.40428341       2.42928466      24.57723242        1       0.00348376       0.00622555      -0.00424132
Pt       4.19857754       2.42122462      24.58945413        1       0.02483347       0.00794721       0.00628355
Pt       7.03272473       2.42546246      24.58945425        1      -0.01929940       0.01753162       0.00628458
Pt       2.80141432       4.86492808      24.57875358        1       0.01523640      -0.01225126      -0.00733200
Pt       5.61198098       4.87778724      24.58945441        1      -0.00553287      -0.02547920       0.00628415
Pt       8.42687197       4.86591455      24.57875353        1      -0.01822927      -0.00706859      -0.00733122
N        5.61442780       3.24149126      27.59559732        0      -0.00000818       0.00000501       0.00372088
H        5.13768998       2.42587675      27.19906559        0      -0.00924885       0.03347309       0.03569087
H        5.14645376       4.06216573      27.19906540        0       0.03361597      -0.00872807       0.03569278
H        6.55913967       3.23643189      27.19906550        0      -0.02435894      -0.02474989       0.03568874
