31
Lattice="8.421641763931781 0.0 0.0 4.2108208819658905 7.293355709136913 0.0 0.0 0.0 44.584161137365626" Properties=species:S:1:pos:R:3:tags:I:1:forces:R:3 energy=-173.70433044433594 free_energy=-173.70433044433594 stress="0.010676045902073383 -3.1905707146506757e-05 -0.00016696348029654473 -3.1905707146506757e-05 0.010747905820608139 3.4457785659469664e-05 -0.00016696348029654473 3.4457785659469664e-05 7.651630585314706e-05" pbc="T T T"
Pt       1.40360696       0.81037286      20.00000000        3       0.00801389       0.00210163      -0.00669876
Pt       4.21082088       0.81037286      20.00000000        3      -0.00029834       0.00252356      -0.00396571
Pt       7.01803480       0.81037286      20.00000000        3      -0.00310607       0.00349768      -0.00787729
Pt       2.80721392       3.24149143      20.00000000        3       0.00429126      -0.00195641      -0.00882736
Pt       5.61442784       3.24149143      20.00000000        3      -0.00179702      -0.00272609      -0.00672743
Pt       8.42164176       3.24149143      20.00000000        3       0.00242399       0.00490013       0.01680467
Pt       4.21082088       5.67261000      20.00000000        3       0.00108962      -0.00627870      -0.01332068
Pt       7.01803480       5.67261000      20.00000000        3       0.00667643      -0.00200466       0.01761511
Pt       9.82524872       5.67261000      20.00000000        3      -0.00328362      -0.00378252       0.01209566
Pt       0.00000000       1.62074571      22.29208057        2      -0.02434633       0.07481809       0.03772024
Pt       2.80721392       1.62074571      22.29208057        2      -0.02787426      -0.02466372       0.01432928
Pt       5.61442784       1.62074571      22.29208057        2      -0.00337754       0.00652005       0.01705331
Pt       1.40360696       4.05186428      22.29208057        2      -0.12263686       0.05407129       0.00272843
Pt       4.21082088       4.05186428      22.29208057        2      -0.02328625       0.00151643      -0.02191220
Pt       7.01803480       4.05186428      22.29208057        2       0.05024590       0.03062688      -0.03833521
Pt       2.80721392       6.48298285      22.29208057        2      -0.07944563      -0.01663732       0.02550576
Pt       5.61442784       6.48298285      22.29208057        2       0.05252301      -0.00985759       0.02606455
Pt       8.42164176       6.48298285      22.29208057        2      -0.02485905      -0.07613122      -0.01236901
Pt      -0.03812470       0.01046261      24.58772540        1       0.03676189       0.00118028       0.00354439
Pt       2.77137520       0.00811978      24.61195679        1       0.01616651       0.00463910      -0.00553939
Pt       5.58825245       0.01804505      24.60019084        1       0.00455040       0.00631607      -0.00897744
Pt       1.37862549       2.43004246      24.59991412        1       0.01563093      -0.01942987      -0.01020575
Pt       4.17681179       2.43899925      24.58810752        1       0.01636638      -0.03385357       0.00074610
Pt       6.98261461       2.44174183      24.61262304        1       0.01082641      -0.00544906      -0.00679925
Pt       2.77645335       4.86751255      24.59831903        1       0.02709452       0.00734173       0.00461875
Pt       5.55791782       4.86841990      24.58958002        1       0.02114302       0.00684374       0.01235338
Pt       8.39464460       4.87097069      24.67497818        1       0.01760151       0.00389243      -0.00172111
N        8.05836096       4.88262168      26.72248358        0       0.00569893       0.00691020      -0.02660728
H        8.95080081       4.90502099      27.22216688        0      -0.00006130       0.00494516      -0.04685402
H        7.53410503       4.03265300      26.94600466        0      -0.00261123      -0.04166405       0.02460992
H        7.49277787       5.70893780      26.93810579        0       0.01987905       0.02179047       0.01094808
