31
Lattice="8.421641763931781 0.0 0.0 4.2108208819658905 7.293355709136913 0.0 0.0 0.0 44.584161137365626" Properties=species:S:1:pos:R:3:tags:I:1:forces:R:3 energy=-173.71566772460938 free_energy=-173.71566772460938 stress="0.010731210000813007 1.3675747645436331e-08 -9.212731022500975e-09 1.3675747645436331e-08 0.010731198824942112 1.099650859259782e-08 -9.212731022500975e-09 1.099650859259782e-08 2.1105222913320176e-05" pbc="T T T"
Pt       1.40360696       0.81037286      20.00000000        3       0.00481591       0.00361634      -0.00801736
Pt       4.21082088       0.81037286      20.00000000        3       0.00056966       0.00240731      -0.00491869
Pt       7.01803480       0.81037286      20.00000000        3      -0.00554387       0.00235944      -0.00801796
Pt       2.80721392       3.24149143      20.00000000        3       0.00180355      -0.00169644      -0.00492021
Pt       5.61442784       3.24149143      20.00000000        3      -0.00237199      -0.00071284      -0.00492024
Pt       8.42164176       3.24149143      20.00000000        3      -0.00012715       0.00453776       0.01194927
Pt       4.21082088       5.67261000      20.00000000        3       0.00072871      -0.00597896      -0.00801760
Pt       7.01803480       5.67261000      20.00000000        3       0.00399077      -0.00215509       0.01194987
Pt       9.82524872       5.67261000      20.00000000        3      -0.00386639      -0.00237703       0.01195034
Pt       0.00000000       1.62074571      22.29208057        2       0.00345612       0.05798682       0.04052818
Pt       2.80721392       1.62074571      22.29208057        2      -0.01074597       0.00533970       0.01779980
Pt       5.61442784       1.62074571      22.29208057        2       0.00074562      -0.01197914       0.01779827
Pt       1.40360696       4.05186428      22.29208057        2      -0.05763509       0.03345900      -0.03198478
Pt       4.21082088       4.05186428      22.29208057        2       0.01000115       0.00663618       0.01779944
Pt       7.01803480       4.05186428      22.29208057        2       0.05779163       0.03318506      -0.03198397
Pt       2.80721392       6.48298285      22.29208057        2      -0.05194669      -0.02600162       0.04052787
Pt       5.61442784       6.48298285      22.29208057        2       0.04849080      -0.03198496       0.04052714
Pt       8.42164176       6.48298285      22.29208057        2      -0.00015761      -0.06664108      -0.03198597
Pt       0.00000018      -0.00000006      24.59135575        1       0.00000047      -0.00000192      -0.01073334
Pt       2.79901295       0.01404860      24.60009228        1      -0.00886484       0.02333285      -0.01380809
Pt       5.61088585      -0.00383847      24.60838729        1       0.02137794       0.04126772      -0.01027742
Pt       1.40205383       2.43610502      24.60838746        1       0.02505270      -0.03914673      -0.01027799
Pt       4.21082122       2.43111859      24.59176442        1      -0.00000309      -0.00000115      -0.01549470
Pt       7.00996835       2.41699153      24.60009239        1      -0.01577159      -0.01934044      -0.01380762
Pt       2.82348102       4.86231469      24.60009215        1       0.02463683      -0.00398793      -0.01380709
Pt       5.61952239       4.86108876      24.60838739        1      -0.04642806      -0.00212082      -0.01027818
Pt       8.42164152       4.86223756      24.65832802        1       0.00000031      -0.00000093      -0.02940249
N        8.42164269       4.86223650      26.72027151        0      -0.00007176       0.00008093       0.04298627
H        8.90743749       5.70332474      27.04136596        0       0.00974776       0.01448020       0.00293631
H        8.90714769       4.02098204      27.04136339        0       0.00771406      -0.01575635       0.00297218
H        7.45034046       4.86240368      27.04136653        0      -0.01739003       0.00119419       0.00292883
