31
Lattice="8.421641763931781 0.0 0.0 4.2108208819658905 7.293355709136913 0.0 0.0 0.0 44.584161137365626" Properties=species:S:1:pos:R:3:tags:I:1:forces:R:3 energy=-173.71632385253906 free_energy=-173.71632385253906 stress="0.010682223364710808 7.676538515966058e-09 7.498330845123746e-09 7.676538515966058e-09 0.010682259686291218 -4.516411133970166e-10 7.498330845123746e-09 -4.516411133970166e-10 -7.092218311299803e-06" pbc="T T T"
Pt       1.40360696       0.81037286      20.00000000        3       0.00578186       0.00244092      -0.00918671
Pt       4.21082088       0.81037286      20.00000000        3      -0.00071563       0.00294804      -0.00615487
Pt       7.01803480       0.81037286      20.00000000        3      -0.00500929       0.00378261      -0.00918803
Pt       2.80721392       3.24149143      20.00000000        3       0.00291397      -0.00085385      -0.00615597
Pt       5.61442784       3.24149143      20.00000000        3      -0.00219757      -0.00209690      -0.00615522
Pt       8.42164176       3.24149143      20.00000000        3      -0.00055296       0.00468979       0.01213562
Pt       4.21082088       5.67261000      20.00000000        3      -0.00077202      -0.00622687      -0.00918764
Pt       7.01803480       5.67261000      20.00000000        3       0.00433588      -0.00186233       0.01213637
Pt       9.82524872       5.67261000      20.00000000        3      -0.00378523      -0.00282170       0.01213616
Pt       0.00000000       1.62074571      22.29208057        2      -0.00672506       0.06184239       0.03202650
Pt       2.80721392       1.62074571      22.29208057        2      -0.00184025      -0.01181310      -0.00045994
Pt       5.61442784       1.62074571      22.29208057        2       0.01114507       0.00430944      -0.00046343
Pt       1.40360696       4.05186428      22.29208057        2      -0.06364494       0.04216326      -0.02968245
Pt       4.21082088       4.05186428      22.29208057        2      -0.00930204       0.00749915      -0.00046289
Pt       7.01803480       4.05186428      22.29208057        2       0.06833579       0.03403980      -0.02967881
Pt       2.80721392       6.48298285      22.29208057        2      -0.05019484      -0.03674711       0.03202714
Pt       5.61442784       6.48298285      22.29208057        2       0.05692420      -0.02509274       0.03203035
Pt       8.42164176       6.48298285      22.29208057        2      -0.00469097      -0.07619752      -0.02967968
Pt      -0.00000022       0.00000113      24.58918501        1       0.00000747      -0.00000381      -0.00202489
Pt       2.80596810       0.00568059      24.60739090        1      -0.00119057      -0.01002814      -0.00840257
Pt       5.61935809       0.01096060      24.59525827        1       0.00931999       0.00503208       0.00930722
Pt       1.41063356       2.42136973      24.59525857        1      -0.00029324      -0.01059095       0.00930651
Pt       4.21082170       2.43111933      24.58888605        1       0.00000059      -0.00000164      -0.00014275
Pt       7.01373992       2.42719941      24.60738890        1       0.00927285       0.00398817      -0.00839204
Pt       2.81275948       4.86047741      24.60738969        1      -0.00808822       0.00604310      -0.00839378
Pt       5.60247371       4.86102765      24.59525837        1      -0.00901476       0.00555338       0.00930579
Pt       8.42164750       4.86223722      24.65966031        1       0.00000109       0.00000368       0.00903380
N        8.42164393       4.86223511      26.72670463        0      -0.00013527      -0.00002721      -0.00551748
H        7.93768937       4.01887954      27.04602285        0       0.00282381       0.00248320      -0.00004358
H        7.93324070       5.70302072      27.04602485        0       0.00074813      -0.00364642      -0.00003277
H        9.39397768       4.86480271      27.04604799        0      -0.00345787       0.00119106      -0.00004002
