31
Lattice="8.421641763931781 0.0 0.0 4.2108208819658905 7.293355709136913 0.0 0.0 0.0 44.584161137365626" Properties=species:S:1:pos:R:3:tags:I:1:forces:R:3 energy=-172.80653381347656 free_energy=-172.80653381347656 stress="0.01029182132333517 4.393428731930271e-09 1.5331311775668155e-09 4.393428731930271e-09 0.010291817598044872 3.9205714230661215e-09 1.5331311775668155e-09 3.9205714230661215e-09 2.576978295110166e-05" pbc="T T T"
Pt       1.40360696       0.81037286      20.00000000        3       0.00000092      -0.00000250      -0.00860682
Pt       4.21082088       0.81037286      20.00000000        3      -0.00223098       0.00252629       0.00094730
Pt       7.01803480       0.81037286      20.00000000        3       0.00223116       0.00252635       0.00094667
Pt       2.80721392       3.24149143      20.00000000        3       0.00107342      -0.00319845       0.00094640
Pt       5.61442784       3.24149143      20.00000000        3      -0.00000169       0.00000010       0.03144354
Pt       8.42164176       3.24149143      20.00000000        3      -0.00107158      -0.00319741       0.00094539
Pt       4.21082088       5.67261000      20.00000000        3       0.00330845       0.00067148       0.00094691
Pt       7.01803480       5.67261000      20.00000000        3      -0.00330819       0.00067181       0.00094667
Pt       9.82524872       5.67261000      20.00000000        3      -0.00000114       0.00000239      -0.01521713
Pt       0.00000000       1.62074571      22.29208057        2      -0.13821071       0.07979441       0.02789608
Pt       2.80721392       1.62074571      22.29208057        2       0.13821284       0.07979582       0.02789563
Pt       5.61442784       1.62074571      22.29208057        2      -0.00000257       0.12210032       0.04594447
Pt       1.40360696       4.05186428      22.29208057        2       0.00000078      -0.03577129      -0.07026386
Pt       4.21082088       4.05186428      22.29208057        2       0.10574552      -0.06105132       0.04594456
Pt       7.01803480       4.05186428      22.29208057        2      -0.10574542      -0.06105007       0.04594589
Pt       2.80721392       6.48298285      22.29208057        2       0.03097890       0.01788644      -0.07026618
Pt       5.61442784       6.48298285      22.29208057        2      -0.00000188      -0.15959266       0.02789389
Pt       8.42164176       6.48298285      22.29208057        2      -0.03097789       0.01788791      -0.07026621
Pt       0.00224079       0.00129326      24.56523472        1       0.00060768       0.00035209      -0.00526264
Pt       2.80497351       0.00129339      24.56523445        1      -0.00060747       0.00035238      -0.00526169
Pt       5.61442783      -0.01027229      24.56857314        1      -0.00000182       0.00925498      -0.00448468
Pt       1.40360714       2.42853129      24.56523496        1       0.00000101      -0.00069931      -0.00526214
Pt       4.18532953       2.41640096      24.61131511        1       0.01195706       0.00690364       0.00162296
Pt       7.04352611       2.41640094      24.61131550        1      -0.01195881       0.00690485       0.00162682
Pt       2.79831812       4.86737327      24.56857370        1       0.00801341      -0.00463004      -0.00448458
Pt       5.61442775       4.89167208      24.61131491        1       0.00000145      -0.01380838       0.00162204
Pt       8.43053739       4.86737332      24.56857350        1      -0.00801332      -0.00462892      -0.00448512
N        5.61442771       3.24149201      26.92948733        0      -0.00002553      -0.00002289       0.03302565
H        4.79045740       2.76577180      26.51547516        0      -0.00875041      -0.00505189      -0.01088353
H        5.61442777       4.19293008      26.51547525        0       0.00000192       0.01013774      -0.01089736
H        6.43839810       2.76577201      26.51547534        0       0.00877526      -0.00506388      -0.01089916
