31
Lattice="8.421641763931781 0.0 0.0 4.2108208819658905 7.293355709136913 0.0 0.0 0.0 44.584161137365626" Properties=species:S:1:pos:R:3:tags:I:1:forces:R:3 energy=-172.64501953125 free_energy=-172.64501953125 stress="0.01048080064356327 2.9540265789052e-09 2.7370539168458663e-09 2.9540265789052e-09 0.010480794124305248 7.182726080579016e-10 2.7370539168458663e-09 7.182726080579016e-10 5.016046088712756e-06" pbc="T T T"
Pt       1.40360696       0.81037286      20.00000000        3       0.00206540       0.00118991      -0.00083464
Pt       4.21082088       0.81037286      20.00000000        3      -0.00206238       0.00119074      -0.00083396
Pt       7.01803480       0.81037286      20.00000000        3      -0.00000203       0.00430193       0.00125495
Pt       2.80721392       3.24149143      20.00000000        3       0.00000120      -0.00238467      -0.00083518
Pt       5.61442784       3.24149143      20.00000000        3       0.00082692       0.00047835       0.03291133
Pt       8.42164176       3.24149143      20.00000000        3      -0.00082767       0.00047907       0.03291085
Pt       4.21082088       5.67261000      20.00000000        3       0.00372954      -0.00215102       0.00125450
Pt       7.01803480       5.67261000      20.00000000        3      -0.00000223      -0.00095488       0.03291082
Pt       9.82524872       5.67261000      20.00000000        3      -0.00372838      -0.00214937       0.00125319
Pt       0.00000000       1.62074571      22.29208057        2      -0.08613333       0.09566946      -0.01345564
Pt       2.80721392       1.62074571      22.29208057        2       0.00000003      -0.00000137      -0.05686379
Pt       5.61442784       1.62074571      22.29208057        2       0.08613200       0.09567050      -0.01345690
Pt       1.40360696       4.05186428      22.29208057        2      -0.12592167       0.02675817      -0.01345539
Pt       4.21082088       4.05186428      22.29208057        2       0.12592314       0.02675707      -0.01345827
Pt       7.01803480       4.05186428      22.29208057        2      -0.00000120      -0.00000030       0.03622722
Pt       2.80721392       6.48298285      22.29208057        2       0.00000048       0.00000250      -0.08502154
Pt       5.61442784       6.48298285      22.29208057        2       0.03978626      -0.12242784      -0.01345920
Pt       8.42164176       6.48298285      22.29208057        2      -0.03978648      -0.12242852      -0.01345808
Pt      -0.00147947      -0.00085476      24.55778883        1      -0.00109338      -0.00062843       0.03598827
Pt       2.80721407       0.00255803      24.58008559        1      -0.00000032       0.02804070       0.00056905
Pt       5.61590724      -0.00085474      24.55778822        1       0.00109404      -0.00062842       0.03598887
Pt       1.40582267       2.42983945      24.58008608        1       0.02428270      -0.01402044       0.00056919
Pt       4.20860551       2.42983940      24.58008526        1      -0.02428367      -0.01402091       0.00056829
Pt       7.01803439       2.40505223      24.63193115        1       0.00000066       0.03446479      -0.01021194
Pt       2.80721404       4.86394575      24.55778936        1      -0.00000045       0.00126036       0.03598863
Pt       5.59185342       4.87527043      24.63192969        1       0.02985003      -0.01723403      -0.01020361
Pt       8.44421546       4.87527034      24.63193112        1      -0.02984945      -0.01723400      -0.01021183
N        7.01803476       4.05186442      26.87787147        0      -0.00001562      -0.00001357       0.01676719
H        7.01803543       4.97111309      26.36492527        0      -0.00000516      -0.01586103      -0.00313920
H        7.81412758       3.59224018      26.36492445        0      -0.01373192       0.00792880      -0.00313494
H        6.22194197       3.59223945      26.36492502        0       0.01375297       0.00794671      -0.00312835
