31
Lattice="8.421641763931781 0.0 0.0 4.2108208819658905 7.293355709136913 0.0 0.0 0.0 44.584161137365626" Properties=species:S:1:pos:R:3:tags:I:1:forces:R:3 energy=-172.79193115234375 free_energy=-172.79193115234375 stress="0.010310139507055283 9.865365413475047e-09 -6.888887238432062e-09 9.865365413475047e-09 0.010310136713087559 -7.024923753817802e-09 -6.888887238432062e-09 -7.024923753817802e-09 -5.318301555234939e-05" pbc="T T T"
Pt       1.40360696       0.81037286      20.00000000        3       0.00082327       0.00125769      -0.00642759
Pt       4.21082088       0.81037286      20.00000000        3      -0.00150027       0.00008022      -0.00642717
Pt       7.01803480       0.81037286      20.00000000        3       0.00026600       0.00262386      -0.00198227
Pt       2.80721392       3.24149143      20.00000000        3       0.00068098      -0.00134242      -0.00642762
Pt       5.61442784       3.24149143      20.00000000        3       0.00013032      -0.00073274       0.01711392
Pt       8.42164176       3.24149143      20.00000000        3       0.00056949       0.00048178       0.01711220
Pt       4.21082088       5.67261000      20.00000000        3       0.00214202      -0.00154413      -0.00198156
Pt       7.01803480       5.67261000      20.00000000        3      -0.00070352       0.00025408       0.01711327
Pt       9.82524872       5.67261000      20.00000000        3      -0.00240906      -0.00107829      -0.00198260
Pt       0.00000000       1.62074571      22.29208057        2      -0.10593944       0.07567810       0.01753285
Pt       2.80721392       1.62074571      22.29208057        2       0.00000034      -0.00000159      -0.12336054
Pt       5.61442784       1.62074571      22.29208057        2       0.11871343       0.08205906       0.00725945
Pt       1.40360696       4.05186428      22.29208057        2      -0.13041982       0.06178110       0.00726142
Pt       4.21082088       4.05186428      22.29208057        2       0.11851296       0.05390817       0.01753363
Pt       7.01803480       4.05186428      22.29208057        2      -0.00000448      -0.00000008       0.07267448
Pt       2.80721392       6.48298285      22.29208057        2       0.00000051      -0.00000104      -0.04818349
Pt       5.61442784       6.48298285      22.29208057        2       0.01170634      -0.14384051       0.00725839
Pt       8.42164176       6.48298285      22.29208057        2      -0.01256949      -0.12958351       0.01752937
Pt       0.00401474      -0.01182693      24.56825675        1      -0.01274845       0.02477765      -0.02905662
Pt       2.79849608       0.01462063      24.57019367        1       0.02185195      -0.03447156      -0.00114779
Pt       5.62266274       0.00938988      24.56825630        1      -0.01508256      -0.02342936      -0.02905773
Pt       1.42062860       2.43135772      24.57019457        1      -0.04078216      -0.00168744      -0.00114611
Pt       4.20251766       2.41625817      24.57019390        1       0.01892965       0.03615995      -0.00114612
Pt       7.03631884       2.40891769      24.60961078        1      -0.02603399      -0.01960728      -0.00391295
Pt       2.79496484       4.86467376      24.56825799        1       0.02783024      -0.00134740      -0.02906676
Pt       5.58605937       4.85750314      24.60961087        1      -0.00396377       0.03234890      -0.00391346
Pt       8.43172512       4.88917148      24.60960944        1       0.02999849      -0.01274300      -0.00389992
N        7.01803443       4.05186384      26.91369247        0       0.00003305       0.00004436       0.03990343
H        7.69407827       4.71230623      26.47645232        0       0.01101444      -0.03062791       0.02028852
H        7.25197239       3.13617323      26.47645170        0      -0.03201783       0.00571796       0.02026740
H        6.10805422       4.30711366      26.47645124        0       0.02097137       0.02486537       0.02027174
