31
Lattice="8.421641763931781 0.0 0.0 4.2108208819658905 7.293355709136913 0.0 0.0 0.0 44.584161137365626" Properties=species:S:1:pos:R:3:tags:I:1:forces:R:3 energy=-172.80471801757812 free_energy=-172.80471801757812 stress="0.010280609130859375 4.023958943832895e-09 -7.433033299975023e-09 4.023958943832895e-09 0.010280642658472061 1.5908106831830082e-08 -7.433033299975023e-09 1.5908106831830082e-08 -4.889112096861936e-05" pbc="T T T"
Pt       1.40360696       0.81037286      20.00000000        3       0.00149820       0.00067008      -0.01032931
Pt       4.21082088       0.81037286      20.00000000        3      -0.00132885       0.00095911      -0.01032943
Pt       7.01803480       0.81037286      20.00000000        3      -0.00020881       0.00324705      -0.00452867
Pt       2.80721392       3.24149143      20.00000000        3      -0.00016549      -0.00163365      -0.01033071
Pt       5.61442784       3.24149143      20.00000000        3       0.00040442       0.00063077       0.01849687
Pt       8.42164176       3.24149143      20.00000000        3      -0.00074871       0.00003667       0.01849601
Pt       4.21082088       5.67261000      20.00000000        3       0.00291871      -0.00144372      -0.00452879
Pt       7.01803480       5.67261000      20.00000000        3       0.00034128      -0.00066496       0.01849604
Pt       9.82524872       5.67261000      20.00000000        3      -0.00271105      -0.00180070      -0.00452960
Pt       0.00000000       1.62074571      22.29208057        2      -0.12142435       0.09945568      -0.00069119
Pt       2.80721392       1.62074571      22.29208057        2       0.00000019      -0.00000148      -0.11652261
Pt       5.61442784       1.62074571      22.29208057        2       0.11679348       0.09314243       0.00265628
Pt       1.40360696       4.05186428      22.29208057        2      -0.13905981       0.05457397       0.00265502
Pt       4.21082088       4.05186428      22.29208057        2       0.14684758       0.05542640      -0.00069441
Pt       7.01803480       4.05186428      22.29208057        2      -0.00000269      -0.00000138       0.08542588
Pt       2.80721392       6.48298285      22.29208057        2       0.00000036       0.00000240      -0.07503914
Pt       5.61442784       6.48298285      22.29208057        2       0.02226526      -0.14771636       0.00265245
Pt       8.42164176       6.48298285      22.29208057        2      -0.02541921      -0.15488222      -0.00069585
Pt      -0.00299544       0.00562636      24.55888523        1      -0.00099127      -0.02670317       0.02342711
Pt       2.80729370       0.00955107      24.56697991        1      -0.00305040       0.00661785       0.01110218
Pt       5.61105321      -0.00540794      24.55888537        1       0.02362337       0.01249804       0.02342667
Pt       1.41183859       2.42627380      24.56697968        1       0.00725715      -0.00066642       0.01110169
Pt       4.20250927       2.42641167      24.56697983        1      -0.00420420      -0.00594861       0.01110199
Pt       7.01122518       2.41008320      24.61570298        1       0.02007453       0.00546818       0.00405317
Pt       2.81358514       4.86201841      24.55888554        1      -0.02263549       0.01420728       0.02342702
Pt       5.59961521       4.87865214      24.61570115        1      -0.00530066      -0.02012108       0.00405245
Pt       8.44326398       4.86685782      24.61570103        1      -0.01477361       0.01465058       0.00405566
N        7.01803309       4.05186571      26.95923550        0       0.00004966      -0.00008966       0.01839104
H        7.08333079       3.10521035      26.53935466        0      -0.00950932      -0.01062325      -0.01491036
H        6.16556121       4.46864126      26.53935051        0      -0.00454085       0.01358601      -0.01495375
H        7.80521037       4.58173758      26.53935078        0       0.01400056      -0.00287579      -0.01493399
