31
Lattice="8.421641763931781 0.0 0.0 4.2108208819658905 7.293355709136913 0.0 0.0 0.0 44.584161137365626" Properties=species:S:1:pos:R:3:tags:I:1:forces:R:3 energy=-173.7161865234375 free_energy=-173.7161865234375 stress="0.010666647925972939 4.202167058764417e-09 1.4655210378577976e-08 4.202167058764417e-09 0.010666711255908012 1.678690186857068e-09 1.4655210378577976e-08 1.678690186857068e-09 -1.837461127252027e-06" pbc="T T T"
Pt       1.40360696       0.81037286      20.00000000        3       0.00502320       0.00367331      -0.00957483
Pt       4.21082088       0.81037286      20.00000000        3       0.00067074       0.00312290      -0.00628483
Pt       7.01803480       0.81037286      20.00000000        3      -0.00569653       0.00250959      -0.00957501
Pt       2.80721392       3.24149143      20.00000000        3       0.00237255      -0.00214166      -0.00628588
Pt       5.61442784       3.24149143      20.00000000        3      -0.00304172      -0.00098369      -0.00628552
Pt       8.42164176       3.24149143      20.00000000        3       0.00054049       0.00469359       0.01201910
Pt       4.21082088       5.67261000      20.00000000        3       0.00067487      -0.00618573      -0.00957608
Pt       7.01803480       5.67261000      20.00000000        3       0.00379218      -0.00281145       0.01201940
Pt       9.82524872       5.67261000      20.00000000        3      -0.00433536      -0.00187683       0.01201949
Pt       0.00000000       1.62074571      22.29208057        2       0.00612050       0.06274593       0.02846755
Pt       2.80721392       1.62074571      22.29208057        2      -0.00941653       0.00433263      -0.00398312
Pt       5.61442784       1.62074571      22.29208057        2       0.00095235      -0.01032478      -0.00398330
Pt       1.40360696       4.05186428      22.29208057        2      -0.07003812       0.03508778      -0.02902943
Pt       4.21082088       4.05186428      22.29208057        2       0.00846460       0.00598824      -0.00398386
Pt       7.01803480       4.05186428      22.29208057        2       0.06540279       0.04311207      -0.02903103
Pt       2.80721392       6.48298285      22.29208057        2      -0.05740076      -0.02607387       0.02846722
Pt       5.61442784       6.48298285      22.29208057        2       0.05128239      -0.03667039       0.02846648
Pt       8.42164176       6.48298285      22.29208057        2       0.00463428      -0.07819597      -0.02903087
Pt       0.00000083       0.00000028      24.58874707        1      -0.00000060       0.00000039      -0.00017768
Pt       2.80256749       0.01090866      24.59462514        1      -0.00539738       0.00066043       0.01185369
Pt       5.61709867       0.00668545      24.60592393        1      -0.00698424      -0.01683503      -0.00246537
Pt       1.40806232       2.42546337      24.60592446        1      -0.01109293       0.01446417      -0.00246574
Pt       4.21082116       2.43111935      24.58900197        1       0.00000046      -0.00000362      -0.00094092
Pt       7.01091166       2.42163998      24.59462509        1       0.00212521      -0.00500488       0.01185498
Pt       2.81898433       4.86080815      24.59462468        1       0.00326686       0.00434011       0.01185480
Pt       5.60730221       4.86120766      24.60592439        1       0.01807055       0.00237336      -0.00246517
Pt       8.42163911       4.86223653      24.65974875        1       0.00000258      -0.00000016       0.03699729
N        8.42163859       4.86223522      26.72996639        0       0.00017689       0.00002533      -0.04316580
H        7.44890509       4.86551570      27.04814050        0       0.00639065       0.00116373       0.00145603
H        8.91085112       5.70301185      27.04813138        0      -0.00228044      -0.00626226       0.00141499
H        8.90517050       4.01818015      27.04813549        0      -0.00427940       0.00507669       0.00141361
