31
Lattice="8.421641763931781 0.0 0.0 4.2108208819658905 7.293355709136913 0.0 0.0 0.0 44.584161137365626" Properties=species:S:1:pos:R:3:tags:I:1:forces:R:3 energy=-172.8042755126953 free_energy=-172.8042755126953 stress="0.010287938639521599 1.5644194828468017e-09 -1.6868523244895073e-09 1.5644194828468017e-09 0.010287937708199024 3.9940308838026795e-09 -1.6868523244895073e-09 3.9940308838026795e-09 2.578343810455408e-05" pbc="T T T"
Pt       1.40360696       0.81037286      20.00000000        3       0.00000106      -0.00000267      -0.01219061
Pt       4.21082088       0.81037286      20.00000000        3      -0.00197851       0.00239117       0.00095367
Pt       7.01803480       0.81037286      20.00000000        3       0.00218451       0.00302561       0.00097531
Pt       2.80721392       3.24149143      20.00000000        3       0.00152889      -0.00340775       0.00097498
Pt       5.61442784       3.24149143      20.00000000        3      -0.00000167      -0.00000008       0.03240675
Pt       8.42164176       3.24149143      20.00000000        3      -0.00108051      -0.00291121       0.00095165
Pt       4.21082088       5.67261000      20.00000000        3       0.00306490       0.00052062       0.00095147
Pt       7.01803480       5.67261000      20.00000000        3      -0.00371789       0.00038247       0.00097540
Pt       9.82524872       5.67261000      20.00000000        3      -0.00000125       0.00000260      -0.01433024
Pt       0.00000000       1.62074571      22.29208057        2      -0.14872833       0.08593602       0.01205502
Pt       2.80721392       1.62074571      22.29208057        2       0.14879036       0.08583644       0.01205839
Pt       5.61442784       1.62074571      22.29208057        2       0.00260741       0.12159434       0.04921741
Pt       1.40360696       4.05186428      22.29208057        2      -0.00523680      -0.02982242      -0.07348215
Pt       4.21082088       4.05186428      22.29208057        2       0.10399993      -0.06306309       0.04921767
Pt       7.01803480       4.05186428      22.29208057        2      -0.10661015      -0.05853410       0.04922006
Pt       2.80721392       6.48298285      22.29208057        2       0.02844197       0.01037702      -0.07348823
Pt       5.61442784       6.48298285      22.29208057        2      -0.00005594      -0.17177205       0.01205165
Pt       8.42164176       6.48298285      22.29208057        2      -0.02320823       0.01944643      -0.07348336
Pt       0.00528324       0.00130286      24.56071327        1      -0.02640450      -0.00283751       0.02084036
Pt       2.80344305       0.00392348      24.56071516        1       0.01566646      -0.02144458       0.02083163
Pt       5.62303485      -0.01200269      24.56953549        1      -0.02005013       0.02605290      -0.00906205
Pt       1.40209476       2.42588998      24.56071559        1       0.01073893       0.02429049       0.02083077
Pt       4.18914689       2.41046101      24.61256712        1       0.01475192       0.02396552       0.01037791
Pt       7.04676176       2.42267672      24.61256668        1      -0.02813179       0.00079587       0.01038811
Pt       2.79251535       4.86078394      24.56953618        1       0.03258917       0.00433576      -0.00906059
Pt       5.60737484       4.89133682      24.61256590        1       0.01338184      -0.02476656       0.01039153
Pt       8.42773333       4.87569298      24.56953790        1      -0.01254259      -0.03039268      -0.00907052
N        5.61442781       3.24149166      26.94051665        0      -0.00000231      -0.00002648      -0.04891399
H        5.52666497       4.18769487      26.52022147        0       0.01306536      -0.02009936       0.00245976
H        6.47774591       2.84439517      26.52022028        0      -0.02396083      -0.00125380       0.00247326
H        4.83887272       2.69238470      26.52022040        0       0.01089883       0.02138087       0.00247923
