31
Lattice="8.421641763931781 0.0 0.0 4.2108208819658905 7.293355709136913 0.0 0.0 0.0 44.584161137365626" Properties=species:S:1:pos:R:3:tags:I:1:forces:R:3 energy=-173.71240234375 free_energy=-173.71240234375 stress="0.010804630815982819 1.2913178970563877e-08 6.479369929479617e-09 1.2913178970563877e-08 0.010804619640111923 5.306612926858634e-09 6.479369929479617e-09 5.306612926858634e-09 0.00011950784391956404" pbc="T T T"
Pt       1.40360696       0.81037286      20.00000000        3       0.00531794       0.00306748      -0.00782326
Pt       4.21082088       0.81037286      20.00000000        3       0.00000235       0.00336341      -0.00487348
Pt       7.01803480       0.81037286      20.00000000        3      -0.00531940       0.00306837      -0.00782365
Pt       2.80721392       3.24149143      20.00000000        3       0.00291493      -0.00168278      -0.00487500
Pt       5.61442784       3.24149143      20.00000000        3      -0.00291582      -0.00168254      -0.00487447
Pt       8.42164176       3.24149143      20.00000000        3       0.00000147       0.00485976       0.01284578
Pt       4.21082088       5.67261000      20.00000000        3       0.00000233      -0.00613927      -0.00782362
Pt       7.01803480       5.67261000      20.00000000        3       0.00420586      -0.00242709       0.01284686
Pt       9.82524872       5.67261000      20.00000000        3      -0.00420938      -0.00242675       0.01284727
Pt       0.00000000       1.62074571      22.29208057        2       0.00000124       0.05838815       0.05123296
Pt       2.80721392       1.62074571      22.29208057        2      -0.00409792      -0.00236818       0.01918720
Pt       5.61442784       1.62074571      22.29208057        2       0.00409728      -0.00236823       0.01918595
Pt       1.40360696       4.05186428      22.29208057        2      -0.06503832       0.03755036      -0.01545650
Pt       4.21082088       4.05186428      22.29208057        2       0.00000182       0.00473310       0.01918695
Pt       7.01803480       4.05186428      22.29208057        2       0.06503670       0.03755054      -0.01545685
Pt       2.80721392       6.48298285      22.29208057        2      -0.05056783      -0.02919412       0.05123214
Pt       5.61442784       6.48298285      22.29208057        2       0.05056681      -0.02919390       0.05123150
Pt       8.42164176       6.48298285      22.29208057        2       0.00000063      -0.07509786      -0.01545860
Pt       0.00000028      -0.00000022      24.59631253        1      -0.00000095      -0.00000006      -0.03171474
Pt       2.80449241       0.00918264      24.60522842        1      -0.00508797      -0.00390465      -0.01702337
Pt       5.61714954       0.00918248      24.60522859        1       0.00508924      -0.00390512      -0.01702265
Pt       1.41019856       2.42417031      24.60522829        1      -0.00592614      -0.00245327      -0.01702294
Pt       4.21082094       2.43111845      24.59619178        1      -0.00000108       0.00000046      -0.03323203
Pt       7.01144296       2.42417018      24.60522854        1       0.00592629      -0.00245343      -0.01702207
Pt       2.81652713       4.86000271      24.60522842        1      -0.00083822       0.00635922      -0.01702301
Pt       5.60511458       4.86000285      24.60522881        1       0.00083783       0.00635756      -0.01702203
Pt       8.42164095       4.86223762      24.66368110        1      -0.00000349      -0.00000032      -0.02417138
N        8.42164057       4.86223717      26.72836923        0       0.00007431       0.00002596       0.01974863
H        7.58064371       5.34778746      27.05000824        0      -0.00031503       0.00017965       0.00206284
H        9.26264063       5.34778717      27.05000501        0       0.00024839       0.00014581       0.00204562
H        8.42164248       3.89113558      27.05000488        0      -0.00000390      -0.00035232       0.00206588
