31
Lattice="8.421641763931781 0.0 0.0 4.2108208819658905 7.293355709136913 0.0 0.0 0.0 44.584161137365626" Properties=species:S:1:pos:R:3:tags:I:1:forces:R:3 energy=-172.8055419921875 free_energy=-172.8055419921875 stress="0.010267083533108234 3.141849092003213e-08 2.154817879684856e-09 3.141849092003213e-08 0.01021911483258009 -0.00011345283564878628 2.154817879684856e-09 -0.00011345283564878628 -5.9211473853792995e-05" pbc="T T T"
Pt       1.40360696       0.81037286      20.00000000        3       0.00203056       0.00306372      -0.00474873
Pt       4.21082088       0.81037286      20.00000000        3      -0.00202714       0.00306535      -0.00474808
Pt       7.01803480       0.81037286      20.00000000        3      -0.00000255       0.00165096      -0.01466075
Pt       2.80721392       3.24149143      20.00000000        3       0.00000149       0.00059664      -0.00791121
Pt       5.61442784       3.24149143      20.00000000        3      -0.00193258       0.00454718       0.00620192
Pt       8.42164176       3.24149143      20.00000000        3       0.00193147       0.00454873       0.00620207
Pt       4.21082088       5.67261000      20.00000000        3       0.00229860      -0.00216595       0.00427064
Pt       7.01803480       5.67261000      20.00000000        3      -0.00000231      -0.00018078       0.03382879
Pt       9.82524872       5.67261000      20.00000000        3      -0.00229752      -0.00216470       0.00427228
Pt       0.00000000       1.62074571      22.29208057        2       0.01726760       0.00747365      -0.08239710
Pt       2.80721392       1.62074571      22.29208057        2       0.00000017      -0.11674311      -0.04284481
Pt       5.61442784       1.62074571      22.29208057        2      -0.01726837       0.00747052      -0.08239824
Pt       1.40360696       4.05186428      22.29208057        2      -0.16515726       0.07758026       0.05782763
Pt       4.21082088       4.05186428      22.29208057        2       0.16514856       0.07757307       0.05780113
Pt       7.01803480       4.05186428      22.29208057        2       0.00000691       0.10184048       0.06140918
Pt       2.80721392       6.48298285      22.29208057        2      -0.00000308      -0.06785057      -0.07098113
Pt       5.61442784       6.48298285      22.29208057        2       0.08123086      -0.12512250       0.02001771
Pt       8.42164176       6.48298285      22.29208057        2      -0.08122749      -0.12512974       0.02002561
Pt      -0.00349772      -0.03012217      24.56749005        1      -0.01284222       0.01349238       0.00481480
Pt       2.80721433       0.00720694      24.59225168        1       0.00000067       0.01144501       0.01752578
Pt       5.61792590      -0.03012238      24.56748996        1       0.01283933       0.01348764       0.00481534
Pt       1.40272609       2.40139427      24.56335095        1       0.02535132       0.02808619       0.01108167
Pt       4.21170190       2.40139726      24.56334994        1      -0.02535555       0.02805072       0.01108274
Pt       7.01803459       2.37698612      24.57053310        1       0.00000374       0.04154746      -0.01218805
Pt       2.80721663       4.82862288      24.56492766        1      -0.00003481       0.01906164      -0.01173539
Pt       5.59299644       4.81991278      24.62335182        1      -0.01328350      -0.00108098      -0.02255619
Pt       8.44306840       4.81991452      24.62335895        1       0.01332936      -0.00109908      -0.02262136
N        7.01803357       5.40412968      26.90603104        0      -0.00002481       0.01404461       0.04636124
H        7.01803969       6.30145125      26.37849597        0      -0.00005776      -0.00053813       0.02805275
H        7.84002606       4.88531972      26.54187726        0       0.01507093      -0.00833096      -0.00788497
H        6.19604138       4.88531246      26.54188016        0      -0.01499467      -0.00821944      -0.00791546
