31
Lattice="8.421641763931781 0.0 0.0 4.2108208819658905 7.293355709136913 0.0 0.0 0.0 44.584161137365626" Properties=species:S:1:pos:R:3:tags:I:1:forces:R:3 energy=-172.5946807861328 free_energy=-172.5946807861328 stress="0.01053182128816843 1.1038604696977927e-08 4.769439065910319e-09 1.1038604696977927e-08 0.01053182315081358 2.577211111187694e-09 4.769439065910319e-09 2.577211111187694e-09 -0.00010161561658605933" pbc="T T T"
Pt       1.40360696       0.81037286      20.00000000        3       0.00046547       0.00026573      -0.00699097
Pt       4.21082088       0.81037286      20.00000000        3      -0.00046245       0.00026652      -0.00699049
Pt       7.01803480       0.81037286      20.00000000        3      -0.00000232       0.00081104      -0.00487471
Pt       2.80721392       3.24149143      20.00000000        3       0.00000075      -0.00053683      -0.00699148
Pt       5.61442784       3.24149143      20.00000000        3       0.00043349       0.00025131      -0.00006601
Pt       8.42164176       3.24149143      20.00000000        3      -0.00043390       0.00025189      -0.00006750
Pt       4.21082088       5.67261000      20.00000000        3       0.00070634      -0.00040508      -0.00487453
Pt       7.01803480       5.67261000      20.00000000        3      -0.00000229      -0.00050027      -0.00006738
Pt       9.82524872       5.67261000      20.00000000        3      -0.00070557      -0.00040409      -0.00487518
Pt       0.00000000       1.62074571      22.29208057        2      -0.02140828       0.02138411      -0.00027321
Pt       2.80721392       1.62074571      22.29208057        2       0.00000219      -0.00000165      -0.05402041
Pt       5.61442784       1.62074571      22.29208057        2       0.02140613       0.02138571      -0.00027226
Pt       1.40360696       4.05186428      22.29208057        2      -0.02922523       0.00784747      -0.00027606
Pt       4.21082088       4.05186428      22.29208057        2       0.02922979       0.00784526      -0.00027376
Pt       7.01803480       4.05186428      22.29208057        2      -0.00000305      -0.00000022       0.04414100
Pt       2.80721392       6.48298285      22.29208057        2       0.00000090       0.00000166      -0.03137690
Pt       5.61442784       6.48298285      22.29208057        2       0.00781510      -0.02923407      -0.00027470
Pt       8.42164176       6.48298285      22.29208057        2      -0.00781629      -0.02923125      -0.00027441
Pt      -0.00239891      -0.00138604      24.57829619        1       0.01536166       0.00887118       0.00744247
Pt       2.80721399       0.00768644      24.57860658        1       0.00000095      -0.03944368       0.01256359
Pt       5.61682746      -0.00138681      24.57829610        1      -0.01536340       0.00887491       0.00744286
Pt       1.41026428       2.42727545      24.57860654        1      -0.03416027       0.01971399       0.01256436
Pt       4.20416421       2.42727502      24.57860746        1       0.03415879       0.01971707       0.01255471
Pt       7.01803466       2.42801263      24.59073999        1       0.00000101      -0.02196322       0.00538726
Pt       2.80721358       4.86500690      24.57829589        1       0.00000488      -0.01773451       0.00744343
Pt       5.61173805       4.86378908      24.59074032        1      -0.01901619       0.01098407       0.00538759
Pt       8.42433129       4.86378932      24.59074015        1       0.01901184       0.01098389       0.00538866
N        7.01803450       4.05186435      27.96139960        0      -0.00002731      -0.00002992       0.02145121
H        6.20420190       3.58199751      27.56271034        0      -0.02237226      -0.01291172      -0.00629823
H        7.01803520       4.99159673      27.56271093        0      -0.00000923       0.02588408      -0.00631741
H        7.83186657       3.58199887      27.56271032        0       0.02240871      -0.01294325      -0.00631168
