31
Lattice="8.421641763931781 0.0 0.0 4.2108208819658905 7.293355709136913 0.0 0.0 0.0 44.584161137365626" Properties=species:S:1:pos:R:3:tags:I:1:forces:R:3 energy=-172.80453491210938 free_energy=-172.80453491210938 stress="0.010308980941772461 1.3975027357560066e-08 -1.2090922041352314e-08 1.3975027357560066e-08 0.010308969765901566 4.3939782368163094e-10 -1.2090922041352314e-08 4.3939782368163094e-10 -2.4718867280171253e-05" pbc="T T T"
Pt       1.40360696       0.81037286      20.00000000        3       0.00189831       0.00057171      -0.00842610
Pt       4.21082088       0.81037286      20.00000000        3      -0.00144373       0.00135473      -0.00842452
Pt       7.01803480       0.81037286      20.00000000        3       0.00024290       0.00310534      -0.00555515
Pt       2.80721392       3.24149143      20.00000000        3      -0.00045108      -0.00193013      -0.00842693
Pt       5.61442784       3.24149143      20.00000000        3      -0.00004902       0.00011520       0.01854715
Pt       8.42164176       3.24149143      20.00000000        3      -0.00007459      -0.00009808       0.01854685
Pt       4.21082088       5.67261000      20.00000000        3       0.00257109      -0.00176493      -0.00555530
Pt       7.01803480       5.67261000      20.00000000        3       0.00012139      -0.00001403       0.01854673
Pt       9.82524872       5.67261000      20.00000000        3      -0.00281473      -0.00133914      -0.00555545
Pt       0.00000000       1.62074571      22.29208057        2      -0.11439114       0.09611548       0.00601623
Pt       2.80721392       1.62074571      22.29208057        2       0.00000289      -0.00000290      -0.10865190
Pt       5.61442784       1.62074571      22.29208057        2       0.10751440       0.10099392       0.00855390
Pt       1.40360696       4.05186428      22.29208057        2      -0.14122653       0.04261518       0.00855198
Pt       4.21082088       4.05186428      22.29208057        2       0.14044076       0.05100471       0.00601526
Pt       7.01803480       4.05186428      22.29208057        2      -0.00000110       0.00000130       0.08440620
Pt       2.80721392       6.48298285      22.29208057        2      -0.00000046       0.00000377      -0.08292906
Pt       5.61442784       6.48298285      22.29208057        2       0.03370578      -0.14360847       0.00855362
Pt       8.42164176       6.48298285      22.29208057        2      -0.02604481      -0.14712298       0.00601846
Pt      -0.00042508      -0.00316137      24.55879036        1      -0.00014092       0.01291688       0.02385324
Pt       2.81677812       0.01234763      24.57145994        1      -0.02427101      -0.01658268      -0.01094997
Pt       5.61737788       0.00121272      24.55878963        1      -0.01111522      -0.00658183       0.02385455
Pt       1.40951844       2.41666162      24.57145970        1      -0.00222527       0.02931067      -0.01094031
Pt       4.19534612       2.43322778      24.57145999        1       0.02649112      -0.01272790      -0.01095162
Pt       7.01173454       2.40983482      24.61358877        1       0.01066977       0.00375674       0.00524068
Pt       2.80468800       4.86418565      24.55878925        1       0.01125857      -0.00633635       0.02386622
Pt       5.59914504       4.87833551      24.61358789        1      -0.00207944      -0.01111617       0.00523973
Pt       8.44322366       4.86742309      24.61358964        1      -0.00858867       0.00735976       0.00523378
N        7.01803369       4.05186414      26.95089595        0       0.00008622       0.00000217      -0.01170018
H        6.93989271       3.10630979      26.52764025        0       0.01121176       0.01349589       0.00233761
H        6.23823168       4.59231397      26.52763933        0       0.00605813      -0.01644742       0.00232118
H        7.87598065       4.45696796      26.52763982        0      -0.01735549       0.00294963       0.00236294
