31
Lattice="8.421641763931781 0.0 0.0 4.2108208819658905 7.293355709136913 0.0 0.0 0.0 44.584161137365626" Properties=species:S:1:pos:R:3:tags:I:1:forces:R:3 energy=-172.80653381347656 free_energy=-172.80653381347656 stress="0.01029182504862547 2.061538495468085e-09 -5.563892124804681e-10 2.061538495468085e-09 0.010291829705238342 -1.458311027491277e-09 -5.563892124804681e-10 -1.458311027491277e-09 2.5775103495107032e-05" pbc="T T T"
Pt       1.40360696       0.81037286      20.00000000        3       0.00000045      -0.00000231      -0.00860724
Pt       4.21082088       0.81037286      20.00000000        3      -0.00223084       0.00252647       0.00094742
Pt       7.01803480       0.81037286      20.00000000        3       0.00223104       0.00252626       0.00094658
Pt       2.80721392       3.24149143      20.00000000        3       0.00107336      -0.00319844       0.00094649
Pt       5.61442784       3.24149143      20.00000000        3      -0.00000175       0.00000024       0.03144363
Pt       8.42164176       3.24149143      20.00000000        3      -0.00107176      -0.00319733       0.00094566
Pt       4.21082088       5.67261000      20.00000000        3       0.00330840       0.00067142       0.00094712
Pt       7.01803480       5.67261000      20.00000000        3      -0.00330826       0.00067212       0.00094625
Pt       9.82524872       5.67261000      20.00000000        3      -0.00000135       0.00000233      -0.01521701
Pt       0.00000000       1.62074571      22.29208057        2      -0.13821074       0.07979460       0.02789706
Pt       2.80721392       1.62074571      22.29208057        2       0.13821270       0.07979546       0.02789586
Pt       5.61442784       1.62074571      22.29208057        2      -0.00000242       0.12209968       0.04594478
Pt       1.40360696       4.05186428      22.29208057        2       0.00000103      -0.03577074      -0.07026418
Pt       4.21082088       4.05186428      22.29208057        2       0.10574508      -0.06105113       0.04594414
Pt       7.01803480       4.05186428      22.29208057        2      -0.10574529      -0.06105044       0.04594513
Pt       2.80721392       6.48298285      22.29208057        2       0.03097880       0.01788648      -0.07026624
Pt       5.61442784       6.48298285      22.29208057        2      -0.00000234      -0.15959230       0.02789472
Pt       8.42164176       6.48298285      22.29208057        2      -0.03097752       0.01788788      -0.07026584
Pt       0.00224063       0.00129315      24.56523468        1       0.00060946       0.00035325      -0.00526205
Pt       2.80497348       0.00129323      24.56523435        1      -0.00060806       0.00035235      -0.00526208
Pt       5.61442784      -0.01027255      24.56857283        1      -0.00000186       0.00925586      -0.00448512
Pt       1.40360720       2.42853145      24.56523435        1      -0.00000222      -0.00070210      -0.00526211
Pt       4.18532966       2.41640092      24.61131498        1       0.01195822       0.00690367       0.00162531
Pt       7.04352580       2.41640104      24.61131550        1      -0.01195584       0.00690306       0.00162579
Pt       2.79831785       4.86737327      24.56857325        1       0.00801477      -0.00462925      -0.00448494
Pt       5.61442780       4.89167188      24.61131445        1       0.00000057      -0.01380776       0.00162598
Pt       8.43053739       4.86737329      24.56857333        1      -0.00801390      -0.00462885      -0.00448477
N        5.61442781       3.24149152      26.92948826        0      -0.00001156       0.00001056       0.03301385
H        5.61442784       4.19293081      26.51547643        0      -0.00000085       0.01011187      -0.01088837
H        6.43839806       2.76577231      26.51547671        0       0.00877394      -0.00506545      -0.01089520
H        4.79045755       2.76577214      26.51547649        0      -0.00876118      -0.00505726      -0.01089069
