31
Lattice="8.421641763931781 0.0 0.0 4.2108208819658905 7.293355709136913 0.0 0.0 0.0 44.584161137365626" Properties=species:S:1:pos:R:3:tags:I:1:forces:R:3 energy=-172.80886840820312 free_energy=-172.80886840820312 stress="0.010343135334551334 -4.188698454754558e-08 9.726608407589765e-10 -4.188698454754558e-08 0.010292671620845795 -4.921038225802477e-07 9.726608407589765e-10 -4.921038225802477e-07 8.422314749623183e-06" pbc="T T T"
Pt       1.40360696       0.81037286      20.00000000        3       0.00099178       0.00118480      -0.00968277
Pt       4.21082088       0.81037286      20.00000000        3      -0.00098867       0.00118634      -0.00968105
Pt       7.01803480       0.81037286      20.00000000        3      -0.00000217       0.00201436      -0.00764894
Pt       2.80721392       3.24149143      20.00000000        3       0.00000078      -0.00150622      -0.00881499
Pt       5.61442784       3.24149143      20.00000000        3      -0.00076457       0.00151032       0.01716641
Pt       8.42164176       3.24149143      20.00000000        3       0.00076361       0.00151096       0.01716563
Pt       4.21082088       5.67261000      20.00000000        3       0.00310414      -0.00226778      -0.00013304
Pt       7.01803480       5.67261000      20.00000000        3      -0.00000236      -0.00184874       0.02362013
Pt       9.82524872       5.67261000      20.00000000        3      -0.00310282      -0.00226572      -0.00013304
Pt       0.00000000       1.62074571      22.29208057        2      -0.08001685       0.08058080      -0.02290833
Pt       2.80721392       1.62074571      22.29208057        2       0.00000098       0.00402563      -0.11545090
Pt       5.61442784       1.62074571      22.29208057        2       0.08001513       0.08057677      -0.02290914
Pt       1.40360696       4.05186428      22.29208057        2      -0.15491563       0.07568888       0.02986080
Pt       4.21082088       4.05186428      22.29208057        2       0.15491471       0.07568327       0.02984856
Pt       7.01803480       4.05186428      22.29208057        2       0.00000129       0.03500521       0.08498189
Pt       2.80721392       6.48298285      22.29208057        2      -0.00000523      -0.01605147      -0.06293973
Pt       5.61442784       6.48298285      22.29208057        2       0.01797101      -0.16558450       0.01989893
Pt       8.42164176       6.48298285      22.29208057        2      -0.01796499      -0.16558602       0.01991140
Pt      -0.00383042       0.00231151      24.56366415        1       0.00767879      -0.00902860       0.00247970
Pt       2.80721329       0.01621298      24.56554100        1       0.00000962       0.00299914       0.01330410
Pt       5.61825995       0.00231328      24.56366548        1      -0.00769017      -0.00904651       0.00246853
Pt       1.41052422       2.42820803      24.56870294        1      -0.00122283      -0.00156732       0.00529663
Pt       4.20390381       2.42820908      24.56870360        1       0.00122282      -0.00157870       0.00529756
Pt       7.01803451       2.40908083      24.60324879        1       0.00000208       0.00122000       0.01186151
Pt       2.80721626       4.86097907      24.56180436        1      -0.00002269       0.01348110       0.00301585
Pt       5.59590810       4.87109616      24.62481965        1      -0.00089135       0.00053240      -0.00746599
Pt       8.44015913       4.87109506      24.62482246        1       0.00091908       0.00054622      -0.00750221
N        7.01803184       4.27635979      26.94625040        0      -0.00000958       0.02830480       0.01648670
H        7.01804097       3.36259397      26.45243521        0      -0.00007728      -0.00818390      -0.02127104
H        6.19631043       4.78219834      26.56311575        0      -0.00374711      -0.01083481      -0.00307243
H        7.83975459       4.78218972      26.56311360        0       0.00382856      -0.01070049      -0.00305054
