31
Lattice="8.421641763931781 0.0 0.0 4.2108208819658905 7.293355709136913 0.0 0.0 0.0 44.584161137365626" Properties=species:S:1:pos:R:3:tags:I:1:forces:R:3 energy=-172.79322814941406 free_energy=-172.79322814941406 stress="0.01025571022182703 2.346629335292505e-09 2.3670347903959055e-09 2.346629335292505e-09 0.010255718603730202 -1.1318235237922636e-09 2.3670347903959055e-09 -1.1318235237922636e-09 -4.672193608712405e-05" pbc="T T T"
Pt       1.40360696       0.81037286      20.00000000        3       0.00000085      -0.00000262      -0.00486174
Pt       4.21082088       0.81037286      20.00000000        3      -0.00227652       0.00266029       0.00166762
Pt       7.01803480       0.81037286      20.00000000        3       0.00290402       0.00139631       0.00231403
Pt       2.80721392       3.24149143      20.00000000        3      -0.00024150      -0.00321587       0.00231272
Pt       5.61442784       3.24149143      20.00000000        3      -0.00000182       0.00000002       0.03026184
Pt       8.42164176       3.24149143      20.00000000        3      -0.00116482      -0.00330404       0.00166538
Pt       4.21082088       5.67261000      20.00000000        3       0.00344709       0.00064389       0.00166714
Pt       7.01803480       5.67261000      20.00000000        3      -0.00266592       0.00181981       0.00231257
Pt       9.82524872       5.67261000      20.00000000        3      -0.00000089       0.00000272      -0.01544541
Pt       0.00000000       1.62074571      22.29208057        2      -0.13467932       0.06624798       0.03022395
Pt       2.80721392       1.62074571      22.29208057        2       0.12471320       0.08350907       0.03021995
Pt       5.61442784       1.62074571      22.29208057        2      -0.00400543       0.11404087       0.03495286
Pt       1.40360696       4.05186428      22.29208057        2       0.00719866      -0.04541023      -0.07373677
Pt       4.21082088       4.05186428      22.29208057        2       0.10076928      -0.05355264       0.03495097
Pt       7.01803480       4.05186428      22.29208057        2      -0.09676337      -0.06049241       0.03495336
Pt       2.80721392       6.48298285      22.29208057        2       0.03572717       0.02894070      -0.07373632
Pt       5.61442784       6.48298285      22.29208057        2       0.00996374      -0.14975786       0.03021866
Pt       8.42164176       6.48298285      22.29208057        2      -0.04292365       0.01647383      -0.07373810
Pt       0.00873017      -0.00866321      24.56865854        1      -0.01408947       0.02865386      -0.02491482
Pt       2.81035133       0.01189156      24.56865799        1      -0.01776990      -0.02652699      -0.02491398
Pt       5.60391736      -0.01354419      24.56854467        1       0.02910019       0.03360543      -0.00102377
Pt       1.39173993       2.42788949      24.56865812        1       0.03185591      -0.00212580      -0.02491400
Pt       4.17594189       2.43083558      24.60715486        1       0.00514873      -0.02171135      -0.00091737
Pt       7.03571885       2.40105376      24.60715613        1       0.01623214       0.01531448      -0.00092959
Pt       2.80073967       4.87811103      24.56854489        1       0.01455338      -0.04200134      -0.00102268
Pt       5.63162242       4.89258486      24.60715550        1      -0.02137645       0.00639594      -0.00091689
Pt       8.43862625       4.85990692      24.56854457        1      -0.04365392       0.00839604      -0.00102131
N        5.61442795       3.24149165      26.89807517        0      -0.00000863       0.00000345       0.02239016
H        5.84754985       4.15848388      26.46326870        0      -0.02891770      -0.00174168       0.02065975
H        6.29200555       2.58110584      26.46326839        0       0.01295374       0.02591032       0.02066145
H        4.70372819       2.98488488      26.46326886        0       0.01597132      -0.02417209       0.02066044
