31
Lattice="8.421641763931781 0.0 0.0 4.2108208819658905 7.293355709136913 0.0 0.0 0.0 44.584161137365626" Properties=species:S:1:pos:R:3:tags:I:1:forces:R:3 energy=-172.8042755126953 free_energy=-172.8042755126953 stress="0.010287939570844173 -6.233191740534494e-09 -5.0143045271511255e-09 -6.233191740534494e-09 0.010287952609360218 -2.06775457867181e-10 -5.0143045271511255e-09 -2.06775457867181e-10 2.5794706743909046e-05" pbc="T T T"
Pt       1.40360696       0.81037286      20.00000000        3       0.00000086      -0.00000226      -0.01219100
Pt       4.21082088       0.81037286      20.00000000        3      -0.00218428       0.00302534       0.00097659
Pt       7.01803480       0.81037286      20.00000000        3       0.00197810       0.00239079       0.00095329
Pt       2.80721392       3.24149143      20.00000000        3       0.00108223      -0.00291248       0.00095206
Pt       5.61442784       3.24149143      20.00000000        3      -0.00000176      -0.00000027       0.03240690
Pt       8.42164176       3.24149143      20.00000000        3      -0.00152704      -0.00340676       0.00097430
Pt       4.21082088       5.67261000      20.00000000        3       0.00371778       0.00038142       0.00097474
Pt       7.01803480       5.67261000      20.00000000        3      -0.00306470       0.00052167       0.00095177
Pt       9.82524872       5.67261000      20.00000000        3      -0.00000131       0.00000300      -0.01432961
Pt       0.00000000       1.62074571      22.29208057        2      -0.14878947       0.08583677       0.01205959
Pt       2.80721392       1.62074571      22.29208057        2       0.14873138       0.08593382       0.01205889
Pt       5.61442784       1.62074571      22.29208057        2      -0.00261193       0.12159082       0.04922353
Pt       1.40360696       4.05186428      22.29208057        2       0.00523439      -0.02982079      -0.07348245
Pt       4.21082088       4.05186428      22.29208057        2       0.10661480      -0.05853606       0.04921918
Pt       7.01803480       4.05186428      22.29208057        2      -0.10400061      -0.06305926       0.04922449
Pt       2.80721392       6.48298285      22.29208057        2       0.02320285       0.01944918      -0.07348286
Pt       5.61442784       6.48298285      22.29208057        2       0.00005849      -0.17177451       0.01205735
Pt       8.42164176       6.48298285      22.29208057        2      -0.02843988       0.01037964      -0.07348077
Pt       0.00377079       0.00392252      24.56071236        1      -0.01566190      -0.02143802       0.02083948
Pt       2.80193110       0.00130312      24.56071461        1       0.02639751      -0.00283823       0.02083026
Pt       5.60582032      -0.01200329      24.56953932        1       0.02005380       0.02605894      -0.00908145
Pt       1.40511880       2.42589128      24.56071409        1      -0.01073583       0.02428119       0.02082944
Pt       4.18209323       2.42267608      24.61256639        1       0.02813260       0.00079545       0.01038355
Pt       7.03971004       2.41046109      24.61256716        1      -0.01475606       0.02396277       0.01037230
Pt       2.80112274       4.87569287      24.56953565        1       0.01253981      -0.03039403      -0.00906040
Pt       5.62148026       4.89133672      24.61256778        1      -0.01337729      -0.02476163       0.01037399
Pt       8.43634070       4.86078518      24.56953835        1      -0.03259199       0.00433372      -0.00907019
N        5.61442805       3.24149133      26.94051168        0       0.00003817       0.00000666      -0.04888299
H        4.75111096       2.84439248      26.52021751        0       0.02392784      -0.00127332       0.00245323
H        5.70218754       4.18769624      26.52021832        0      -0.01306213      -0.02011740       0.00246950
H        6.38998534       2.69238669      26.52021607        0      -0.01090455       0.02138377       0.00247729
