31
Lattice="8.421641763931781 0.0 0.0 4.2108208819658905 7.293355709136913 0.0 0.0 0.0 44.584161137365626" Properties=species:S:1:pos:R:3:tags:I:1:forces:R:3 energy=-172.79193115234375 free_energy=-172.79193115234375 stress="0.01031012274324894 -2.33710673036569e-09 8.815164154185595e-10 -2.33710673036569e-09 0.010310139507055283 2.856766212477879e-10 8.815164154185595e-10 2.856766212477879e-10 -5.319209230947308e-05" pbc="T T T"
Pt       1.40360696       0.81037286      20.00000000        3       0.00150311       0.00007889      -0.00642732
Pt       4.21082088       0.81037286      20.00000000        3      -0.00081991       0.00125884      -0.00642669
Pt       7.01803480       0.81037286      20.00000000        3      -0.00027031       0.00262358      -0.00198215
Pt       2.80721392       3.24149143      20.00000000        3      -0.00067927      -0.00134273      -0.00642887
Pt       5.61442784       3.24149143      20.00000000        3      -0.00057025       0.00048104       0.01711223
Pt       8.42164176       3.24149143      20.00000000        3      -0.00013085      -0.00073207       0.01711237
Pt       4.21082088       5.67261000      20.00000000        3       0.00241047      -0.00107880      -0.00198215
Pt       7.01803480       5.67261000      20.00000000        3       0.00069836       0.00025414       0.01711312
Pt       9.82524872       5.67261000      20.00000000        3      -0.00214125      -0.00154238      -0.00198203
Pt       0.00000000       1.62074571      22.29208057        2      -0.11871295       0.08205438       0.00726105
Pt       2.80721392       1.62074571      22.29208057        2       0.00000007      -0.00000158      -0.12335895
Pt       5.61442784       1.62074571      22.29208057        2       0.10593715       0.07567444       0.01753196
Pt       1.40360696       4.05186428      22.29208057        2      -0.11850864       0.05390901       0.01753515
Pt       4.21082088       4.05186428      22.29208057        2       0.13042244       0.06178095       0.00725963
Pt       7.01803480       4.05186428      22.29208057        2      -0.00000089       0.00000105       0.07267270
Pt       2.80721392       6.48298285      22.29208057        2      -0.00000069       0.00000115      -0.04817891
Pt       5.61442784       6.48298285      22.29208057        2       0.01256746      -0.12958288       0.01753115
Pt       8.42164176       6.48298285      22.29208057        2      -0.01170386      -0.14383765       0.00726030
Pt      -0.00823442       0.00938956      24.56825782        1       0.01508290      -0.02342868      -0.02906701
Pt       2.81593217       0.01462065      24.57019401        1      -0.02185434      -0.03447055      -0.00114614
Pt       5.61041310      -0.01182699      24.56825739        1       0.01274982       0.02477771      -0.02906637
Pt       1.41191015       2.41625790      24.57019384        1      -0.01892572       0.03616150      -0.00114581
Pt       4.19379993       2.43135799      24.57019390        1       0.04077845      -0.00169138      -0.00114678
Pt       6.99975050       2.40891794      24.60961032        1       0.02603379      -0.01960877      -0.00390570
Pt       2.81946374       4.86467351      24.56825850        1      -0.02783610      -0.00134767      -0.02906589
Pt       5.60434333       4.88917170      24.60960973        1      -0.02999604      -0.01274142      -0.00390448
Pt       8.45000926       4.85750318      24.60961069        1       0.00396763       0.03235067      -0.00391479
N        7.01803451       4.05186413      26.91369034        0      -0.00000728       0.00000059       0.03992248
H        6.34199082       4.71230523      26.47645013        0      -0.01104636      -0.03060301       0.02027284
H        7.92801431       4.30711455      26.47645084        0      -0.02095881       0.02487134       0.02027359
H        6.78409901       3.13617273      26.47645021        0       0.03201203       0.00573030       0.02027162
