31
Lattice="8.421641763931781 0.0 0.0 4.2108208819658905 7.293355709136913 0.0 0.0 0.0 44.584161137365626" Properties=species:S:1:pos:R:3:tags:I:1:forces:R:3 energy=-172.8042755126953 free_energy=-172.8042755126953 stress="0.010287918150424957 3.349218236081697e-09 2.5125939107084605e-09 3.349218236081697e-09 0.0102879349142313 -1.7739156810137047e-09 2.5125939107084605e-09 -1.7739156810137047e-09 2.5741623176145367e-05" pbc="T T T"
Pt       1.40360696       0.81037286      20.00000000        3       0.00000087      -0.00000283      -0.01219180
Pt       4.21082088       0.81037286      20.00000000        3      -0.00218403       0.00302564       0.00097635
Pt       7.01803480       0.81037286      20.00000000        3       0.00197827       0.00239077       0.00095242
Pt       2.80721392       3.24149143      20.00000000        3       0.00108243      -0.00291186       0.00095305
Pt       5.61442784       3.24149143      20.00000000        3      -0.00000216       0.00000016       0.03240573
Pt       8.42164176       3.24149143      20.00000000        3      -0.00152675      -0.00340725       0.00097397
Pt       4.21082088       5.67261000      20.00000000        3       0.00371706       0.00038143       0.00097466
Pt       7.01803480       5.67261000      20.00000000        3      -0.00306474       0.00052143       0.00095201
Pt       9.82524872       5.67261000      20.00000000        3      -0.00000136       0.00000228      -0.01433104
Pt       0.00000000       1.62074571      22.29208057        2      -0.14878564       0.08583888       0.01205638
Pt       2.80721392       1.62074571      22.29208057        2       0.14873181       0.08593675       0.01206061
Pt       5.61442784       1.62074571      22.29208057        2      -0.00261517       0.12159404       0.04921625
Pt       1.40360696       4.05186428      22.29208057        2       0.00523727      -0.02982494      -0.07348929
Pt       4.21082088       4.05186428      22.29208057        2       0.10661179      -0.05853731       0.04921749
Pt       7.01803480       4.05186428      22.29208057        2      -0.10400157      -0.06305965       0.04921701
Pt       2.80721392       6.48298285      22.29208057        2       0.02320699       0.01944575      -0.07349555
Pt       5.61442784       6.48298285      22.29208057        2       0.00005702      -0.17177352       0.01205220
Pt       8.42164176       6.48298285      22.29208057        2      -0.02844321       0.01038011      -0.07349242
Pt       0.00376888       0.00392335      24.56071090        1      -0.01564670      -0.02143642       0.02084959
Pt       2.80193148       0.00130141      24.56071287        1       0.02639221      -0.00282743       0.02083865
Pt       5.60582120      -0.01200454      24.56953649        1       0.02004588       0.02606998      -0.00906228
Pt       1.40511980       2.42589241      24.56071393        1      -0.01073592       0.02427026       0.02082936
Pt       4.18209491       2.42267605      24.61256579        1       0.02811746       0.00078884       0.01037820
Pt       7.03970864       2.41046266      24.61256547        1      -0.01474502       0.02395816       0.01037930
Pt       2.80112113       4.87569387      24.56953593        1       0.01255256      -0.03040401      -0.00906108
Pt       5.62147954       4.89133581      24.61256542        1      -0.01337863      -0.02475098       0.01037881
Pt       8.43634145       4.86078503      24.56953545        1      -0.03260086       0.00433194      -0.00905919
N        5.61442804       3.24149156      26.94050985        0      -0.00001763      -0.00000835      -0.04889259
H        6.38999943       2.69240270      26.52022034        0      -0.01090956       0.02138964       0.00246904
H        4.75111703       2.84437011      26.52021969        0       0.02399299      -0.00123052       0.00247618
H        5.70216650       4.18770063      26.52021957        0      -0.01306589      -0.02015047       0.00246804
