31
Lattice="8.421641763931781 0.0 0.0 4.2108208819658905 7.293355709136913 0.0 0.0 0.0 44.584161137365626" Properties=species:S:1:pos:R:3:tags:I:1:forces:R:3 energy=-172.5789794921875 free_energy=-172.5789794921875 stress="0.01047308836132288 8.946098861706275e-10 3.3410558764046527e-09 8.946098861706275e-10 0.010473082773387432 -2.66631494660885e-10 3.3410558764046527e-09 -2.66631494660885e-10 -0.0002002339024329558" pbc="T T T"
Pt       1.40360696       0.81037286      20.00000000        3       0.00000059      -0.00000215      -0.00540191
Pt       4.21082088       0.81037286      20.00000000        3      -0.00074425       0.00084712      -0.00204471
Pt       7.01803480       0.81037286      20.00000000        3       0.00079399       0.00067941      -0.00220045
Pt       2.80721392       3.24149143      20.00000000        3       0.00019258      -0.00103002      -0.00220051
Pt       5.61442784       3.24149143      20.00000000        3      -0.00000185      -0.00000028       0.00783727
Pt       8.42164176       3.24149143      20.00000000        3      -0.00036031      -0.00106985      -0.00204626
Pt       4.21082088       5.67261000      20.00000000        3       0.00111064       0.00022315      -0.00204504
Pt       7.01803480       5.67261000      20.00000000        3      -0.00099048       0.00035117      -0.00220126
Pt       9.82524872       5.67261000      20.00000000        3      -0.00000119       0.00000239      -0.00681749
Pt       0.00000000       1.62074571      22.29208057        2      -0.03240077       0.01846222      -0.02422088
Pt       2.80721392       1.62074571      22.29208057        2       0.03219139       0.01882894      -0.02422166
Pt       5.61442784       1.62074571      22.29208057        2      -0.00152934       0.04198220       0.02925797
Pt       1.40360696       4.05186428      22.29208057        2      -0.00078313      -0.01329055      -0.03097403
Pt       4.21082088       4.05186428      22.29208057        2       0.03712288      -0.01966895       0.02926038
Pt       7.01803480       4.05186428      22.29208057        2      -0.03559576      -0.02231287       0.02926068
Pt       2.80721392       6.48298285      22.29208057        2       0.01190398       0.00596539      -0.03097680
Pt       5.61442784       6.48298285      22.29208057        2       0.00020996      -0.03729289      -0.02422227
Pt       8.42164176       6.48298285      22.29208057        2      -0.01111787       0.00732626      -0.03097716
Pt       0.00192659       0.00033106      24.57723228        1      -0.00364906      -0.00613041      -0.00424162
Pt       2.80596398       0.00150246      24.57723220        1       0.00713276      -0.00009514      -0.00424233
Pt       5.61385813      -0.00636832      24.57875337        1      -0.00299069       0.01932062      -0.00732249
Pt       1.40293081       2.42928454      24.57723243        1      -0.00348313       0.00622454      -0.00424209
Pt       4.19613078       2.42546243      24.58945439        1       0.01929929       0.01753172       0.00628403
Pt       7.03027802       2.42122457      24.58945459        1      -0.02483333       0.00794681       0.00628451
Pt       2.80198374       4.86591455      24.57875356        1       0.01822746      -0.00706888      -0.00733179
Pt       5.61687454       4.87778734      24.58945439        1       0.00553320      -0.02547933       0.00628346
Pt       8.42744142       4.86492832      24.57875369        1      -0.01523728      -0.01225088      -0.00733140
N        5.61442799       3.24149120      27.59559742        0      -0.00001474       0.00000778       0.00371620
H        6.09116562       2.42587679      27.19906559        0       0.00925341       0.03346901       0.03568900
H        4.66971577       3.23643182      27.19906541        0       0.02437690      -0.02474824       0.03569625
H        6.08240208       4.06216583      27.19906535        0      -0.03361588      -0.00872819       0.03569228
