31
Lattice="8.421641763931781 0.0 0.0 4.2108208819658905 7.293355709136913 0.0 0.0 0.0 44.584161137365626" Properties=species:S:1:pos:R:3:tags:I:1:forces:R:3 energy=-172.76148986816406 free_energy=-172.76148986816406 stress="0.010289761237800121 -1.7941334590432234e-05 -0.00014318522880785167 -1.7941334590432234e-05 0.010455887764692307 2.1186322101129917e-06 -0.00014318522880785167 2.1186322101129917e-06 3.076834400417283e-05" pbc="T T T"
Pt       1.40360696       0.81037286      20.00000000        3       0.00350869       0.00066626       0.00238028
Pt       4.21082088       0.81037286      20.00000000        3      -0.00218583       0.00061620       0.00321966
Pt       7.01803480       0.81037286      20.00000000        3       0.00083659       0.00284104      -0.00485504
Pt       2.80721392       3.24149143      20.00000000        3       0.00090319      -0.00002991      -0.00353965
Pt       5.61442784       3.24149143      20.00000000        3      -0.00146566       0.00183437       0.01590478
Pt       8.42164176       3.24149143      20.00000000        3       0.00228648       0.00241109       0.01940858
Pt       4.21082088       5.67261000      20.00000000        3       0.00348758      -0.00157620       0.00172219
Pt       7.01803480       5.67261000      20.00000000        3       0.00195062      -0.00240364       0.03659683
Pt       9.82524872       5.67261000      20.00000000        3      -0.00199661      -0.00220045       0.00399712
Pt       0.00000000       1.62074571      22.29208057        2      -0.02897205       0.06047329      -0.03392118
Pt       2.80721392       1.62074571      22.29208057        2      -0.01690215      -0.06630216      -0.05669808
Pt       5.61442784       1.62074571      22.29208057        2      -0.00069769       0.04354798      -0.04282047
Pt       1.40360696       4.05186428      22.29208057        2      -0.18250187       0.07137389       0.06492554
Pt       4.21082088       4.05186428      22.29208057        2       0.11816817       0.05243380       0.01836104
Pt       7.01803480       4.05186428      22.29208057        2       0.02830755       0.06735490       0.02686783
Pt       2.80721392       6.48298285      22.29208057        2      -0.01797808      -0.01324560      -0.05894205
Pt       5.61442784       6.48298285      22.29208057        2       0.03652027      -0.09004487      -0.01966933
Pt       8.42164176       6.48298285      22.29208057        2      -0.05331639      -0.12697217       0.02739367
Pt      -0.02980907       0.00975766      24.57063977        1      -0.00260059       0.00682496      -0.00686970
Pt       2.77876466      -0.01586902      24.60179919        1       0.01504567       0.03898433       0.00962354
Pt       5.60391421       0.00627081      24.57091274        1      -0.00372674      -0.00178949      -0.01212826
Pt       1.39503568       2.41224973      24.57390713        1       0.00815212       0.01363099      -0.02148557
Pt       4.18120136       2.41098368      24.57289334        1      -0.02225953      -0.00303455      -0.01404589
Pt       6.98930504       2.43565457      24.60072342        1       0.01823840      -0.01235153       0.01102151
Pt       2.79800554       4.85843484      24.55895322        1      -0.00364535      -0.01374037       0.00541757
Pt       5.56164987       4.85389400      24.61622836        1       0.00414179      -0.01563924       0.00467254
Pt       8.45328456       4.85352761      24.62803514        1       0.01854208      -0.01474074      -0.01593702
N        7.00396510       4.87508716      26.87165478        0       0.03199627       0.00018735       0.02699608
H        8.00072953       4.87025127      26.56866935        0       0.00439401      -0.00255913       0.01815081
H        6.63752059       4.05406559      26.33079333        0       0.02118661       0.01855063      -0.00593156
H        6.64501118       5.69696678      26.32759776        0       0.02058253      -0.01510115       0.00018409
