31
Lattice="8.421641763931781 0.0 0.0 4.2108208819658905 7.293355709136913 0.0 0.0 0.0 44.584161137365626" Properties=species:S:1:pos:R:3:tags:I:1:forces:R:3 energy=-172.64569091796875 free_energy=-172.64569091796875 stress="0.010564305819571018 -2.507368312976155e-09 -3.645777679750495e-09 -2.507368312976155e-09 0.010564316995441914 -6.136605890105784e-09 -3.645777679750495e-09 -6.136605890105784e-09 0.00012951192911714315" pbc="T T T"
Pt       1.40360696       0.81037286      20.00000000        3       0.00160782       0.00092547       0.00035661
Pt       4.21082088       0.81037286      20.00000000        3      -0.00160517       0.00092623       0.00035682
Pt       7.01803480       0.81037286      20.00000000        3      -0.00000222       0.00392988       0.00387099
Pt       2.80721392       3.24149143      20.00000000        3       0.00000051      -0.00185628       0.00035587
Pt       5.61442784       3.24149143      20.00000000        3       0.00078654       0.00045518       0.03163338
Pt       8.42164176       3.24149143      20.00000000        3      -0.00078705       0.00045584       0.03163293
Pt       4.21082088       5.67261000      20.00000000        3       0.00340685      -0.00196442       0.00387070
Pt       7.01803480       5.67261000      20.00000000        3      -0.00000232      -0.00090811       0.03163305
Pt       9.82524872       5.67261000      20.00000000        3      -0.00340592      -0.00196324       0.00387001
Pt       0.00000000       1.62074571      22.29208057        2      -0.08638641       0.08268717       0.00364464
Pt       2.80721392       1.62074571      22.29208057        2       0.00000105      -0.00000155      -0.05205314
Pt       5.61442784       1.62074571      22.29208057        2       0.08638573       0.08268816       0.00364318
Pt       1.40360696       4.05186428      22.29208057        2      -0.11480384       0.03346822       0.00364362
Pt       4.21082088       4.05186428      22.29208057        2       0.11480713       0.03346872       0.00364412
Pt       7.01803480       4.05186428      22.29208057        2      -0.00000299       0.00000047       0.03507128
Pt       2.80721392       6.48298285      22.29208057        2       0.00000060       0.00000187      -0.05437831
Pt       5.61442784       6.48298285      22.29208057        2       0.02841632      -0.11615798       0.00364254
Pt       8.42164176       6.48298285      22.29208057        2      -0.02841716      -0.11615524       0.00364253
Pt      -0.00256064      -0.00147880      24.56614484        1       0.00538282       0.00310747      -0.00713795
Pt       2.80721396       0.00400317      24.58142011        1       0.00000023       0.01598208      -0.00494778
Pt       5.61698869      -0.00147892      24.56614486        1      -0.00538225       0.00310857      -0.00713724
Pt       1.40707428       2.42911658      24.58142036        1       0.01384100      -0.00799085      -0.00494678
Pt       4.20735392       2.42911652      24.58141997        1      -0.01384150      -0.00798965      -0.00494702
Pt       7.01803472       2.40793831      24.63180223        1       0.00000013       0.01428499      -0.00863862
Pt       2.80721369       4.86519441      24.56614508        1       0.00000176      -0.00621720      -0.00713670
Pt       5.59435337       4.87382697      24.63180198        1       0.01237154      -0.00714233      -0.00863868
Pt       8.44171586       4.87382714      24.63180200        1      -0.01237272      -0.00714293      -0.00863710
N        7.01803440       4.05186318      26.88131990        0       0.00001673       0.00004587       0.03621510
H        7.01803491       4.97044631      26.36859460        0      -0.00000215       0.00311148      -0.01069406
H        7.81355062       3.59257372      26.36859524        0       0.00271317      -0.00157599      -0.01071212
H        6.22251935       3.59257357      26.36859515        0      -0.00272827      -0.00158214      -0.01072210
