31
Lattice="8.421641763931781 0.0 0.0 4.2108208819658905 7.293355709136913 0.0 0.0 0.0 44.584161137365626" Properties=species:S:1:pos:R:3:tags:I:1:forces:R:3 energy=-172.80076599121094 free_energy=-172.80076599121094 stress="0.010380414314568043 8.783875848905609e-09 2.872410309606721e-09 8.783875848905609e-09 0.010380434803664684 -1.1518208609118119e-08 2.872410309606721e-09 -1.1518208609118119e-08 0.00013812643010169268" pbc="T T T"
Pt       1.40360696       0.81037286      20.00000000        3       0.00000059      -0.00000261      -0.00917086
Pt       4.21082088       0.81037286      20.00000000        3      -0.00208414       0.00282867       0.00179338
Pt       7.01803480       0.81037286      20.00000000        3       0.00175503       0.00301187       0.00177944
Pt       2.80721392       3.24149143      20.00000000        3       0.00173233      -0.00302944       0.00177932
Pt       5.61442784       3.24149143      20.00000000        3      -0.00000232       0.00000002       0.03522882
Pt       8.42164176       3.24149143      20.00000000        3      -0.00140651      -0.00322167       0.00179076
Pt       4.21082088       5.67261000      20.00000000        3       0.00349647       0.00039317       0.00179279
Pt       7.01803480       5.67261000      20.00000000        3      -0.00349121       0.00001766       0.00177908
Pt       9.82524872       5.67261000      20.00000000        3      -0.00000111       0.00000265      -0.01458415
Pt       0.00000000       1.62074571      22.29208057        2      -0.13852042       0.08505661       0.03907223
Pt       2.80721392       1.62074571      22.29208057        2       0.14292529       0.07743266       0.03907303
Pt       5.61442784       1.62074571      22.29208057        2       0.00084694       0.12743622       0.05054604
Pt       1.40360696       4.05186428      22.29208057        2      -0.00004083      -0.03188354      -0.06163592
Pt       4.21082088       4.05186428      22.29208057        2       0.10994238      -0.06445622       0.05054572
Pt       7.01803480       4.05186428      22.29208057        2      -0.11079245      -0.06298360       0.05054668
Pt       2.80721392       6.48298285      22.29208057        2       0.02763264       0.01590702      -0.06163706
Pt       5.61442784       6.48298285      22.29208057        2      -0.00440420      -0.16249162       0.03906876
Pt       8.42164176       6.48298285      22.29208057        2      -0.02758957       0.01598146      -0.06163659
Pt      -0.00140070       0.00421353      24.56545425        1       0.02554454      -0.01177294      -0.00534180
Pt       2.80426477      -0.00332095      24.56545454        1      -0.00257193       0.02801770      -0.00534144
Pt       5.61297276      -0.00628189      24.56941808        1      -0.00358921      -0.02452423      -0.00742894
Pt       1.40795670       2.43022493      24.56545463        1      -0.02296846      -0.01623612      -0.00534075
Pt       4.18802962       2.41475555      24.61814458        1      -0.00376103       0.01515220      -0.00881885
Pt       7.04360123       2.41956174      24.61814441        1      -0.01124589      -0.01083112      -0.00881596
Pt       2.80250162       4.86663802      24.56941879        1      -0.01944666       0.01536780      -0.00742680
Pt       5.61165248       4.89015653      24.61814405        1       0.01500469      -0.00432667      -0.00881522
Pt       8.42780912       4.86411752      24.56941845        1       0.02303457       0.00915410      -0.00742660
N        5.61442791       3.24149115      26.94316365        0      -0.00003067       0.00007510      -0.00880828
H        6.34537853       2.63568517      26.52136353        0       0.00891596       0.02312807      -0.01087641
H        4.72430864       2.91137325      26.52136323        0       0.01561853      -0.01927327      -0.01085353
H        5.77359717       4.17741799      26.52136312        0      -0.02450336      -0.00392993      -0.01083669
