31
Lattice="8.421641763931781 0.0 0.0 4.2108208819658905 7.293355709136913 0.0 0.0 0.0 44.584161137365626" Properties=species:S:1:pos:R:3:tags:I:1:forces:R:3 energy=-172.80076599121094 free_energy=-172.80076599121094 stress="0.010380472987890244 1.052990405980836e-08 9.318499305521755e-10 1.052990405980836e-08 0.010380474850535393 9.457256311407036e-09 9.318499305521755e-10 9.457256311407036e-09 0.0001381530164508149" pbc="T T T"
Pt       1.40360696       0.81037286      20.00000000        3       0.00000137      -0.00000237      -0.00917146
Pt       4.21082088       0.81037286      20.00000000        3      -0.00175568       0.00301251       0.00177962
Pt       7.01803480       0.81037286      20.00000000        3       0.00208443       0.00282872       0.00179201
Pt       2.80721392       3.24149143      20.00000000        3       0.00140845      -0.00322243       0.00179172
Pt       5.61442784       3.24149143      20.00000000        3      -0.00000173       0.00000020       0.03522918
Pt       8.42164176       3.24149143      20.00000000        3      -0.00173024      -0.00302814       0.00177857
Pt       4.21082088       5.67261000      20.00000000        3       0.00349130       0.00001579       0.00178021
Pt       7.01803480       5.67261000      20.00000000        3      -0.00349660       0.00039420       0.00179166
Pt       9.82524872       5.67261000      20.00000000        3      -0.00000132       0.00000236      -0.01458317
Pt       0.00000000       1.62074571      22.29208057        2      -0.14292441       0.07743403       0.03908056
Pt       2.80721392       1.62074571      22.29208057        2       0.13852295       0.08505767       0.03907623
Pt       5.61442784       1.62074571      22.29208057        2      -0.00085171       0.12743884       0.05054688
Pt       1.40360696       4.05186428      22.29208057        2       0.00004204      -0.03187962      -0.06162897
Pt       4.21082088       4.05186428      22.29208057        2       0.11079329      -0.06298019       0.05054991
Pt       7.01803480       4.05186428      22.29208057        2      -0.10994259      -0.06445618       0.05055073
Pt       2.80721392       6.48298285      22.29208057        2       0.02759091       0.01597530      -0.06163257
Pt       5.61442784       6.48298285      22.29208057        2       0.00440009      -0.16249529       0.03907759
Pt       8.42164176       6.48298285      22.29208057        2      -0.02762960       0.01590483      -0.06163207
Pt       0.00294866      -0.00332153      24.56545465        1       0.00258204       0.02801654      -0.00534192
Pt       2.80861624       0.00421352      24.56545485        1      -0.02555136      -0.01176963      -0.00534216
Pt       5.61588328      -0.00628059      24.56941874        1       0.00358246      -0.02453610      -0.00742875
Pt       1.39925701       2.43022599      24.56545472        1       0.02296510      -0.01624554      -0.00534213
Pt       4.18525325       2.41956460      24.61814541        1       0.01124363      -0.01084501      -0.00882366
Pt       7.04082463       2.41475347      24.61814623        1       0.00377318       0.01515582      -0.00883226
Pt       2.80104766       4.86411713      24.56941955        1      -0.02304138       0.00916320      -0.00743854
Pt       5.61720582       4.89015603      24.61814607        1      -0.01501430      -0.00431256      -0.00883540
Pt       8.42635268       4.86663746      24.56941955        1       0.01945956       0.01537392      -0.00743729
N        5.61442760       3.24149248      26.94315692        0      -0.00000104      -0.00004999      -0.00881127
H        5.45526249       4.17741998      26.52136075        0       0.02448715      -0.00390343      -0.01085947
H        6.50454846       2.91137092      26.52135984        0      -0.01564820      -0.01925826      -0.01084414
H        4.88347414       2.63568460      26.52135860        0      -0.00883777       0.02321079      -0.01083972
