31
Lattice="8.421641763931781 0.0 0.0 4.2108208819658905 7.293355709136913 0.0 0.0 0.0 44.584161137365626" Properties=species:S:1:pos:R:3:tags:I:1:forces:R:3 energy=-172.79322814941406 free_energy=-172.79322814941406 stress="0.01025571022182703 3.5233449491300917e-10 5.550288562083949e-10 3.5233449491300917e-10 0.010255706496536732 5.965199445512326e-10 5.550288562083949e-10 5.965199445512326e-10 -4.673460352933034e-05" pbc="T T T"
Pt       1.40360696       0.81037286      20.00000000        3       0.00000038      -0.00000230      -0.00486022
Pt       4.21082088       0.81037286      20.00000000        3      -0.00290347       0.00139640       0.00231460
Pt       7.01803480       0.81037286      20.00000000        3       0.00227674       0.00265986       0.00166658
Pt       2.80721392       3.24149143      20.00000000        3       0.00116612      -0.00330466       0.00166610
Pt       5.61442784       3.24149143      20.00000000        3      -0.00000132       0.00000002       0.03026173
Pt       8.42164176       3.24149143      20.00000000        3       0.00024327      -0.00321516       0.00231269
Pt       4.21082088       5.67261000      20.00000000        3       0.00266563       0.00181888       0.00231358
Pt       7.01803480       5.67261000      20.00000000        3      -0.00344705       0.00064456       0.00166610
Pt       9.82524872       5.67261000      20.00000000        3      -0.00000133       0.00000264      -0.01544502
Pt       0.00000000       1.62074571      22.29208057        2      -0.12471022       0.08350786       0.03022238
Pt       2.80721392       1.62074571      22.29208057        2       0.13467883       0.06624606       0.03022137
Pt       5.61442784       1.62074571      22.29208057        2       0.00400320       0.11403987       0.03494775
Pt       1.40360696       4.05186428      22.29208057        2      -0.00719742      -0.04540822      -0.07373578
Pt       4.21082088       4.05186428      22.29208057        2       0.09676240      -0.06048970       0.03494792
Pt       7.01803480       4.05186428      22.29208057        2      -0.10076857      -0.05355177       0.03494845
Pt       2.80721392       6.48298285      22.29208057        2       0.04292435       0.01647182      -0.07373532
Pt       5.61442784       6.48298285      22.29208057        2      -0.00996823      -0.14975747       0.03022017
Pt       8.42164176       6.48298285      22.29208057        2      -0.03572379       0.02894090      -0.07373591
Pt      -0.00313732       0.01189155      24.56865867        1       0.01777178      -0.02652617      -0.02491552
Pt       2.79848448      -0.00866354      24.56865889        1       0.01408601       0.02865759      -0.02491422
Pt       5.62493809      -0.01354275      24.56854426        1      -0.02909911       0.03359194      -0.00102428
Pt       1.41547466       2.42788997      24.56865866        1      -0.03186058      -0.00213058      -0.02491479
Pt       4.19313759       2.40105477      24.60715542        1      -0.01624053       0.01530566      -0.00092408
Pt       7.05291267       2.43083612      24.60715496        1      -0.00513568      -0.02171871      -0.00092333
Pt       2.79023036       4.85990623      24.56854461        1       0.04364338       0.00840696      -0.00102286
Pt       5.59723326       4.89258344      24.60715428        1       0.02137765       0.00641012      -0.00092338
Pt       8.42811477       4.87811051      24.56854453        1      -0.01454279      -0.04199678      -0.00102235
N        5.61442798       3.24149145      26.89807259        0      -0.00001284       0.00000090       0.02241489
H        6.52512656       2.98488274      26.46326719        0      -0.01594824      -0.02417755       0.02065357
H        4.93684882       2.58110798      26.46326640        0      -0.01295467       0.02590430       0.02066020
H        5.38130830       4.15848375      26.46326663        0       0.02891612      -0.00172739       0.02065859
