31
Lattice="8.421641763931781 0.0 0.0 4.2108208819658905 7.293355709136913 0.0 0.0 0.0 44.584161137365626" Properties=species:S:1:pos:R:3:tags:I:1:forces:R:3 energy=-172.80471801757812 free_energy=-172.80471801757812 stress="0.010280135087668896 5.286377557922606e-09 -7.906439947191757e-09 5.286377557922606e-09 0.010280105285346508 -1.5214320470136045e-08 -7.906439947191757e-09 -1.5214320470136045e-08 -4.950869333697483e-05" pbc="T T T"
Pt       1.40360696       0.81037286      20.00000000        3       0.00133439       0.00095894      -0.01033819
Pt       4.21082088       0.81037286      20.00000000        3      -0.00149697       0.00067237      -0.01033741
Pt       7.01803480       0.81037286      20.00000000        3       0.00020433       0.00324990      -0.00453475
Pt       2.80721392       3.24149143      20.00000000        3       0.00016664      -0.00163601      -0.01033989
Pt       5.61442784       3.24149143      20.00000000        3       0.00074923       0.00003659       0.01850149
Pt       8.42164176       3.24149143      20.00000000        3      -0.00040567       0.00063286       0.01850125
Pt       4.21082088       5.67261000      20.00000000        3       0.00271561      -0.00180369      -0.00453404
Pt       7.01803480       5.67261000      20.00000000        3      -0.00034604      -0.00066610       0.01850227
Pt       9.82524872       5.67261000      20.00000000        3      -0.00292142      -0.00144454      -0.00453466
Pt       0.00000000       1.62074571      22.29208057        2      -0.11682163       0.09318626       0.00257699
Pt       2.80721392       1.62074571      22.29208057        2       0.00000030      -0.00000122      -0.11664830
Pt       5.61442784       1.62074571      22.29208057        2       0.12145231       0.09950773      -0.00074358
Pt       1.40360696       4.05186428      22.29208057        2      -0.14690514       0.05542897      -0.00074187
Pt       4.21082088       4.05186428      22.29208057        2       0.13911738       0.05457749       0.00257644
Pt       7.01803480       4.05186428      22.29208057        2      -0.00000197       0.00000080       0.08541662
Pt       2.80721392       6.48298285      22.29208057        2      -0.00000032       0.00000096      -0.07511188
Pt       5.61442784       6.48298285      22.29208057        2       0.02544929      -0.15493593      -0.00074496
Pt       8.42164176       6.48298285      22.29208057        2      -0.02229080      -0.14776543       0.00257714
Pt       0.00338485      -0.00540003      24.55885449        1      -0.02369786       0.01239950       0.02358015
Pt       2.80714362       0.00956218      24.56696696        1       0.00298472       0.00649377       0.01117644
Pt       5.61741152       0.00563031      24.55885455        1       0.00111219      -0.02672048       0.02358069
Pt       1.41192355       2.42639843      24.56696683        1       0.00413325      -0.00583455       0.01117678
Pt       4.20257515       2.42627590      24.56696703        1      -0.00711689      -0.00066044       0.01117496
Pt       7.02485503       2.41008496      24.61570543        1      -0.02014582       0.00543260       0.00401163
Pt       2.80084541       4.86200579      24.55885469        1       0.02258463       0.01432261       0.02358228
Pt       5.59280227       4.86684705      24.61570503        1       0.01477941       0.01472724       0.00401328
Pt       8.43644628       4.87865994      24.61570738        1       0.00536466      -0.02016208       0.00401525
N        7.01803381       4.05186282      26.95921836        0       0.00003057       0.00008926       0.01872054
H        6.95269390       3.10521882      26.53934312        0       0.00948952      -0.01094049      -0.01504661
H        6.23088602       4.58177489      26.53934253        0      -0.01415341      -0.00278731      -0.01501644
H        7.87052716       4.46860016      26.53934766        0       0.00463577       0.01364049      -0.01501187
