31
Lattice="8.421641763931781 0.0 0.0 4.2108208819658905 7.293355709136913 0.0 0.0 0.0 44.584161137365626" Properties=species:S:1:pos:R:3:tags:I:1:forces:R:3 energy=-173.71035766601562 free_energy=-173.71035766601562 stress="0.01069524884223938 -1.410459571360434e-08 1.5812117171165596e-09 -1.410459571360434e-08 0.010695261880755424 -1.6773298305849949e-09 1.5812117171165596e-09 -1.6773298305849949e-09 3.0683122531627305e-06" pbc="T T T"
Pt       1.40360696       0.81037286      20.00000000        3       0.00519120       0.00299416      -0.00957850
Pt       4.21082088       0.81037286      20.00000000        3       0.00000135       0.00324836      -0.00614440
Pt       7.01803480       0.81037286      20.00000000        3      -0.00519224       0.00299482      -0.00957823
Pt       2.80721392       3.24149143      20.00000000        3       0.00281542      -0.00162568      -0.00614658
Pt       5.61442784       3.24149143      20.00000000        3      -0.00281618      -0.00162494      -0.00614473
Pt       8.42164176       3.24149143      20.00000000        3       0.00000100       0.00468092       0.01237097
Pt       4.21082088       5.67261000      20.00000000        3       0.00000313      -0.00599172      -0.00957873
Pt       7.01803480       5.67261000      20.00000000        3       0.00405016      -0.00233781       0.01237249
Pt       9.82524872       5.67261000      20.00000000        3      -0.00405513      -0.00233753       0.01237106
Pt       0.00000000       1.62074571      22.29208057        2       0.00000108       0.06262062       0.02822215
Pt       2.80721392       1.62074571      22.29208057        2      -0.00442232      -0.00255553      -0.00152232
Pt       5.61442784       1.62074571      22.29208057        2       0.00442317      -0.00255368      -0.00151960
Pt       1.40360696       4.05186428      22.29208057        2      -0.06926322       0.03999004      -0.02597982
Pt       4.21082088       4.05186428      22.29208057        2       0.00000516       0.00510878      -0.00152021
Pt       7.01803480       4.05186428      22.29208057        2       0.06925832       0.03998861      -0.02597832
Pt       2.80721392       6.48298285      22.29208057        2      -0.05423108      -0.03130867       0.02821964
Pt       5.61442784       6.48298285      22.29208057        2       0.05423170      -0.03131098       0.02822082
Pt       8.42164176       6.48298285      22.29208057        2       0.00000101      -0.07997616      -0.02598126
Pt       0.00000133       0.00000054      24.58918536        1       0.00000129       0.00000059      -0.00197554
Pt       2.80293108       0.00807013      24.60058636        1       0.00136714      -0.00474779       0.00236550
Pt       5.61871321       0.00806870      24.60058643        1      -0.00137442      -0.00474288       0.00236546
Pt       1.40845455       2.42337418      24.60058685        1      -0.00342766       0.00355720       0.00236611
Pt       4.21082163       2.43111958      24.59012746        1       0.00000277      -0.00000294      -0.00374705
Pt       7.01318984       2.42337308      24.60058717        1       0.00341932       0.00355820       0.00235876
Pt       2.81634446       4.86191400      24.60058662        1      -0.00479615       0.00118309       0.00236608
Pt       5.60529731       4.86191348      24.60058737        1       0.00479411       0.00118449       0.00235741
Pt       8.42163954       4.86223603      24.66290739        1      -0.00000176       0.00000190       0.02312824
N        8.42163702       4.86223552      26.73258955        0       0.00010450      -0.00000566      -0.02159560
H        9.26313712       4.37639741      27.05342108        0      -0.00954121       0.00551063      -0.00070539
H        7.58014322       4.37639792      27.05343313        0       0.00944935       0.00545675      -0.00069816
H        8.42163962       5.83391267      27.05342275        0       0.00000023      -0.01095714      -0.00069047
