31
Lattice="8.421641763931781 0.0 0.0 4.2108208819658905 7.293355709136913 0.0 0.0 0.0 44.584161137365626" Properties=species:S:1:pos:R:3:tags:I:1:forces:R:3 energy=-172.80612182617188 free_energy=-172.80612182617188 stress="0.010214995592832565 -2.396212783750684e-09 -5.2118114268751015e-09 -2.396212783750684e-09 0.01021499466150999 4.897313110596713e-10 -5.2118114268751015e-09 4.897313110596713e-10 -7.904330414021388e-05" pbc="T T T"
Pt       1.40360696       0.81037286      20.00000000        3       0.00000104      -0.00000250      -0.01100355
Pt       4.21082088       0.81037286      20.00000000        3      -0.00200804       0.00319047       0.00014958
Pt       7.01803480       0.81037286      20.00000000        3       0.00200802       0.00319010       0.00014842
Pt       2.80721392       3.24149143      20.00000000        3       0.00175962      -0.00333760       0.00014761
Pt       5.61442784       3.24149143      20.00000000        3      -0.00000187      -0.00000009       0.03285980
Pt       8.42164176       3.24149143      20.00000000        3      -0.00175766      -0.00333680       0.00014684
Pt       4.21082088       5.67261000      20.00000000        3       0.00377165       0.00014655       0.00014862
Pt       7.01803480       5.67261000      20.00000000        3      -0.00377183       0.00014801       0.00014806
Pt       9.82524872       5.67261000      20.00000000        3      -0.00000130       0.00000223      -0.01574576
Pt       0.00000000       1.62074571      22.29208057        2      -0.14542353       0.08395886       0.01005702
Pt       2.80721392       1.62074571      22.29208057        2       0.14542617       0.08396001       0.01005676
Pt       5.61442784       1.62074571      22.29208057        2      -0.00000233       0.12772703       0.03249457
Pt       1.40360696       4.05186428      22.29208057        2       0.00000136      -0.03007248      -0.07678577
Pt       4.21082088       4.05186428      22.29208057        2       0.11061835      -0.06386498       0.03249560
Pt       7.01803480       4.05186428      22.29208057        2      -0.11061946      -0.06386379       0.03249544
Pt       2.80721392       6.48298285      22.29208057        2       0.02604377       0.01503729      -0.07678579
Pt       5.61442784       6.48298285      22.29208057        2      -0.00000188      -0.16792105       0.01005587
Pt       8.42164176       6.48298285      22.29208057        2      -0.02604237       0.01504009      -0.07678674
Pt       0.00393414       0.00227117      24.56060060        1      -0.01717377      -0.00991738       0.01756895
Pt       2.80328019       0.00227114      24.56060087        1       0.01717497      -0.00991489       0.01756936
Pt       5.61442784      -0.00512084      24.56477900        1      -0.00000096      -0.03940387       0.01025093
Pt       1.40360702       2.42657613      24.56060069        1       0.00000083       0.01983081       0.01757041
Pt       4.18586847       2.41671207      24.61159891        1       0.00751542       0.00433841       0.00178416
Pt       7.04298712       2.41671219      24.61159951        1      -0.00751604       0.00433784       0.00178668
Pt       2.80277941       4.86479735      24.56477945        1      -0.03412380       0.01970324       0.01025124
Pt       5.61442781       4.89104968      24.61159882        1      -0.00000213      -0.00867720       0.00178516
Pt       8.42607599       4.86479738      24.56477965        1       0.03412528       0.01970205       0.01025268
N        5.61442754       3.24149128      26.93137605        0       0.00002726      -0.00000155       0.00369903
H        6.43590773       2.76720985      26.50980430        0       0.02256006      -0.01302692       0.00106823
H        4.79294823       2.76720978      26.50980374        0      -0.02258401      -0.01303770       0.00105597
H        5.61442803       4.19005463      26.50980362        0      -0.00000290       0.02606602       0.00106120
