31
Lattice="8.421641763931781 0.0 0.0 4.2108208819658905 7.293355709136913 0.0 0.0 0.0 44.584161137365626" Properties=species:S:1:pos:R:3:tags:I:1:forces:R:3 energy=-172.8042755126953 free_energy=-172.8042755126953 stress="0.010287906043231487 5.087764654021498e-10 -2.6962430066390652e-09 5.087764654021498e-10 0.01028789859265089 9.942226597559056e-09 -2.6962430066390652e-09 9.942226597559056e-09 2.5755238311830908e-05" pbc="T T T"
Pt       1.40360696       0.81037286      20.00000000        3       0.00000087      -0.00000245      -0.01219180
Pt       4.21082088       0.81037286      20.00000000        3      -0.00197809       0.00239076       0.00095397
Pt       7.01803480       0.81037286      20.00000000        3       0.00218456       0.00302571       0.00097600
Pt       2.80721392       3.24149143      20.00000000        3       0.00152939      -0.00340719       0.00097504
Pt       5.61442784       3.24149143      20.00000000        3      -0.00000177       0.00000027       0.03240681
Pt       8.42164176       3.24149143      20.00000000        3      -0.00108115      -0.00291060       0.00095052
Pt       4.21082088       5.67261000      20.00000000        3       0.00306484       0.00052012       0.00095269
Pt       7.01803480       5.67261000      20.00000000        3      -0.00371762       0.00038216       0.00097573
Pt       9.82524872       5.67261000      20.00000000        3      -0.00000146       0.00000217      -0.01433039
Pt       0.00000000       1.62074571      22.29208057        2      -0.14873058       0.08593415       0.01205155
Pt       2.80721392       1.62074571      22.29208057        2       0.14879058       0.08583432       0.01205454
Pt       5.61442784       1.62074571      22.29208057        2       0.00260918       0.12159231       0.04921343
Pt       1.40360696       4.05186428      22.29208057        2      -0.00523646      -0.02981926      -0.07348315
Pt       4.21082088       4.05186428      22.29208057        2       0.10399999      -0.06305993       0.04921477
Pt       7.01803480       4.05186428      22.29208057        2      -0.10661027      -0.05853257       0.04921748
Pt       2.80721392       6.48298285      22.29208057        2       0.02844252       0.01037689      -0.07348789
Pt       5.61442784       6.48298285      22.29208057        2      -0.00005626      -0.17177293       0.01205180
Pt       8.42164176       6.48298285      22.29208057        2      -0.02320792       0.01944649      -0.07348336
Pt       0.00528363       0.00130364      24.56071290        1      -0.02640605      -0.00284096       0.02083993
Pt       2.80344228       0.00392302      24.56071420        1       0.01566821      -0.02144437       0.02082920
Pt       5.62303489      -0.01200273      24.56953587        1      -0.02004995       0.02605299      -0.00906220
Pt       1.40209420       2.42589042      24.56071330        1       0.01074455       0.02429033       0.02084044
Pt       4.18914723       2.41046025      24.61256669        1       0.01474977       0.02396560       0.01038736
Pt       7.04676193       2.42267754      24.61256663        1      -0.02812989       0.00079077       0.01038671
Pt       2.79251621       4.86078450      24.56953699        1       0.03258518       0.00433338      -0.00906265
Pt       5.60737470       4.89133584      24.61256565        1       0.01337910      -0.02475695       0.01038340
Pt       8.42773339       4.87569281      24.56953823        1      -0.01254046      -0.03039023      -0.00907123
N        5.61442799       3.24149228      26.94051406        0       0.00002201      -0.00004588      -0.04885215
H        4.83888436       2.69237146      26.52021847        0       0.01084547       0.02135279       0.00245364
H        5.52664806       4.18769169      26.52021687        0       0.01306044      -0.02004009       0.00244379
H        6.47775165       2.84441033      26.52021691        0      -0.02392870      -0.00126797       0.00246579
