31
Lattice="8.421641763931781 0.0 0.0 4.2108208819658905 7.293355709136913 0.0 0.0 0.0 44.584161137365626" Properties=species:S:1:pos:R:3:tags:I:1:forces:R:3 energy=-172.80612182617188 free_energy=-172.80612182617188 stress="0.010317430831491947 7.694655579371101e-09 -4.7703743177862634e-09 7.694655579371101e-09 0.010317434556782246 -1.8500961873613164e-09 -4.7703743177862634e-09 -1.8500961873613164e-09 1.4697115148010198e-05" pbc="T T T"
Pt       1.40360696       0.81037286      20.00000000        3       0.00118224       0.00067969      -0.00975561
Pt       4.21082088       0.81037286      20.00000000        3      -0.00117919       0.00068078      -0.00975540
Pt       7.01803480       0.81037286      20.00000000        3      -0.00000239       0.00306384      -0.00310180
Pt       2.80721392       3.24149143      20.00000000        3       0.00000061      -0.00136444      -0.00975594
Pt       5.61442784       3.24149143      20.00000000        3       0.00054051       0.00031368       0.01786748
Pt       8.42164176       3.24149143      20.00000000        3      -0.00054092       0.00031382       0.01786503
Pt       4.21082088       5.67261000      20.00000000        3       0.00265771      -0.00153166      -0.00310138
Pt       7.01803480       5.67261000      20.00000000        3      -0.00000254      -0.00062426       0.01786727
Pt       9.82524872       5.67261000      20.00000000        3      -0.00265633      -0.00153062      -0.00310224
Pt       0.00000000       1.62074571      22.29208057        2      -0.12057755       0.08953641       0.01156688
Pt       2.80721392       1.62074571      22.29208057        2      -0.00000021      -0.00000228      -0.12116366
Pt       5.61442784       1.62074571      22.29208057        2       0.12057759       0.08954093       0.01156404
Pt       1.40360696       4.05186428      22.29208057        2      -0.13783380       0.05965419       0.01156461
Pt       4.21082088       4.05186428      22.29208057        2       0.13784036       0.05965561       0.01156701
Pt       7.01803480       4.05186428      22.29208057        2      -0.00000534       0.00000153       0.08417854
Pt       2.80721392       6.48298285      22.29208057        2       0.00000374       0.00000224      -0.05945230
Pt       5.61442784       6.48298285      22.29208057        2       0.01725159      -0.14919566       0.01156835
Pt       8.42164176       6.48298285      22.29208057        2      -0.01725530      -0.14919305       0.01156322
Pt      -0.00072204      -0.00041706      24.56338262        1      -0.00592935      -0.00342551      -0.00191060
Pt       2.80721428       0.01175062      24.56734047        1      -0.00000227      -0.01475468       0.01010594
Pt       5.61515009      -0.00041723      24.56338150        1       0.00593090      -0.00342340      -0.00189993
Pt       1.41378389       2.42524322      24.56734095        1      -0.01277904       0.00737709       0.01010655
Pt       4.20064407       2.42524285      24.56734037        1       0.01278148       0.00737921       0.01010580
Pt       7.01803474       2.41191756      24.61556681        1      -0.00000237      -0.00761081      -0.00048059
Pt       2.80721392       4.86307094      24.56338209        1       0.00000095       0.00684764      -0.00189951
Pt       5.59779928       4.87183744      24.61556771        1      -0.00659477       0.00380554      -0.00049280
Pt       8.43826915       4.87183744      24.61556714        1       0.00659406       0.00380478      -0.00048185
N        7.01803465       4.05186415      26.96079517        0       0.00004372       0.00002426      -0.02612966
H        6.19938207       4.52451380      26.53156577        0      -0.02727720       0.01574215       0.00499167
H        7.83668773       4.52451356      26.53156562        0       0.02723801       0.01572586       0.00501207
H        7.01803508       3.10656561      26.53156572        0      -0.00000515      -0.03149289       0.00498866
