31
Lattice="8.421641763931781 0.0 0.0 4.2108208819658905 7.293355709136913 0.0 0.0 0.0 44.584161137365626" Properties=species:S:1:pos:R:3:tags:I:1:forces:R:3 energy=-172.65194702148438 free_energy=-172.65194702148438 stress="0.010527035221457481 -2.9785098831780488e-09 5.6332707387696246e-09 -2.9785098831780488e-09 0.010527029633522034 -2.500350593237499e-09 5.6332707387696246e-09 -2.500350593237499e-09 0.00012930478260386735" pbc="T T T"
Pt       1.40360696       0.81037286      20.00000000        3       0.00000087      -0.00000213      -0.00398922
Pt       4.21082088       0.81037286      20.00000000        3      -0.00164430       0.00305879       0.01138899
Pt       7.01803480       0.81037286      20.00000000        3       0.00164396       0.00305838       0.01138866
Pt       2.80721392       3.24149143      20.00000000        3       0.00182759      -0.00295608       0.01138896
Pt       5.61442784       3.24149143      20.00000000        3      -0.00000189       0.00000010       0.04826629
Pt       8.42164176       3.24149143      20.00000000        3      -0.00182535      -0.00295560       0.01138729
Pt       4.21082088       5.67261000      20.00000000        3       0.00347559      -0.00010307       0.01138824
Pt       7.01803480       5.67261000      20.00000000        3      -0.00347603      -0.00010206       0.01138785
Pt       9.82524872       5.67261000      20.00000000        3      -0.00000094       0.00000221      -0.00338712
Pt       0.00000000       1.62074571      22.29208057        2      -0.12622820       0.07287887       0.01766560
Pt       2.80721392       1.62074571      22.29208057        2       0.12622906       0.07287872       0.01766499
Pt       5.61442784       1.62074571      22.29208057        2      -0.00000119       0.09584832      -0.00173070
Pt       1.40360696       4.05186428      22.29208057        2       0.00000115      -0.01844953      -0.03356468
Pt       4.21082088       4.05186428      22.29208057        2       0.08300954      -0.04792552      -0.00173139
Pt       7.01803480       4.05186428      22.29208057        2      -0.08300963      -0.04792632      -0.00173042
Pt       2.80721392       6.48298285      22.29208057        2       0.01597595       0.00922478      -0.03356904
Pt       5.61442784       6.48298285      22.29208057        2      -0.00000177      -0.14575605       0.01766025
Pt       8.42164176       6.48298285      22.29208057        2      -0.01597397       0.00922671      -0.03356790
Pt       0.00357466       0.00206374      24.56715840        1      -0.00150682      -0.00087097      -0.00900728
Pt       2.80363920       0.00206324      24.56715846        1       0.00150918      -0.00086708      -0.00900701
Pt       5.61442811      -0.00256766      24.58162233        1      -0.00000266      -0.00450626      -0.00638197
Pt       1.40360676       2.42699057      24.56715902        1       0.00000274       0.00174210      -0.00901684
Pt       4.18471086       2.41604380      24.62652492        1       0.00348537       0.00201147      -0.00724059
Pt       7.04414498       2.41604362      24.62652510        1      -0.00348866       0.00201382      -0.00724532
Pt       2.80499063       4.86352121      24.58162226        1      -0.00390323       0.00225010      -0.00638162
Pt       5.61442790       4.89238664      24.62652448        1      -0.00000107      -0.00402745      -0.00723946
Pt       8.42386487       4.86352075      24.58162284        1       0.00390383       0.00225374      -0.00637999
N        5.61442788       3.24149134      26.85796090        0      -0.00003058       0.00001725       0.01041518
H        5.61442810       2.32111662      26.34496416        0       0.00000323       0.02534674       0.00038278
H        4.81735991       3.70167862      26.34496374        0       0.02197815      -0.01268843       0.00040278
H        6.41149568       3.70167882      26.34496419        0      -0.02195001      -0.01267555       0.00038275
