31
Lattice="8.421641763931781 0.0 0.0 4.2108208819658905 7.293355709136913 0.0 0.0 0.0 44.584161137365626" Properties=species:S:1:pos:R:3:tags:I:1:forces:R:3 energy=-173.71035766601562 free_energy=-173.71035766601562 stress="0.010695275850594044 3.00995530722048e-08 -1.8921314293152136e-08 3.00995530722048e-08 0.01069527305662632 1.0814900086586476e-09 -1.8921314293152136e-08 1.0814900086586476e-09 3.0121686904749367e-06" pbc="T T T"
Pt       1.40360696       0.81037286      20.00000000        3       0.00519089       0.00299402      -0.00957847
Pt       4.21082088       0.81037286      20.00000000        3       0.00000239       0.00324842      -0.00614455
Pt       7.01803480       0.81037286      20.00000000        3      -0.00519273       0.00299461      -0.00957838
Pt       2.80721392       3.24149143      20.00000000        3       0.00281580      -0.00162542      -0.00614631
Pt       5.61442784       3.24149143      20.00000000        3      -0.00281637      -0.00162547      -0.00614613
Pt       8.42164176       3.24149143      20.00000000        3       0.00000125       0.00468065       0.01237077
Pt       4.21082088       5.67261000      20.00000000        3       0.00000243      -0.00599172      -0.00957868
Pt       7.01803480       5.67261000      20.00000000        3       0.00405057      -0.00233766       0.01237175
Pt       9.82524872       5.67261000      20.00000000        3      -0.00405432      -0.00233726       0.01237190
Pt       0.00000000       1.62074571      22.29208057        2       0.00000223       0.06262116       0.02821866
Pt       2.80721392       1.62074571      22.29208057        2      -0.00442424      -0.00255724      -0.00152391
Pt       5.61442784       1.62074571      22.29208057        2       0.00442353      -0.00255680      -0.00152183
Pt       1.40360696       4.05186428      22.29208057        2      -0.06926369       0.03999003      -0.02598221
Pt       4.21082088       4.05186428      22.29208057        2       0.00000345       0.00511004      -0.00152278
Pt       7.01803480       4.05186428      22.29208057        2       0.06926234       0.03998957      -0.02598338
Pt       2.80721392       6.48298285      22.29208057        2      -0.05423230      -0.03131109       0.02821844
Pt       5.61442784       6.48298285      22.29208057        2       0.05423246      -0.03131057       0.02821717
Pt       8.42164176       6.48298285      22.29208057        2       0.00000220      -0.07997616      -0.02598460
Pt       0.00000193      -0.00000057      24.58918351        1      -0.00000341      -0.00000060      -0.00196689
Pt       2.80293083       0.00806854      24.60058585        1       0.00136729      -0.00473872       0.00236598
Pt       5.61871336       0.00806823      24.60058601        1      -0.00136884      -0.00473845       0.00236441
Pt       1.40845387       2.42337359      24.60058545        1      -0.00342392       0.00355695       0.00236616
Pt       4.21082150       2.43111851      24.59012631        1       0.00000336      -0.00000157      -0.00373861
Pt       7.01319073       2.42337346      24.60058614        1       0.00341719       0.00355431       0.00236574
Pt       2.81634454       4.86191271      24.60058558        1      -0.00478946       0.00118692       0.00236619
Pt       5.60529920       4.86191278      24.60058582        1       0.00478566       0.00118495       0.00236605
Pt       8.42164152       4.86223767      24.66290876        1       0.00000173       0.00000072       0.02306879
N        8.42163898       4.86223797      26.73258586        0      -0.00016859      -0.00001545      -0.02144945
H        8.42163900       5.83391372      27.05342787        0       0.00000292      -0.01100601      -0.00073010
H        9.26313455       4.37639999      27.05342271        0      -0.00946422       0.00546141      -0.00068975
H        7.58014076       4.37639864      27.05342813        0       0.00963439       0.00555639      -0.00076594
