31
Lattice="8.421641763931781 0.0 0.0 4.2108208819658905 7.293355709136913 0.0 0.0 0.0 44.584161137365626" Properties=species:S:1:pos:R:3:tags:I:1:forces:R:3 energy=-173.71633911132812 free_energy=-173.71633911132812 stress="0.010683577507734299 1.497217461121636e-08 3.1893752083789195e-09 1.497217461121636e-08 0.010683628730475903 2.648460339926828e-09 3.1893752083789195e-09 2.648460339926828e-09 -3.7181364405114437e-06" pbc="T T T"
Pt       1.40360696       0.81037286      20.00000000        3       0.00502887       0.00377486      -0.00913951
Pt       4.21082088       0.81037286      20.00000000        3       0.00070203       0.00298891      -0.00605986
Pt       7.01803480       0.81037286      20.00000000        3      -0.00578747       0.00246420      -0.00913996
Pt       2.80721392       3.24149143      20.00000000        3       0.00224093      -0.00210180      -0.00606114
Pt       5.61442784       3.24149143      20.00000000        3      -0.00294168      -0.00088905      -0.00606167
Pt       8.42164176       3.24149143      20.00000000        3       0.00052362       0.00464556       0.01212963
Pt       4.21082088       5.67261000      20.00000000        3       0.00075911      -0.00624146      -0.00913969
Pt       7.01803480       5.67261000      20.00000000        3       0.00375929      -0.00277295       0.01213035
Pt       9.82524872       5.67261000      20.00000000        3      -0.00428548      -0.00186766       0.01213199
Pt       0.00000000       1.62074571      22.29208057        2       0.00648786       0.06191995       0.03258895
Pt       2.80721392       1.62074571      22.29208057        2      -0.01088404       0.00430433      -0.00008454
Pt       5.61442784       1.62074571      22.29208057        2       0.00171307      -0.01158036      -0.00007904
Pt       1.40360696       4.05186428      22.29208057        2      -0.06796061       0.03413494      -0.02875976
Pt       4.21082088       4.05186428      22.29208057        2       0.00917240       0.00727546      -0.00007880
Pt       7.01803480       4.05186428      22.29208057        2       0.06353711       0.04179306      -0.02876615
Pt       2.80721392       6.48298285      22.29208057        2      -0.05686995      -0.02534649       0.03259102
Pt       5.61442784       6.48298285      22.29208057        2       0.05038328      -0.03657612       0.03258754
Pt       8.42164176       6.48298285      22.29208057        2       0.00442741      -0.07592266      -0.02876301
Pt       0.00000111      -0.00000015      24.58943962        1       0.00000047       0.00000169      -0.00304508
Pt       2.80202822       0.01132381      24.59561587        1      -0.00747181       0.00261810       0.00783311
Pt       5.61577135       0.00573451      24.60743776        1      -0.00024532      -0.01161047      -0.00830923
Pt       1.40790393       2.42708927      24.60743784        1      -0.00993680       0.00601856      -0.00830641
Pt       4.21082087       2.43111845      24.58916537        1       0.00001316       0.00000584      -0.00120315
Pt       7.01082500       2.42096532      24.59561530        1       0.00144809      -0.00779043       0.00783363
Pt       2.81961500       4.86106851      24.59561668        1       0.00600149       0.00515655       0.00782432
Pt       5.60879247       4.86053388      24.60743806        1       0.01016384       0.00558633      -0.00830792
Pt       8.42163982       4.86223600      24.65950573        1       0.00000698       0.00000402       0.00648922
N        8.42163537       4.86223438      26.72619564        0       0.00010170       0.00004956      -0.00168455
H        8.90546848       4.01909018      27.04595854        0      -0.00047709      -0.00155634      -0.00038291
H        7.44953867       4.86479690      27.04596747        0      -0.00118253       0.00120821      -0.00038201
H        8.90990750       5.70282034      27.04595405        0       0.00157207       0.00030555      -0.00038532
