31
Lattice="8.421641763931781 0.0 0.0 4.2108208819658905 7.293355709136913 0.0 0.0 0.0 44.584161137365626" Properties=species:S:1:pos:R:3:tags:I:1:forces:R:3 energy=-173.71566772460938 free_energy=-173.71566772460938 stress="0.01073117833584547 9.770140252385318e-09 1.2172884034100662e-08 9.770140252385318e-09 0.01073115412145853 -3.838949602652519e-09 1.2172884034100662e-08 -3.838949602652519e-09 2.1055693650851026e-05" pbc="T T T"
Pt       1.40360696       0.81037286      20.00000000        3       0.00554287       0.00235871      -0.00801870
Pt       4.21082088       0.81037286      20.00000000        3      -0.00056563       0.00240775      -0.00491908
Pt       7.01803480       0.81037286      20.00000000        3      -0.00481744       0.00361690      -0.00801915
Pt       2.80721392       3.24149143      20.00000000        3       0.00237101      -0.00071338      -0.00492096
Pt       5.61442784       3.24149143      20.00000000        3      -0.00180477      -0.00169624      -0.00492102
Pt       8.42164176       3.24149143      20.00000000        3       0.00012894       0.00453771       0.01194757
Pt       4.21082088       5.67261000      20.00000000        3      -0.00072439      -0.00597872      -0.00801864
Pt       7.01803480       5.67261000      20.00000000        3       0.00386297      -0.00237705       0.01194951
Pt       9.82524872       5.67261000      20.00000000        3      -0.00399438      -0.00215463       0.01194903
Pt       0.00000000       1.62074571      22.29208057        2      -0.00345659       0.05798559       0.04051632
Pt       2.80721392       1.62074571      22.29208057        2      -0.00074424      -0.01198070       0.01778938
Pt       5.61442784       1.62074571      22.29208057        2       0.01074357       0.00534188       0.01778922
Pt       1.40360696       4.05186428      22.29208057        2      -0.05779478       0.03318892      -0.03199469
Pt       4.21082088       4.05186428      22.29208057        2      -0.00999845       0.00663422       0.01778915
Pt       7.01803480       4.05186428      22.29208057        2       0.05763800       0.03345867      -0.03199355
Pt       2.80721392       6.48298285      22.29208057        2      -0.04849028      -0.03198729       0.04051587
Pt       5.61442784       6.48298285      22.29208057        2       0.05194689      -0.02599818       0.04051503
Pt       8.42164176       6.48298285      22.29208057        2       0.00015701      -0.06664372      -0.03199605
Pt       0.00000028      -0.00000013      24.59135356        1       0.00000027       0.00000041      -0.01072663
Pt       2.81075548      -0.00383833      24.60838524        1      -0.02137539       0.04127300      -0.01027215
Pt       5.62262815       0.01404668      24.60008693        1       0.00886450       0.02334098      -0.01378115
Pt       1.41167216       2.41699327      24.60008711        1       0.01577989      -0.01934960      -0.01378082
Pt       4.21082058       2.43111845      24.59176177        1       0.00000233      -0.00000125      -0.01549104
Pt       7.01958799       2.43610430      24.60838537        1      -0.02505569      -0.03914707      -0.01027094
Pt       2.80211942       4.86108915      24.60838547        1       0.04643239      -0.00212357      -0.01027128
Pt       5.59816276       4.86231520      24.60008689        1      -0.02464586      -0.00399316      -0.01378080
Pt       8.42164187       4.86223706      24.65832742        1      -0.00000399       0.00000106      -0.02936494
N        8.42164039       4.86223806      26.72027591        0       0.00011116      -0.00006425       0.04302275
H        9.39294408       4.86240423      27.04137247        0       0.01730552       0.00120031       0.00289524
H        7.93613532       4.02098095      27.04137062        0      -0.00765450      -0.01563904       0.00292029
H        7.93584606       5.70332581      27.04137130        0      -0.00976101       0.01450153       0.00294187
