31
Lattice="8.421641763931781 0.0 0.0 4.2108208819658905 7.293355709136913 0.0 0.0 0.0 44.584161137365626" Properties=species:S:1:pos:R:3:tags:I:1:forces:R:3 energy=-173.71035766601562 free_energy=-173.71035766601562 stress="0.01069528330117464 -2.7007203584616946e-08 1.5308184941886793e-08 -2.7007203584616946e-08 0.01069529727101326 -1.1821570389258795e-09 1.5308184941886793e-08 -1.1821570389258795e-09 3.064349584747106e-06" pbc="T T T"
Pt       1.40360696       0.81037286      20.00000000        3       0.00519082       0.00299363      -0.00957817
Pt       4.21082088       0.81037286      20.00000000        3       0.00000208       0.00324806      -0.00614524
Pt       7.01803480       0.81037286      20.00000000        3      -0.00519228       0.00299482      -0.00957829
Pt       2.80721392       3.24149143      20.00000000        3       0.00281556      -0.00162521      -0.00614670
Pt       5.61442784       3.24149143      20.00000000        3      -0.00281628      -0.00162504      -0.00614542
Pt       8.42164176       3.24149143      20.00000000        3       0.00000115       0.00468067       0.01237041
Pt       4.21082088       5.67261000      20.00000000        3       0.00000277      -0.00599144      -0.00957718
Pt       7.01803480       5.67261000      20.00000000        3       0.00404987      -0.00233781       0.01237258
Pt       9.82524872       5.67261000      20.00000000        3      -0.00405429      -0.00233718       0.01237285
Pt       0.00000000       1.62074571      22.29208057        2       0.00000055       0.06261957       0.02822212
Pt       2.80721392       1.62074571      22.29208057        2      -0.00442483      -0.00255680      -0.00152414
Pt       5.61442784       1.62074571      22.29208057        2       0.00442578      -0.00255529      -0.00152045
Pt       1.40360696       4.05186428      22.29208057        2      -0.06926256       0.03999202      -0.02597586
Pt       4.21082088       4.05186428      22.29208057        2       0.00000311       0.00511234      -0.00151847
Pt       7.01803480       4.05186428      22.29208057        2       0.06925945       0.03998952      -0.02597741
Pt       2.80721392       6.48298285      22.29208057        2      -0.05423128      -0.03131194       0.02822242
Pt       5.61442784       6.48298285      22.29208057        2       0.05423077      -0.03131192       0.02822142
Pt       8.42164176       6.48298285      22.29208057        2       0.00000227      -0.07997872      -0.02598057
Pt       0.00000116      -0.00000032      24.58918528        1      -0.00000079       0.00000007      -0.00197464
Pt       2.80293027       0.00806934      24.60058661        1       0.00136794      -0.00474771       0.00236505
Pt       5.61871311       0.00806845      24.60058620        1      -0.00137236      -0.00474488       0.00236511
Pt       1.40845387       2.42337321      24.60058676        1      -0.00342644       0.00356152       0.00236623
Pt       4.21082096       2.43111858      24.59012692        1       0.00000491       0.00000100      -0.00373882
Pt       7.01318967       2.42337268      24.60058744        1       0.00341808       0.00355760       0.00235797
Pt       2.81634458       4.86191319      24.60058701        1      -0.00479671       0.00118390       0.00235668
Pt       5.60529743       4.86191318      24.60058704        1       0.00478998       0.00118436       0.00235699
Pt       8.42163976       4.86223601      24.66290825        1       0.00000397       0.00000250       0.02310222
N        8.42163710       4.86223717      26.73258961        0       0.00018290       0.00000963      -0.02153176
H        7.58014399       4.37639973      27.05343147        0       0.00944403       0.00545480      -0.00068844
H        8.42164016       5.83391511      27.05342555        0      -0.00000413      -0.01101050      -0.00071153
H        9.26313871       4.37639863      27.05342472        0      -0.00961416       0.00554839      -0.00073873
