31
Lattice="8.421641763931781 0.0 0.0 4.2108208819658905 7.293355709136913 0.0 0.0 0.0 44.584161137365626" Properties=species:S:1:pos:R:3:tags:I:1:forces:R:3 energy=-172.80628967285156 free_energy=-172.80628967285156 stress="0.010336614213883877 -3.831581718571897e-09 3.980942686609978e-09 -3.831581718571897e-09 0.010336620733141899 1.87186199873679e-09 3.980942686609978e-09 1.87186199873679e-09 2.109901834046468e-05" pbc="T T T"
Pt       1.40360696       0.81037286      20.00000000        3       0.00129068       0.00074252      -0.00833568
Pt       4.21082088       0.81037286      20.00000000        3      -0.00128736       0.00074359      -0.00833550
Pt       7.01803480       0.81037286      20.00000000        3      -0.00000246       0.00278352      -0.00336179
Pt       2.80721392       3.24149143      20.00000000        3       0.00000122      -0.00149037      -0.00833705
Pt       5.61442784       3.24149143      20.00000000        3       0.00012232       0.00007153       0.01724872
Pt       8.42164176       3.24149143      20.00000000        3      -0.00012271       0.00007216       0.01724795
Pt       4.21082088       5.67261000      20.00000000        3       0.00241390      -0.00139118      -0.00336218
Pt       7.01803480       5.67261000      20.00000000        3      -0.00000277      -0.00014113       0.01724952
Pt       9.82524872       5.67261000      20.00000000        3      -0.00241271      -0.00138954      -0.00336251
Pt       0.00000000       1.62074571      22.29208057        2      -0.11445491       0.08732459       0.01453516
Pt       2.80721392       1.62074571      22.29208057        2      -0.00000148      -0.00000296      -0.11074123
Pt       5.61442784       1.62074571      22.29208057        2       0.11445545       0.08732434       0.01453255
Pt       1.40360696       4.05186428      22.29208057        2      -0.13285536       0.05545933       0.01453515
Pt       4.21082088       4.05186428      22.29208057        2       0.13285848       0.05546073       0.01453280
Pt       7.01803480       4.05186428      22.29208057        2      -0.00000244       0.00000110       0.08593762
Pt       2.80721392       6.48298285      22.29208057        2       0.00000046       0.00000132      -0.05644577
Pt       5.61442784       6.48298285      22.29208057        2       0.01839750      -0.14278489       0.01453391
Pt       8.42164176       6.48298285      22.29208057        2      -0.01839842      -0.14278337       0.01453418
Pt      -0.00121450      -0.00070155      24.56507421        1      -0.00107964      -0.00062382      -0.00976239
Pt       2.80721391       0.01191138      24.57002368        1       0.00000022      -0.01414572      -0.00317045
Pt       5.61564248      -0.00070163      24.56507437        1       0.00107980      -0.00062284      -0.00976275
Pt       1.41392273       2.42516266      24.57002364        1      -0.01224977       0.00707207      -0.00316982
Pt       4.20050512       2.42516268      24.57002349        1       0.01225111       0.00707106      -0.00316033
Pt       7.01803474       2.40978259      24.61315550        1      -0.00000185       0.00144736       0.00335380
Pt       2.80721397       4.86363977      24.56507459        1      -0.00000066       0.00124748      -0.00976181
Pt       5.59595023       4.87290501      24.61315547        1       0.00125583      -0.00072313       0.00335294
Pt       8.44011899       4.87290497      24.61315558        1      -0.00125355      -0.00072297       0.00335252
N        7.01803474       4.05186444      26.94874447        0      -0.00002525      -0.00000678       0.04618579
H        6.19553201       4.52673652      26.53110499        0      -0.01024997       0.00591873      -0.01334961
H        7.84053702       4.52673615      26.53110542        0       0.01027575       0.00593543      -0.01336062
H        7.01803472       3.10212046      26.53110540        0      -0.00000141      -0.01184788      -0.01335280
