31
Lattice="8.421641763931781 0.0 0.0 4.2108208819658905 7.293355709136913 0.0 0.0 0.0 44.584161137365626" Properties=species:S:1:pos:R:3:tags:I:1:forces:R:3 energy=-172.8055419921875 free_energy=-172.8055419921875 stress="0.010267090983688831 -4.211919346630566e-08 1.0349017642852232e-08 -4.211919346630566e-08 0.010219120420515537 -0.00011345159873599187 1.0349017642852232e-08 -0.00011345159873599187 -5.919539398746565e-05" pbc="T T T"
Pt       1.40360696       0.81037286      20.00000000        3       0.00203002       0.00306442      -0.00474828
Pt       4.21082088       0.81037286      20.00000000        3      -0.00202703       0.00306508      -0.00474939
Pt       7.01803480       0.81037286      20.00000000        3      -0.00000195       0.00165106      -0.01466009
Pt       2.80721392       3.24149143      20.00000000        3       0.00000042       0.00059653      -0.00791085
Pt       5.61442784       3.24149143      20.00000000        3      -0.00193286       0.00454796       0.00620374
Pt       8.42164176       3.24149143      20.00000000        3       0.00193252       0.00454792       0.00620094
Pt       4.21082088       5.67261000      20.00000000        3       0.00229823      -0.00216538       0.00427273
Pt       7.01803480       5.67261000      20.00000000        3      -0.00000278      -0.00018128       0.03382978
Pt       9.82524872       5.67261000      20.00000000        3      -0.00229692      -0.00216392       0.00427058
Pt       0.00000000       1.62074571      22.29208057        2       0.01726999       0.00747173      -0.08239833
Pt       2.80721392       1.62074571      22.29208057        2      -0.00000150      -0.11674190      -0.04284071
Pt       5.61442784       1.62074571      22.29208057        2      -0.01726939       0.00747715      -0.08239631
Pt       1.40360696       4.05186428      22.29208057        2      -0.16515069       0.07757306       0.05780568
Pt       4.21082088       4.05186428      22.29208057        2       0.16516225       0.07757784       0.05782279
Pt       7.01803480       4.05186428      22.29208057        2      -0.00000965       0.10184290       0.06141413
Pt       2.80721392       6.48298285      22.29208057        2       0.00000277      -0.06784891      -0.07098275
Pt       5.61442784       6.48298285      22.29208057        2       0.08122714      -0.12513059       0.02002460
Pt       8.42164176       6.48298285      22.29208057        2      -0.08122992      -0.12512408       0.02002126
Pt      -0.00349818      -0.03012059      24.56748937        1      -0.01283817       0.01348017       0.00481412
Pt       2.80721422       0.00720568      24.59225083        1      -0.00000083       0.01145542       0.01752249
Pt       5.61792652      -0.03012062      24.56749032        1       0.01283527       0.01348492       0.00481440
Pt       1.40272447       2.40139798      24.56335324        1       0.02536853       0.02804516       0.01107296
Pt       4.21170065       2.40139538      24.56335017        1      -0.02534474       0.02807976       0.01108193
Pt       7.01803603       2.37698652      24.57053353        1      -0.00001695       0.04155544      -0.01218638
Pt       2.80721196       4.82862277      24.56492697        1       0.00002791       0.01906768      -0.01172465
Pt       5.59299941       4.81991663      24.62336062        1      -0.01332261      -0.00111104      -0.02262090
Pt       8.44307292       4.81991287      24.62335602        1       0.01327859      -0.00107361      -0.02256318
N        7.01803900       5.40412372      26.90603336        0      -0.00007983       0.01408303       0.04636413
H        7.84003023       4.88530401      26.54188752        0       0.01502281      -0.00822170      -0.00795418
H        6.19604501       4.88531590      26.54187987        0      -0.01504625      -0.00836124      -0.00786742
H        7.01802647       6.30144284      26.37849331        0       0.00011554      -0.00054348       0.02806699
