31
Lattice="8.421641763931781 0.0 0.0 4.2108208819658905 7.293355709136913 0.0 0.0 0.0 44.584161137365626" Properties=species:S:1:pos:R:3:tags:I:1:forces:R:3 energy=-173.71286010742188 free_energy=-173.71286010742188 stress="0.010689344257116318 1.0777344350287876e-08 2.66631494660885e-09 1.0777344350287876e-08 0.010689294897019863 1.404168603613698e-08 2.66631494660885e-09 1.404168603613698e-08 -8.403898732467496e-07" pbc="T T T"
Pt       1.40360696       0.81037286      20.00000000        3       0.00540872       0.00312011      -0.00960901
Pt       4.21082088       0.81037286      20.00000000        3       0.00000211       0.00326110      -0.00671273
Pt       7.01803480       0.81037286      20.00000000        3      -0.00541020       0.00312024      -0.00960872
Pt       2.80721392       3.24149143      20.00000000        3       0.00282618      -0.00163224      -0.00671417
Pt       5.61442784       3.24149143      20.00000000        3      -0.00282789      -0.00163110      -0.00671420
Pt       8.42164176       3.24149143      20.00000000        3       0.00000098       0.00504145       0.01241750
Pt       4.21082088       5.67261000      20.00000000        3       0.00000224      -0.00624357      -0.00960913
Pt       7.01803480       5.67261000      20.00000000        3       0.00436337      -0.00251828       0.01241958
Pt       9.82524872       5.67261000      20.00000000        3      -0.00436724      -0.00251811       0.01241848
Pt       0.00000000       1.62074571      22.29208057        2       0.00000237       0.06238518       0.03128023
Pt       2.80721392       1.62074571      22.29208057        2      -0.00560575      -0.00323921      -0.00202903
Pt       5.61442784       1.62074571      22.29208057        2       0.00560527      -0.00323958      -0.00202664
Pt       1.40360696       4.05186428      22.29208057        2      -0.07025604       0.04056448      -0.02787970
Pt       4.21082088       4.05186428      22.29208057        2       0.00000465       0.00647557      -0.00202550
Pt       7.01803480       4.05186428      22.29208057        2       0.07025287       0.04056421      -0.02787923
Pt       2.80721392       6.48298285      22.29208057        2      -0.05402960      -0.03119313       0.03128129
Pt       5.61442784       6.48298285      22.29208057        2       0.05402905      -0.03119460       0.03128097
Pt       8.42164176       6.48298285      22.29208057        2       0.00000298      -0.08112300      -0.02788072
Pt       0.00000158      -0.00000008      24.58984432        1       0.00000228      -0.00000248      -0.00325817
Pt       2.80433316       0.00911877      24.60032613        1      -0.00181567      -0.00595209       0.00255850
Pt       5.61731192       0.00911805      24.60032749        1       0.00180882      -0.00594884       0.00254956
Pt       1.41006430       2.42406331      24.60032701        1      -0.00606302       0.00140698       0.00255691
Pt       4.21082184       2.43111835      24.58937923        1       0.00000381       0.00000131      -0.00328213
Pt       7.01158067       2.42406220      24.60032675        1       0.00605461       0.00140894       0.00255823
Pt       2.81655257       4.86017401      24.60032686        1      -0.00424587       0.00454417       0.00255723
Pt       5.60509022       4.86017416      24.60032792        1       0.00424592       0.00454410       0.00254953
Pt       8.42164119       4.86223733      24.66258282        1      -0.00000544      -0.00000244       0.01703450
N        8.42163663       4.86223610      26.73160016        0       0.00008237       0.00014508      -0.00471419
H        9.26324491       5.34813865      27.05269099        0      -0.01592863      -0.00920130      -0.00452428
H        8.42163873       3.89043618      27.05269301        0       0.00000188       0.01821427      -0.00447457
H        7.58003311       5.34813784      27.05269804        0       0.01585482      -0.00915693      -0.00452021
