31
Lattice="8.421641763931781 0.0 0.0 4.2108208819658905 7.293355709136913 0.0 0.0 0.0 44.584161137365626" Properties=species:S:1:pos:R:3:tags:I:1:forces:R:3 energy=-173.710693359375 free_energy=-173.710693359375 stress="0.010916239582002163 2.18257323325588e-08 3.188695085754034e-09 2.18257323325588e-08 0.01091619674116373 1.1067927907504327e-08 3.188695085754034e-09 1.1067927907504327e-08 0.00022650975733995438" pbc="T T T"
Pt       1.40360696       0.81037286      20.00000000        3       0.00532226       0.00307060      -0.00583580
Pt       4.21082088       0.81037286      20.00000000        3       0.00000201       0.00275138      -0.00228891
Pt       7.01803480       0.81037286      20.00000000        3      -0.00532392       0.00307098      -0.00583637
Pt       2.80721392       3.24149143      20.00000000        3       0.00238497      -0.00137710      -0.00229028
Pt       5.61442784       3.24149143      20.00000000        3      -0.00238594      -0.00137674      -0.00229004
Pt       8.42164176       3.24149143      20.00000000        3       0.00000120       0.00388685       0.01204401
Pt       4.21082088       5.67261000      20.00000000        3       0.00000218      -0.00614412      -0.00583732
Pt       7.01803480       5.67261000      20.00000000        3       0.00336299      -0.00194108       0.01204488
Pt       9.82524872       5.67261000      20.00000000        3      -0.00336723      -0.00194101       0.01204589
Pt       0.00000000       1.62074571      22.29208057        2       0.00000298       0.05560657       0.06554931
Pt       2.80721392       1.62074571      22.29208057        2      -0.00339225      -0.00195972       0.04122716
Pt       5.61442784       1.62074571      22.29208057        2       0.00339044      -0.00195888       0.04122616
Pt       1.40360696       4.05186428      22.29208057        2      -0.05054091       0.02918206      -0.00923115
Pt       4.21082088       4.05186428      22.29208057        2       0.00000340       0.00391666       0.04122704
Pt       7.01803480       4.05186428      22.29208057        2       0.05053913       0.02918048      -0.00923403
Pt       2.80721392       6.48298285      22.29208057        2      -0.04815817      -0.02780331       0.06554905
Pt       5.61442784       6.48298285      22.29208057        2       0.04815760      -0.02780256       0.06554914
Pt       8.42164176       6.48298285      22.29208057        2       0.00000240      -0.05835916      -0.00923276
Pt       0.00000060      -0.00000017      24.60026305        1       0.00000405       0.00000108      -0.04451936
Pt       2.80338980       0.00819093      24.61112933        1       0.00086099       0.01184006      -0.04277317
Pt       5.61825388       0.00819216      24.61112917        1      -0.00086331       0.01183552      -0.04277265
Pt       1.40878854       2.42371095      24.61112948        1       0.01068541      -0.00517301      -0.04277338
Pt       4.21082103       2.43111847      24.60033541        1       0.00000325       0.00000238      -0.04962280
Pt       7.01285564       2.42371135      24.61112987        1      -0.01068895      -0.00517522      -0.04277241
Pt       2.81622170       4.86145474      24.61112989        1       0.00981747      -0.00666906      -0.04277200
Pt       5.60542389       4.86145451      24.61112944        1      -0.00982876      -0.00666662      -0.04277259
Pt       8.42164272       4.86223809      24.65481325        1      -0.00000600      -0.00000649      -0.00594583
N        8.42163623       4.86223332      26.71809192        0       0.00011504       0.00015604       0.04762232
H        8.42163891       3.89017341      27.03902395        0       0.00000371       0.02893618       0.00159286
H        7.57980812       5.34826747      27.03902441        0       0.02512282      -0.01450863       0.00156648
H        9.26347140       5.34826836      27.03901411        0      -0.02522877      -0.01457411       0.00155655
