31
Lattice="8.421641763931781 0.0 0.0 4.2108208819658905 7.293355709136913 0.0 0.0 0.0 44.584161137365626" Properties=species:S:1:pos:R:3:tags:I:1:forces:R:3 energy=-173.71585083007812 free_energy=-173.71585083007812 stress="0.010695398785173893 3.4294795892009233e-09 -3.862075548255461e-09 3.4294795892009233e-09 0.010695388540625572 -5.196593710898867e-10 -3.862075548255461e-09 -5.196593710898867e-10 5.399776637204923e-05" pbc="T T T"
Pt       1.40360696       0.81037286      20.00000000        3       0.00521447       0.00366334      -0.00904936
Pt       4.21082088       0.81037286      20.00000000        3       0.00041400       0.00292603      -0.00573358
Pt       7.01803480       0.81037286      20.00000000        3      -0.00578365       0.00268021      -0.00904977
Pt       2.80721392       3.24149143      20.00000000        3       0.00233091      -0.00182090      -0.00573498
Pt       5.61442784       3.24149143      20.00000000        3      -0.00274371      -0.00110723      -0.00573483
Pt       8.42164176       3.24149143      20.00000000        3      -0.00044707       0.00437474       0.01246771
Pt       4.21082088       5.67261000      20.00000000        3       0.00057032      -0.00634648      -0.00904924
Pt       7.01803480       5.67261000      20.00000000        3       0.00401002      -0.00179672       0.01246867
Pt       9.82524872       5.67261000      20.00000000        3      -0.00356531      -0.00257306       0.01246962
Pt       0.00000000       1.62074571      22.29208057        2       0.00116926       0.06463856       0.03390618
Pt       2.80721392       1.62074571      22.29208057        2      -0.01137268       0.00413764       0.00323783
Pt       5.61442784       1.62074571      22.29208057        2       0.00209946      -0.01192066       0.00323722
Pt       1.40360696       4.05186428      22.29208057        2      -0.06389465       0.03977188      -0.02262988
Pt       4.21082088       4.05186428      22.29208057        2       0.00927359       0.00777931       0.00323852
Pt       7.01803480       4.05186428      22.29208057        2       0.06638841       0.03544928      -0.02262903
Pt       2.80721392       6.48298285      22.29208057        2      -0.05656385      -0.03130691       0.03390460
Pt       5.61442784       6.48298285      22.29208057        2       0.05539491      -0.03333093       0.03390365
Pt       8.42164176       6.48298285      22.29208057        2      -0.00249509      -0.07521831      -0.02263153
Pt       0.00000023      -0.00000027      24.58918257        1      -0.00000024       0.00000015      -0.00003114
Pt       2.79607658       0.01953253      24.60028310        1       0.01657290      -0.02172058      -0.01355343
Pt       5.61231186      -0.00204407      24.60570068        1      -0.00001051       0.00690306       0.00132053
Pt       1.40289510       2.43397268      24.60570086        1       0.00598194      -0.00344282       0.00132100
Pt       4.21082082       2.43111834      24.58864040        1       0.00000070       0.00000124       0.00205144
Pt       7.00668740       2.41170680      24.60028299        1       0.01052631       0.02521378      -0.01355284
Pt       2.82969829       4.86211592      24.60028298        1      -0.02709713      -0.00349275      -0.01355296
Pt       5.61725563       4.86142667      24.60570085        1      -0.00597429      -0.00346157       0.00132003
Pt       8.42164135       4.86223681      24.65961914        1       0.00000095      -0.00000183       0.02955034
N        8.42164232       4.86223690      26.72769170        0      -0.00003317      -0.00000003       0.01214188
H        8.90579134       4.02124368      27.05203559        0       0.00967612      -0.01920274      -0.01453404
H        7.45124514       4.86344838      27.05203619        0      -0.02143674       0.00122656      -0.01454284
H        8.90788924       5.70201953      27.05203521        0       0.01179372       0.01797753      -0.01452973
