31
Lattice="8.421641763931781 0.0 0.0 4.2108208819658905 7.293355709136913 0.0 0.0 0.0 44.584161137365626" Properties=species:S:1:pos:R:3:tags:I:1:forces:R:3 energy=-172.80886840820312 free_energy=-172.80886840820312 stress="0.010343151167035103 -9.530190858697551e-09 2.1901873370477887e-10 -9.530190858697551e-09 0.010292711667716503 -4.873098760072025e-07 2.1901873370477887e-10 -4.873098760072025e-07 8.452060683339369e-06" pbc="T T T"
Pt       1.40360696       0.81037286      20.00000000        3       0.00099148       0.00118479      -0.00968152
Pt       4.21082088       0.81037286      20.00000000        3      -0.00098845       0.00118594      -0.00968230
Pt       7.01803480       0.81037286      20.00000000        3      -0.00000183       0.00201458      -0.00764877
Pt       2.80721392       3.24149143      20.00000000        3       0.00000050      -0.00150607      -0.00881416
Pt       5.61442784       3.24149143      20.00000000        3      -0.00076410       0.00151080       0.01716664
Pt       8.42164176       3.24149143      20.00000000        3       0.00076362       0.00151142       0.01716697
Pt       4.21082088       5.67261000      20.00000000        3       0.00310429      -0.00226790      -0.00013342
Pt       7.01803480       5.67261000      20.00000000        3      -0.00000223      -0.00184864       0.02362075
Pt       9.82524872       5.67261000      20.00000000        3      -0.00310342      -0.00226669      -0.00013289
Pt       0.00000000       1.62074571      22.29208057        2      -0.08001591       0.08057788      -0.02290071
Pt       2.80721392       1.62074571      22.29208057        2      -0.00000164       0.00402327      -0.11544706
Pt       5.61442784       1.62074571      22.29208057        2       0.08001737       0.08057724      -0.02290384
Pt       1.40360696       4.05186428      22.29208057        2      -0.15491444       0.07568241       0.02986111
Pt       4.21082088       4.05186428      22.29208057        2       0.15491468       0.07568292       0.02985436
Pt       7.01803480       4.05186428      22.29208057        2      -0.00000057       0.03500209       0.08498210
Pt       2.80721392       6.48298285      22.29208057        2      -0.00000084      -0.01604891      -0.06293768
Pt       5.61442784       6.48298285      22.29208057        2       0.01796936      -0.16558215       0.01990696
Pt       8.42164176       6.48298285      22.29208057        2      -0.01796843      -0.16558331       0.01990988
Pt      -0.00383093       0.00231074      24.56366467        1       0.00768388      -0.00903017       0.00246936
Pt       2.80721402       0.01621215      24.56554152        1       0.00000096       0.00299720       0.01329517
Pt       5.61825938       0.00231153      24.56366505        1      -0.00768641      -0.00903714       0.00246876
Pt       1.41052458       2.42820709      24.56870414        1      -0.00122422      -0.00156880       0.00528620
Pt       4.20390355       2.42820731      24.56870234        1       0.00122290      -0.00157159       0.00529635
Pt       7.01803478       2.40908037      24.60325015        1      -0.00000044       0.00121333       0.01185529
Pt       2.80721408       4.86097901      24.56180475        1      -0.00000544       0.01347493       0.00301597
Pt       5.59590865       4.87109383      24.62481973        1      -0.00090431       0.00054278      -0.00748183
Pt       8.44015920       4.87109373      24.62482142        1       0.00091535       0.00054549      -0.00749397
N        7.01803433       4.27636057      26.94624814        0      -0.00001069       0.02826590       0.01646632
H        7.83975717       4.78219157      26.56311063        0       0.00379442      -0.01075663      -0.00305308
H        7.01803647       3.36259014      26.45243886        0      -0.00001907      -0.00813022      -0.02125418
H        6.19631259       4.78219450      26.56311078        0      -0.00376622      -0.01079500      -0.00305682
