27
Lattice="8.421641763931781 0.0 0.0 4.2108208819658905 7.293355709136913 0.0 0.0 0.0 44.584161137365626" Properties=species:S:1:pos:R:3:tags:I:1:forces:R:3 charge=0 spin=0 energy=-137.41128948827665 free_energy=-137.41128948827665 stress="0.009996560402214527 -3.1286224722038014e-09 -2.88607054921286e-10 -3.1286224722038014e-09 0.009996570646762848 -1.0629475077905681e-09 -2.88607054921286e-10 -1.0629475077905681e-09 -0.003709835233166814" pbc="T T T"
Pt       1.40360696       0.81037286      20.00000000        3       0.00000142      -0.00000249      -0.24624428
Pt       4.21082088       0.81037286      20.00000000        3       0.00000198      -0.00000206      -0.24624281
Pt       7.01803480       0.81037286      20.00000000        3      -0.00000266      -0.00000239      -0.24624464
Pt       2.80721392       3.24149143      20.00000000        3       0.00000121      -0.00000056      -0.24624601
Pt       5.61442784       3.24149143      20.00000000        3      -0.00000216       0.00000022      -0.24624456
Pt       8.42164176       3.24149143      20.00000000        3       0.00000164       0.00000051      -0.24624629
Pt       4.21082088       5.67261000      20.00000000        3       0.00000292       0.00000127      -0.24624500
Pt       7.01803480       5.67261000      20.00000000        3      -0.00000158       0.00000217      -0.24624519
Pt       9.82524872       5.67261000      20.00000000        3      -0.00000146       0.00000288      -0.24624358
Pt       0.00000000       1.62074571      22.29208057        2       0.00000237      -0.00000134       0.00001202
Pt       2.80721392       1.62074571      22.29208057        2       0.00000095      -0.00000249       0.00001160
Pt       5.61442784       1.62074571      22.29208057        2      -0.00000263      -0.00000241       0.00001220
Pt       1.40360696       4.05186428      22.29208057        2      -0.00000223       0.00000128       0.00001238
Pt       4.21082088       4.05186428      22.29208057        2       0.00000403      -0.00000051       0.00001210
Pt       7.01803480       4.05186428      22.29208057        2      -0.00000205       0.00000020       0.00001248
Pt       2.80721392       6.48298285      22.29208057        2      -0.00000610       0.00000168       0.00001126
Pt       5.61442784       6.48298285      22.29208057        2      -0.00000122       0.00000129       0.00001186
Pt       8.42164176       6.48298285      22.29208057        2       0.00000471       0.00000273       0.00001253
Pt       0.00000000       0.00000000      24.58416114        1       0.00000291      -0.00000200       0.24623367
Pt       2.80721392       0.00000000      24.58416114        1       0.00000029      -0.00000158       0.24623202
Pt       5.61442784       0.00000000      24.58416114        1      -0.00000238      -0.00000181       0.24623077
Pt       1.40360696       2.43111857      24.58416114        1       0.00000108      -0.00000020       0.24623403
Pt       4.21082088       2.43111857      24.58416114        1       0.00000231      -0.00000023       0.24623267
Pt       7.01803480       2.43111857      24.58416114        1      -0.00000275       0.00000021       0.24623396
Pt       2.80721392       4.86223714      24.58416114        1       0.00000016       0.00000178       0.24623340
Pt       5.61442784       4.86223714      24.58416114        1      -0.00000231       0.00000112       0.24623145
Pt       8.42164176       4.86223714      24.58416114        1       0.00000141       0.00000276       0.24623263
