27
Lattice="8.421641763931781 0.0 0.0 4.2108208819658905 7.293355709136913 0.0 0.0 0.0 44.584161137365626" Properties=species:S:1:pos:R:3:tags:I:1:forces:R:3 charge=0 spin=0 energy=-137.51029614110868 free_energy=-137.51029614110868 stress="0.01211062353104353 -3.3337015370449308e-09 7.527422574149512e-10 -3.3337015370449308e-09 0.012110639363527298 9.452143928667667e-13 7.527422574149512e-10 9.452143928667667e-13 -0.00037514170981012285" pbc="T T T"
Pt       1.40360726       0.81037246      19.95766889        3      -0.00000103       0.00000511      -0.02443006
Pt       4.21082122       0.81037254      19.95766897        3      -0.00000046       0.00000396      -0.02442968
Pt       7.01803445       0.81037242      19.95766865        3       0.00000233       0.00000740      -0.02442695
Pt       2.80721411       3.24149134      19.95766856        3      -0.00000063      -0.00000206      -0.02442780
Pt       5.61442751       3.24149133      19.95766863        3       0.00000544      -0.00000048      -0.02442654
Pt       8.42164214       3.24149148      19.95766860        3      -0.00000498      -0.00000227      -0.02442442
Pt       4.21082075       5.67261030      19.95766888        3       0.00000326      -0.00000254      -0.02443587
Pt       7.01803478       5.67261047      19.95766883        3      -0.00000118      -0.00000578      -0.02443178
Pt       9.82524856       5.67261039      19.95766871        3      -0.00000123      -0.00000405      -0.02443218
Pt       0.00000048       1.62074539      22.29208304        2      -0.00000620       0.00000392      -0.00004599
Pt       2.80721419       1.62074532      22.29208312        2      -0.00000045       0.00000430      -0.00004577
Pt       5.61442748       1.62074565      22.29208288        2       0.00000437      -0.00000002      -0.00004478
Pt       1.40360675       4.05186458      22.29208315        2      -0.00000067      -0.00000345      -0.00004331
Pt       4.21082083       4.05186451      22.29208278        2       0.00000248      -0.00000418      -0.00003011
Pt       7.01803481       4.05186461      22.29208285        2      -0.00000168      -0.00000407      -0.00004362
Pt       2.80721465       6.48298241      22.29208273        2      -0.00000638       0.00000544      -0.00002926
Pt       5.61442775       6.48298326      22.29208277        2       0.00000328      -0.00000335      -0.00002791
Pt       8.42164094       6.48298260      22.29208273        2       0.00000345       0.00000283      -0.00002860
Pt      -0.00000002       0.00000026      24.62648991        1       0.00000105      -0.00000604       0.02446698
Pt       2.80721394       0.00000044      24.62648982        1      -0.00000043      -0.00000802       0.02446592
Pt       5.61442774       0.00000028      24.62649026        1       0.00000086      -0.00000522       0.02446403
Pt       1.40360742       2.43111830      24.62649014        1      -0.00000203       0.00000304       0.02447194
Pt       4.21082068       2.43111819      24.62649002        1       0.00000128       0.00000592       0.02446912
Pt       7.01803462       2.43111821      24.62649030        1       0.00000108       0.00000392       0.02446919
Pt       2.80721328       4.86223723      24.62648994        1       0.00000386       0.00000086       0.02446615
Pt       5.61442774       4.86223719      24.62649020        1       0.00000009       0.00000355       0.02446376
Pt       8.42164243       4.86223736      24.62649002        1      -0.00000543       0.00000131       0.02446768
