36
Lattice="8.421641763931781 0.0 0.0 4.2108208819658905 7.293355709136913 0.0 0.0 0.0 46.87624170604845" Properties=species:S:1:pos:R:3:tags:I:1:forces:R:3 charge=0 spin=0 energy=-187.00367709663286 free_energy=-187.00367709663286 stress="0.01049663033336401 1.3769205775560067e-09 1.5356877991479223e-09 1.3769205775560067e-09 0.010496653616428375 4.323349456214487e-10 1.5356877991479223e-09 4.323349456214487e-10 4.619660467142239e-05" pbc="T T T"
Pt      -0.00000014      -0.00000005      19.95723448        4      -0.00000159       0.00000294       0.01626823
Pt       2.80721406      -0.00000018      19.95723455        4      -0.00000075       0.00000237       0.01627023
Pt       5.61442784      -0.00000008      19.95723461        4       0.00000021       0.00000391       0.01627116
Pt       1.40360720       2.43111841      19.95723441        4      -0.00000072       0.00000171       0.01627332
Pt       4.21082081       2.43111836      19.95723450        4       0.00000324       0.00000143       0.01627175
Pt       7.01803478       2.43111845      19.95723437        4      -0.00000166       0.00000019       0.01628068
Pt       2.80721414       4.86223735      19.95723421        4      -0.00000017      -0.00000375       0.01627852
Pt       5.61442796       4.86223738      19.95723438        4       0.00000011      -0.00000568       0.01627691
Pt       8.42164142       4.86223726      19.95723445        4       0.00000136      -0.00000405       0.01627112
Pt       1.40360728       0.81037261      22.29206799        3      -0.00000118       0.00000249      -0.04297776
Pt       4.21082131       0.81037249      22.29206794        3      -0.00000151       0.00000445      -0.04298206
Pt       7.01803473       0.81037255      22.29206785        3       0.00000068       0.00000346      -0.04298431
Pt       2.80721448       3.24149122      22.29206776        3      -0.00000683       0.00000396      -0.04298131
Pt       5.61442764       3.24149120      22.29206794        3       0.00000466       0.00000425      -0.04298568
Pt       8.42164153       3.24149127      22.29206808        3       0.00000184       0.00000033      -0.04298326
Pt       4.21082092       5.67260997      22.29206740        3      -0.00000224      -0.00000011      -0.04296518
Pt       7.01803487       5.67261040      22.29206779        3      -0.00000445      -0.00000543      -0.04297974
Pt       9.82524819       5.67261067      22.29206809        3       0.00000914      -0.00000995      -0.04298289
Pt      -0.00000054       1.62074566      24.58417370        2       0.00000620      -0.00000176       0.04298409
Pt       2.80721438       1.62074550      24.58417389        2      -0.00000689       0.00000375       0.04298271
Pt       5.61442781       1.62074538      24.58417372        2      -0.00000175       0.00000518       0.04298224
Pt       1.40360638       4.05186447      24.58417387        2       0.00000814      -0.00000404       0.04298276
Pt       4.21082088       4.05186395      24.58417382        2      -0.00000169       0.00000709       0.04297781
Pt       7.01803505       4.05186408      24.58417402        2      -0.00000362       0.00000356       0.04297832
Pt       2.80721271       6.48298345      24.58417375        2       0.00001593      -0.00001037       0.04297976
Pt       5.61442805       6.48298329      24.58417395        2      -0.00000717      -0.00000284       0.04297737
Pt       8.42164225       6.48298337      24.58417373        2      -0.00000847      -0.00000497       0.04298252
Pt       0.00000047       0.00000000      26.91900747        1       0.00000087       0.00000027      -0.01627964
Pt       2.80721392      -0.00000012      26.91900720        1      -0.00000034       0.00000286      -0.01627112
Pt       5.61442780      -0.00000003      26.91900705        1      -0.00000102       0.00000112      -0.01626915
Pt       1.40360735       2.43111851      26.91900737        1      -0.00000020       0.00000052      -0.01628093
Pt       4.21082081       2.43111853      26.91900717        1       0.00000141      -0.00000032      -0.01627182
Pt       7.01803489       2.43111866      26.91900722        1      -0.00000018      -0.00000212      -0.01627061
Pt       2.80721396       4.86223721      26.91900749        1      -0.00000351       0.00000073      -0.01628055
Pt       5.61442795       4.86223739      26.91900727        1      -0.00000175      -0.00000150      -0.01627233
Pt       8.42164128       4.86223709      26.91900728        1       0.00000381       0.00000020      -0.01627122
