36
Lattice="8.421641763931781 0.0 0.0 4.2108208819658905 7.293355709136913 0.0 0.0 0.0 46.87624170604845" Properties=species:S:1:pos:R:3:tags:I:1:forces:R:3 charge=0 spin=0 energy=-186.93033381965532 free_energy=-186.93033381965532 stress="0.00856211967766285 -1.3711156654494516e-09 9.550042007200332e-11 -1.3711156654494516e-09 0.008562121540307999 -2.506509000355095e-09 9.550042007200332e-11 -2.506509000355095e-09 -0.0033283408265560865" pbc="T T T"
Pt       0.00000000       0.00000000      20.00000000        4       0.00000200      -0.00000290      -0.22563666
Pt       2.80721392       0.00000000      20.00000000        4       0.00000031      -0.00000210      -0.22563583
Pt       5.61442784       0.00000000      20.00000000        4      -0.00000250      -0.00000131      -0.22563513
Pt       1.40360696       2.43111857      20.00000000        4       0.00000120      -0.00000001      -0.22563793
Pt       4.21082088       2.43111857      20.00000000        4       0.00000193       0.00000009      -0.22563614
Pt       7.01803480       2.43111857      20.00000000        4      -0.00000258      -0.00000023      -0.22563814
Pt       2.80721392       4.86223714      20.00000000        4       0.00000076       0.00000098      -0.22563763
Pt       5.61442784       4.86223714      20.00000000        4      -0.00000237       0.00000166      -0.22563598
Pt       8.42164176       4.86223714      20.00000000        4       0.00000140       0.00000261      -0.22563736
Pt       1.40360696       0.81037286      22.29208057        3       0.00000145      -0.00000383       0.21236129
Pt       4.21082088       0.81037286      22.29208057        3       0.00000368      -0.00000316       0.21236086
Pt       7.01803480       0.81037286      22.29208057        3      -0.00000389      -0.00000295       0.21236145
Pt       2.80721392       3.24149143      22.29208057        3       0.00000089      -0.00000075       0.21235910
Pt       5.61442784       3.24149143      22.29208057        3      -0.00000337       0.00000013       0.21236056
Pt       8.42164176       3.24149143      22.29208057        3       0.00000268       0.00000090       0.21236098
Pt       4.21082088       5.67261000      22.29208057        3       0.00000484       0.00000162       0.21235865
Pt       7.01803480       5.67261000      22.29208057        3      -0.00000233       0.00000347       0.21235976
Pt       9.82524872       5.67261000      22.29208057        3      -0.00000260       0.00000395       0.21236126
Pt       0.00000000       1.62074571      24.58416114        2       0.00000320      -0.00000152      -0.21236049
Pt       2.80721392       1.62074571      24.58416114        2       0.00000094      -0.00000287      -0.21236001
Pt       5.61442784       1.62074571      24.58416114        2      -0.00000300      -0.00000310      -0.21236070
Pt       1.40360696       4.05186428      24.58416114        2      -0.00000293       0.00000153      -0.21236055
Pt       4.21082088       4.05186428      24.58416114        2       0.00000482      -0.00000004      -0.21235989
Pt       7.01803480       4.05186428      24.58416114        2      -0.00000244       0.00000015      -0.21236070
Pt       2.80721392       6.48298285      24.58416114        2      -0.00000714       0.00000224      -0.21236083
Pt       5.61442784       6.48298285      24.58416114        2      -0.00000173       0.00000226      -0.21236086
Pt       8.42164176       6.48298285      24.58416114        2       0.00000520       0.00000378      -0.21235970
Pt       0.00000000       0.00000000      26.87624171        1       0.00000256      -0.00000211       0.22563729
Pt       2.80721392       0.00000000      26.87624171        1       0.00000067      -0.00000139       0.22563593
Pt       5.61442784       0.00000000      26.87624171        1      -0.00000217      -0.00000203       0.22563435
Pt       1.40360696       2.43111857      26.87624171        1       0.00000122      -0.00000027       0.22563834
Pt       4.21082088       2.43111857      26.87624171        1       0.00000198      -0.00000040       0.22563627
Pt       7.01803480       2.43111857      26.87624171        1      -0.00000247       0.00000012       0.22563823
Pt       2.80721392       4.86223714      26.87624171        1       0.00000038       0.00000168       0.22563747
Pt       5.61442784       4.86223714      26.87624171        1      -0.00000225       0.00000110       0.22563589
Pt       8.42164176       4.86223714      26.87624171        1       0.00000165       0.00000279       0.22563693
