36
Lattice="8.421641763931781 0.0 0.0 4.2108208819658905 7.293355709136913 0.0 0.0 0.0 46.87624170604845" Properties=species:S:1:pos:R:3:tags:I:1:forces:R:3 charge=0 spin=0 energy=-186.93033381965532 free_energy=-186.93033381965532 stress="0.00856211967766285 -2.2052648596115887e-09 -6.329103352520349e-10 -2.2052648596115887e-09 0.008562121540307999 -1.8900823128831234e-09 -6.329103352520349e-10 -1.8900823128831234e-09 -0.0033283403608947992" pbc="T T T"
Pt       0.00000000       0.00000000      20.00000000        4       0.00000209      -0.00000300      -0.22563674
Pt       2.80721392       0.00000000      20.00000000        4       0.00000039      -0.00000212      -0.22563581
Pt       5.61442784       0.00000000      20.00000000        4      -0.00000259      -0.00000111      -0.22563502
Pt       1.40360696       2.43111857      20.00000000        4       0.00000126       0.00000009      -0.22563797
Pt       4.21082088       2.43111857      20.00000000        4       0.00000203      -0.00000002      -0.22563611
Pt       7.01803480       2.43111857      20.00000000        4      -0.00000275      -0.00000030      -0.22563832
Pt       2.80721392       4.86223714      20.00000000        4       0.00000095       0.00000093      -0.22563776
Pt       5.61442784       4.86223714      20.00000000        4      -0.00000232       0.00000171      -0.22563618
Pt       8.42164176       4.86223714      20.00000000        4       0.00000138       0.00000264      -0.22563738
Pt       1.40360696       0.81037286      22.29208057        3       0.00000154      -0.00000387       0.21236129
Pt       4.21082088       0.81037286      22.29208057        3       0.00000374      -0.00000316       0.21236090
Pt       7.01803480       0.81037286      22.29208057        3      -0.00000400      -0.00000295       0.21236153
Pt       2.80721392       3.24149143      22.29208057        3       0.00000093      -0.00000070       0.21235913
Pt       5.61442784       3.24149143      22.29208057        3      -0.00000339       0.00000005       0.21236055
Pt       8.42164176       3.24149143      22.29208057        3       0.00000263       0.00000084       0.21236108
Pt       4.21082088       5.67261000      22.29208057        3       0.00000480       0.00000152       0.21235891
Pt       7.01803480       5.67261000      22.29208057        3      -0.00000236       0.00000352       0.21235998
Pt       9.82524872       5.67261000      22.29208057        3      -0.00000262       0.00000403       0.21236135
Pt       0.00000000       1.62074571      24.58416114        2       0.00000318      -0.00000145      -0.21236029
Pt       2.80721392       1.62074571      24.58416114        2       0.00000083      -0.00000291      -0.21236001
Pt       5.61442784       1.62074571      24.58416114        2      -0.00000290      -0.00000304      -0.21236070
Pt       1.40360696       4.05186428      24.58416114        2      -0.00000303       0.00000156      -0.21236050
Pt       4.21082088       4.05186428      24.58416114        2       0.00000493      -0.00000003      -0.21235985
Pt       7.01803480       4.05186428      24.58416114        2      -0.00000249       0.00000024      -0.21236064
Pt       2.80721392       6.48298285      24.58416114        2      -0.00000714       0.00000227      -0.21236083
Pt       5.61442784       6.48298285      24.58416114        2      -0.00000163       0.00000214      -0.21236093
Pt       8.42164176       6.48298285      24.58416114        2       0.00000515       0.00000373      -0.21235968
Pt       0.00000000       0.00000000      26.87624171        1       0.00000256      -0.00000206       0.22563717
Pt       2.80721392       0.00000000      26.87624171        1       0.00000067      -0.00000148       0.22563581
Pt       5.61442784       0.00000000      26.87624171        1      -0.00000215      -0.00000207       0.22563428
Pt       1.40360696       2.43111857      26.87624171        1       0.00000116      -0.00000028       0.22563814
Pt       4.21082088       2.43111857      26.87624171        1       0.00000196      -0.00000046       0.22563641
Pt       7.01803480       2.43111857      26.87624171        1      -0.00000247       0.00000010       0.22563820
Pt       2.80721392       4.86223714      26.87624171        1       0.00000039       0.00000173       0.22563733
Pt       5.61442784       4.86223714      26.87624171        1      -0.00000218       0.00000110       0.22563583
Pt       8.42164176       4.86223714      26.87624171        1       0.00000160       0.00000282       0.22563696
