36
Lattice="8.421641763931781 0.0 0.0 4.2108208819658905 7.293355709136913 0.0 0.0 0.0 46.87624170604845" Properties=species:S:1:pos:R:3:tags:I:1:forces:R:3 charge=0 spin=0 energy=-186.93033381965532 free_energy=-186.93033381965532 stress="0.00856211967766285 -2.39181141559186e-09 -6.845630728946617e-10 -2.39181141559186e-09 0.008562121540307999 -1.981865338507305e-09 -6.845630728946617e-10 -1.981865338507305e-09 -0.0033283408265560865" pbc="T T T"
Pt       0.00000000       0.00000000      20.00000000        4       0.00000205      -0.00000295      -0.22563678
Pt       2.80721392       0.00000000      20.00000000        4       0.00000035      -0.00000213      -0.22563574
Pt       5.61442784       0.00000000      20.00000000        4      -0.00000253      -0.00000116      -0.22563504
Pt       1.40360696       2.43111857      20.00000000        4       0.00000127       0.00000005      -0.22563797
Pt       4.21082088       2.43111857      20.00000000        4       0.00000192      -0.00000003      -0.22563602
Pt       7.01803480       2.43111857      20.00000000        4      -0.00000270      -0.00000029      -0.22563827
Pt       2.80721392       4.86223714      20.00000000        4       0.00000082       0.00000093      -0.22563772
Pt       5.61442784       4.86223714      20.00000000        4      -0.00000222       0.00000171      -0.22563608
Pt       8.42164176       4.86223714      20.00000000        4       0.00000148       0.00000268      -0.22563747
Pt       1.40360696       0.81037286      22.29208057        3       0.00000155      -0.00000386       0.21236126
Pt       4.21082088       0.81037286      22.29208057        3       0.00000373      -0.00000320       0.21236083
Pt       7.01803480       0.81037286      22.29208057        3      -0.00000399      -0.00000295       0.21236148
Pt       2.80721392       3.24149143      22.29208057        3       0.00000090      -0.00000075       0.21235910
Pt       5.61442784       3.24149143      22.29208057        3      -0.00000337       0.00000005       0.21236053
Pt       8.42164176       3.24149143      22.29208057        3       0.00000265       0.00000087       0.21236111
Pt       4.21082088       5.67261000      22.29208057        3       0.00000481       0.00000154       0.21235883
Pt       7.01803480       5.67261000      22.29208057        3      -0.00000235       0.00000353       0.21235994
Pt       9.82524872       5.67261000      22.29208057        3      -0.00000261       0.00000403       0.21236134
Pt       0.00000000       1.62074571      24.58416114        2       0.00000314      -0.00000144      -0.21236034
Pt       2.80721392       1.62074571      24.58416114        2       0.00000084      -0.00000292      -0.21235999
Pt       5.61442784       1.62074571      24.58416114        2      -0.00000287      -0.00000310      -0.21236070
Pt       1.40360696       4.05186428      24.58416114        2      -0.00000302       0.00000160      -0.21236056
Pt       4.21082088       4.05186428      24.58416114        2       0.00000492      -0.00000001      -0.21235989
Pt       7.01803480       4.05186428      24.58416114        2      -0.00000247       0.00000020      -0.21236065
Pt       2.80721392       6.48298285      24.58416114        2      -0.00000716       0.00000227      -0.21236074
Pt       5.61442784       6.48298285      24.58416114        2      -0.00000163       0.00000215      -0.21236089
Pt       8.42164176       6.48298285      24.58416114        2       0.00000519       0.00000374      -0.21235973
Pt       0.00000000       0.00000000      26.87624171        1       0.00000253      -0.00000212       0.22563717
Pt       2.80721392       0.00000000      26.87624171        1       0.00000064      -0.00000146       0.22563587
Pt       5.61442784       0.00000000      26.87624171        1      -0.00000208      -0.00000198       0.22563426
Pt       1.40360696       2.43111857      26.87624171        1       0.00000114      -0.00000030       0.22563818
Pt       4.21082088       2.43111857      26.87624171        1       0.00000204      -0.00000044       0.22563644
Pt       7.01803480       2.43111857      26.87624171        1      -0.00000240       0.00000013       0.22563818
Pt       2.80721392       4.86223714      26.87624171        1       0.00000041       0.00000180       0.22563739
Pt       5.61442784       4.86223714      26.87624171        1      -0.00000224       0.00000101       0.22563581
Pt       8.42164176       4.86223714      26.87624171        1       0.00000151       0.00000281       0.22563696
