36
Lattice="8.421641763931781 0.0 0.0 4.2108208819658905 7.293355709136913 0.0 0.0 0.0 46.87624170604845" Properties=species:S:1:pos:R:3:tags:I:1:forces:R:3 charge=0 spin=0 energy=-187.00367709663286 free_energy=-187.00367709663286 stress="0.010496635921299458 2.3716457686617787e-09 1.4461549735500512e-09 2.3716457686617787e-09 0.010496653616428375 6.171712030322851e-10 1.4461549735500512e-09 6.171712030322851e-10 4.6194913011277094e-05" pbc="T T T"
Pt      -0.00000019      -0.00000002      19.95723448        4      -0.00000189       0.00000385       0.01626845
Pt       2.80721407      -0.00000019      19.95723451        4      -0.00000029       0.00000313       0.01627093
Pt       5.61442784      -0.00000016      19.95723459        4       0.00000040       0.00000350       0.01627131
Pt       1.40360721       2.43111843      19.95723438        4      -0.00000060       0.00000206       0.01627324
Pt       4.21082081       2.43111838      19.95723447        4       0.00000278       0.00000005       0.01627167
Pt       7.01803481       2.43111847      19.95723433        4      -0.00000098      -0.00000045       0.01628074
Pt       2.80721414       4.86223733      19.95723420        4      -0.00000316      -0.00000368       0.01627852
Pt       5.61442796       4.86223738      19.95723439        4       0.00000052      -0.00000504       0.01626874
Pt       8.42164142       4.86223724      19.95723441        4       0.00000293      -0.00000408       0.01627156
Pt       1.40360728       0.81037263      22.29206798        3      -0.00000106       0.00000128      -0.04297752
Pt       4.21082128       0.81037252      22.29206794        3      -0.00000139       0.00000461      -0.04298202
Pt       7.01803474       0.81037258      22.29206781        3       0.00000041       0.00000334      -0.04298354
Pt       2.80721450       3.24149122      22.29206773        3      -0.00000697       0.00000423      -0.04298128
Pt       5.61442762       3.24149121      22.29206787        3       0.00000456       0.00000059      -0.04298247
Pt       8.42164156       3.24149127      22.29206804        3       0.00000201       0.00000011      -0.04298345
Pt       4.21082088       5.67260997      22.29206743        3      -0.00000125       0.00000212      -0.04296270
Pt       7.01803488       5.67261041      22.29206778        3      -0.00000406      -0.00000318      -0.04297704
Pt       9.82524820       5.67261060      22.29206806        3       0.00000855      -0.00000987      -0.04298340
Pt      -0.00000057       1.62074568      24.58417373        2       0.00000510      -0.00000185       0.04298410
Pt       2.80721444       1.62074549      24.58417393        2      -0.00000802       0.00000368       0.04298266
Pt       5.61442780       1.62074539      24.58417379        2       0.00000206       0.00000530       0.04298121
Pt       1.40360640       4.05186442      24.58417388        2       0.00000839      -0.00000391       0.04298354
Pt       4.21082087       4.05186396      24.58417388        2      -0.00000229       0.00000776       0.04297836
Pt       7.01803502       4.05186406      24.58417406        2      -0.00000412       0.00000314       0.04297843
Pt       2.80721277       6.48298346      24.58417384        2       0.00001592      -0.00000968       0.04298041
Pt       5.61442803       6.48298327      24.58417397        2      -0.00000770      -0.00000304       0.04297687
Pt       8.42164222       6.48298340      24.58417377        2      -0.00000888      -0.00000553       0.04298240
Pt       0.00000043      -0.00000000      26.91900744        1      -0.00000080       0.00000053      -0.01627998
Pt       2.80721397      -0.00000013      26.91900720        1      -0.00000046       0.00000325      -0.01627091
Pt       5.61442780      -0.00000011      26.91900700        1       0.00000033       0.00000162      -0.01626934
Pt       1.40360734       2.43111852      26.91900741        1       0.00000020       0.00000111      -0.01628125
Pt       4.21082084       2.43111854      26.91900719        1       0.00000100       0.00000042      -0.01627169
Pt       7.01803487       2.43111866      26.91900724        1      -0.00000024      -0.00000242      -0.01627129
Pt       2.80721397       4.86223726      26.91900751        1      -0.00000324      -0.00000141      -0.01628155
Pt       5.61442796       4.86223737      26.91900726        1      -0.00000189      -0.00000165      -0.01627233
Pt       8.42164125       4.86223711      26.91900729        1       0.00000405       0.00000006      -0.01627143
