36
Lattice="8.421641763931781 0.0 0.0 4.2108208819658905 7.293355709136913 0.0 0.0 0.0 46.87624170604845" Properties=species:S:1:pos:R:3:tags:I:1:forces:R:3 charge=0 spin=0 energy=-187.00367709663286 free_energy=-187.00367709663286 stress="0.010496672242879868 -3.3664213083817174e-10 2.33631503032683e-10 -3.3664213083817174e-10 0.010496683418750763 -8.887805491575307e-10 2.33631503032683e-10 -8.887805491575307e-10 4.626484587788582e-05" pbc="T T T"
Pt       0.00000001       0.00000006      19.95723433        4       0.00000265      -0.00000146       0.01627979
Pt       2.80721393      -0.00000008      19.95723434        4      -0.00000178       0.00000180       0.01627947
Pt       5.61442780      -0.00000015      19.95723441        4      -0.00000116       0.00000290       0.01627150
Pt       1.40360723       2.43111837      19.95723424        4       0.00000000       0.00000124       0.01628100
Pt       4.21082079       2.43111838      19.95723434        4       0.00000191       0.00000037       0.01627973
Pt       7.01803483       2.43111847      19.95723421        4      -0.00000148       0.00000081       0.01628047
Pt       2.80721414       4.86223728      19.95723402        4       0.00000079      -0.00000332       0.01628125
Pt       5.61442801       4.86223737      19.95723422        4      -0.00000169      -0.00000247       0.01627987
Pt       8.42164144       4.86223721      19.95723422        4       0.00000090      -0.00000074       0.01628000
Pt       1.40360725       0.81037260      22.29206788        3      -0.00000165       0.00000267      -0.04298762
Pt       4.21082130       0.81037251      22.29206795        3      -0.00000366       0.00000529      -0.04298819
Pt       7.01803473       0.81037259      22.29206786        3       0.00000174       0.00000219      -0.04298643
Pt       2.80721450       3.24149123      22.29206777        3      -0.00000736       0.00000159      -0.04298652
Pt       5.61442766       3.24149123      22.29206786        3       0.00000292       0.00000034      -0.04298844
Pt       8.42164159       3.24149125      22.29206808        3       0.00000380       0.00000092      -0.04298871
Pt       4.21082094       5.67260998      22.29206753        3      -0.00000372       0.00000350      -0.04298574
Pt       7.01803462       5.67261035      22.29206782        3       0.00000084      -0.00000402      -0.04298697
Pt       9.82524814       5.67261058      22.29206813        3       0.00000558      -0.00001072      -0.04298693
Pt      -0.00000052       1.62074567      24.58417373        2       0.00000348      -0.00000070       0.04298823
Pt       2.80721443       1.62074543      24.58417392        2      -0.00000573       0.00000480       0.04298700
Pt       5.61442776       1.62074539      24.58417368        2       0.00000225       0.00000777       0.04298745
Pt       1.40360635       4.05186447      24.58417383        2       0.00000639      -0.00000411       0.04298482
Pt       4.21082087       4.05186396      24.58417393        2      -0.00000004       0.00000388       0.04298872
Pt       7.01803506       4.05186407      24.58417404        2      -0.00000403       0.00000298       0.04298780
Pt       2.80721276       6.48298344      24.58417386        2       0.00001420      -0.00000794       0.04298518
Pt       5.61442807       6.48298330      24.58417395        2      -0.00000397      -0.00000266       0.04298745
Pt       8.42164225       6.48298341      24.58417372        2      -0.00001034      -0.00000682       0.04298720
Pt       0.00000041      -0.00000001      26.91900756        1       0.00000018       0.00000209      -0.01628100
Pt       2.80721393      -0.00000011      26.91900732        1      -0.00000107       0.00000213      -0.01627926
Pt       5.61442785      -0.00000007      26.91900721        1      -0.00000055       0.00000262      -0.01626887
Pt       1.40360735       2.43111852      26.91900756        1      -0.00000085      -0.00000081      -0.01628108
Pt       4.21082081       2.43111862      26.91900732        1       0.00000185      -0.00000012      -0.01628002
Pt       7.01803488       2.43111866      26.91900738        1      -0.00000104      -0.00000114      -0.01628053
Pt       2.80721410       4.86223713      26.91900765        1       0.00000138      -0.00000018      -0.01628079
Pt       5.61442791       4.86223740      26.91900739        1      -0.00000136      -0.00000269      -0.01628066
Pt       8.42164125       4.86223710      26.91900746        1       0.00000055      -0.00000009      -0.01627928
