39
Lattice="8.421641763931781 0.0 0.0 4.2108208819658905 7.293355709136913 0.0 0.0 0.0 46.87624170604845" Properties=species:S:1:pos:R:3:tags:I:1:forces:R:3 charge=0 spin=0 energy=-75.96072863673169 free_energy=-75.96072863673169 stress="0.009747517295181751 -1.346040221505973e-06 -9.625101483834442e-06 -1.346040221505973e-06 0.009750096127390862 4.038005499751307e-06 -9.625101483834442e-06 4.038005499751307e-06 -0.0004167172883171588" pbc="T T T"
Pt      -0.00000014      -0.00000005      19.95723448        4       0.00522901      -0.01379715       0.01554767
Pt       2.80721406      -0.00000018      19.95723455        4      -0.01160617      -0.01311568       0.01503989
Pt       5.61442784      -0.00000008      19.95723461        4      -0.00003625      -0.00007792       0.02120573
Pt       1.40360720       2.43111841      19.95723441        4      -0.00003735       0.00014369       0.01166108
Pt       4.21082081       2.43111836      19.95723450        4       0.00948145       0.01148931       0.01525585
Pt       7.01803478       2.43111845      19.95723437        4      -0.00573815       0.01670163       0.01468730
Pt       2.80721414       4.86223735      19.95723421        4       0.01713334      -0.00321866       0.01492350
Pt       5.61442796       4.86223738      19.95723438        4       0.00002674      -0.00003589      -0.05039674
Pt       8.42164142       4.86223726      19.95723445        4      -0.01457794       0.00253232       0.01533234
Pt       1.40360728       0.81037261      22.29206799        3      -0.00212910       0.00781597      -0.06370293
Pt       4.21082131       0.81037249      22.29206794        3      -0.02806032      -0.00294934      -0.07637227
Pt       7.01803473       0.81037255      22.29206785        3       0.01063761       0.02591904      -0.07527972
Pt       2.80721448       3.24149122      22.29206776        3      -0.00517599      -0.00533322      -0.06554475
Pt       5.61442764       3.24149120      22.29206794        3      -0.00310749       0.02782888      -0.05518394
Pt       8.42164153       3.24149127      22.29206808        3       0.00744806      -0.00163972      -0.06440398
Pt       4.21082092       5.67260997      22.29206740        3       0.02571197      -0.01081470      -0.05384725
Pt       7.01803487       5.67261040      22.29206779        3      -0.02335082      -0.01574387      -0.05367000
Pt       9.82524819       5.67261067      22.29206809        3       0.01709109      -0.02179995      -0.07409338
Pt      -0.00000054       1.62074566      24.58417370        2       0.02514280       0.00817568      -0.01129546
Pt       2.80721438       1.62074550      24.58417389        2      -0.01925318       0.01648007      -0.00406203
Pt       5.61442781       1.62074538      24.58417372        2       0.01541491      -0.09795329       0.22029705
Pt       1.40360638       4.05186447      24.58417387        2      -0.00986320      -0.02198349       0.00022906
Pt       4.21082088       4.05186395      24.58417382        2       0.06814815       0.04176894      -0.05449741
Pt       7.01803505       4.05186408      24.58417402        2      -0.06784568       0.03895755      -0.05106843
Pt       2.80721271       6.48298345      24.58417375        2      -0.09330703       0.03305666       0.21296614
Pt       5.61442805       6.48298329      24.58417395        2       0.00485538      -0.08313859      -0.05775062
Pt       8.42164225       6.48298337      24.58417373        2       0.07769869       0.05558623       0.22244599
Pt      13.37822908       6.75211009      32.92159647        1       0.00162307      -0.00531975       0.02720128
Pt      15.45460597       2.44434215      26.90739663        1      -0.01344367      -0.00358790       0.00044048
Pt      16.85560369      -0.00977562      26.90138814        1      -0.00117369      -0.00426725       0.00151405
Pt      12.61794163      -2.43954827      26.90813293        1       0.00251370       0.00749771      -0.00916919
Pt      11.21148469       0.00054471      26.90670624        1      -0.00024971       0.00732737       0.00335071
Pt      18.24557389       2.43086354      26.91433779        1       0.00737802      -0.00246925       0.00087557
Pt      12.63264999       2.44526643      26.90425070        1       0.00861608      -0.00072096       0.00713596
Pt      14.03652272       4.85967100      26.94259915        1      -0.00207800       0.00319126       0.00440495
Pt      19.65672117       4.84393436      26.90755665        1      -0.00381425      -0.00013632      -0.00036773
C       12.47697775       6.19659197      34.73481540        0      -0.00091717       0.00072672      -0.00152264
O       11.66110702       6.98063372      34.80186758        0       0.00642509      -0.00169550      -0.00361390
O       13.21355554       6.85260274      32.82166384        0      -0.00480949       0.00459914       0.00132994
