39
Lattice="8.421641763931781 0.0 0.0 4.2108208819658905 7.293355709136913 0.0 0.0 0.0 46.87624170604845" Properties=species:S:1:pos:R:3:tags:I:1:forces:R:3 charge=0 spin=0 energy=-206.94792842005688 free_energy=-206.94792842005688 stress="0.007509500719606876 6.20483624516055e-05 4.2278352339053527e-05 6.20483624516055e-05 0.008596978150308132 -0.00027111705276183784 4.2278352339053527e-05 -0.00027111705276183784 -0.0005037383525632322" pbc="T T T"
Pt      -0.00000014      -0.00000005      19.95723448        4      -0.00346107      -0.01257428       0.00677558
Pt       2.80721406      -0.00000018      19.95723455        4       0.00242356      -0.01175025       0.01846511
Pt       5.61442784      -0.00000008      19.95723461        4      -0.00376295      -0.00769402       0.01488007
Pt       1.40360720       2.43111841      19.95723441        4       0.00416489      -0.00098364      -0.00091868
Pt       4.21082081       2.43111836      19.95723450        4       0.00011754      -0.00779414       0.01493155
Pt       7.01803478       2.43111845      19.95723437        4       0.00339131       0.00145445      -0.00070960
Pt       2.80721414       4.86223735      19.95723421        4       0.00099382       0.00177734       0.00242983
Pt       5.61442796       4.86223738      19.95723438        4       0.00205719      -0.00433247       0.00518616
Pt       8.42164142       4.86223726      19.95723445        4       0.00427680      -0.03203658       0.01599056
Pt       1.40360728       0.81037261      22.29206799        3       0.02648697      -0.02520802      -0.11803752
Pt       4.21082131       0.81037249      22.29206794        3       0.00278160      -0.03263309      -0.05750306
Pt       7.01803473       0.81037255      22.29206785        3      -0.02874896      -0.03461834      -0.12274142
Pt       2.80721448       3.24149122      22.29206776        3      -0.00387000      -0.00382730      -0.05782248
Pt       5.61442764       3.24149120      22.29206794        3       0.00047662      -0.00094969      -0.04969822
Pt       8.42164153       3.24149127      22.29206808        3      -0.02455694      -0.04125042       0.02540606
Pt       4.21082092       5.67260997      22.29206740        3       0.00927932      -0.00457697       0.01828163
Pt       7.01803487       5.67261040      22.29206779        3       0.06627900      -0.03604485      -0.20133714
Pt       9.82524819       5.67261067      22.29206809        3      -0.06596952      -0.02801456      -0.20740625
Pt      -0.00000054       1.62074566      24.58417370        2       0.00753635      -0.32725367      -0.01558242
Pt       2.80721438       1.62074550      24.58417389        2      -0.10472808      -0.02341226       0.07095814
Pt       5.61442781       1.62074538      24.58417372        2       0.11325473      -0.02139428       0.06561443
Pt       1.40360638       4.05186447      24.58417387        2       0.02468347       0.02032679       0.10043491
Pt       4.21082088       4.05186395      24.58417382        2      -0.03309599       0.12318584      -0.00654587
Pt       7.01803505       4.05186408      24.58417402        2       0.02134541       0.00676975       0.06511716
Pt       2.80721271       6.48298345      24.58417375        2       0.19389039       0.21569380       0.22893359
Pt       5.61442805       6.48298329      24.58417395        2      -0.19478309       0.22763601       0.19584066
Pt       8.42164225       6.48298337      24.58417373        2      -0.01041914       0.06667771      -0.02931585
Pt       0.07584853      -0.25174783      28.11611920        1      -0.02164182      -0.00204249       0.03001629
Pt       2.82259210       0.07271470      26.92282012        1      -0.00771626      -0.00361979      -0.00178691
Pt       5.59909695       0.06582033      26.91069883        1       0.00607850      -0.00194650       0.00379001
Pt       1.58738383       2.61285012      27.02921199        1       0.01195998       0.01067030       0.00093572
Pt       4.21619740       2.53374045      26.92307122        1      -0.02010081       0.00088457       0.01126671
Pt       6.84196167       2.58725789      27.03180137        1       0.01295136      -0.00786937      -0.00324134
Pt       2.79642555       4.96948020      26.92641161        1       0.01411296      -0.01763193       0.00198314
Pt       5.64832422       4.93496055      26.89514177        1      -0.01299919       0.00419034       0.01086416
Pt       8.43022683       4.90815787      26.92415490        1      -0.00536032       0.00161839       0.00239628
C        0.16813288      -1.31644220      29.61338459        0      -0.01440982      -0.00658018       0.00397862
O        0.22596710      -1.93832200      30.59724365        0      -0.00747600       0.00387124      -0.01396603
O        0.00699288       1.31897381      26.83948400        0       0.03455816       0.01128254      -0.02786361
