39
Lattice="8.421641763931781 0.0 0.0 4.2108208819658905 7.293355709136913 0.0 0.0 0.0 46.87624170604845" Properties=species:S:1:pos:R:3:tags:I:1:forces:R:3 charge=0 spin=0 energy=-208.34620570277173 free_energy=-208.34620570277173 stress="0.00780040118843317 -6.268465222092345e-05 -4.360879393061623e-05 -6.268465222092345e-05 0.008093304000794888 -5.404571311373729e-06 -4.360879393061623e-05 -5.404571311373729e-06 -0.0007170563330873847" pbc="T T T"
Pt      -0.00000014      -0.00000005      19.95723448        4      -0.00600443      -0.00552333       0.01608798
Pt       2.80721406      -0.00000018      19.95723455        4       0.00167147       0.00055005       0.01268735
Pt       5.61442784      -0.00000008      19.95723461        4       0.00555057       0.01929164      -0.01884323
Pt       1.40360720       2.43111841      19.95723441        4      -0.00415699       0.00535792       0.01872571
Pt       4.21082081       2.43111836      19.95723450        4       0.00208334       0.00092709       0.00998191
Pt       7.01803478       2.43111845      19.95723437        4      -0.00903959      -0.01469716      -0.02184256
Pt       2.80721414       4.86223735      19.95723421        4       0.01325870      -0.00399283      -0.01410433
Pt       5.61442796       4.86223738      19.95723438        4      -0.00181227      -0.00347472       0.01408588
Pt       8.42164142       4.86223726      19.95723445        4       0.00935250       0.01194879       0.00448735
Pt       1.40360728       0.81037261      22.29206799        3      -0.01540383      -0.00453577       0.02560629
Pt       4.21082131       0.81037249      22.29206794        3       0.01167728      -0.01302293      -0.09958211
Pt       7.01803473       0.81037255      22.29206785        3      -0.01933645       0.03456564      -0.11551964
Pt       2.80721448       3.24149122      22.29206776        3      -0.02454480       0.02719783      -0.06913888
Pt       5.61442764       3.24149120      22.29206794        3       0.05539864      -0.01655205      -0.13845848
Pt       8.42164153       3.24149127      22.29206808        3      -0.06350859       0.03305962      -0.22980259
Pt       4.21082092       5.67260997      22.29206740        3      -0.01008378      -0.01177387      -0.01969570
Pt       7.01803487       5.67261040      22.29206779        3       0.05389733      -0.03741490      -0.15032026
Pt       9.82524819       5.67261067      22.29206809        3      -0.01106294      -0.01014668      -0.10754504
Pt      -0.00000054       1.62074566      24.58417370        2       0.02672736      -0.26855499       0.27716032
Pt       2.80721438       1.62074550      24.58417389        2      -0.04150276      -0.03154496      -0.06128015
Pt       5.61442781       1.62074538      24.58417372        2       0.04706457       0.01799820      -0.22772051
Pt       1.40360638       4.05186447      24.58417387        2       0.21743722      -0.10020601       0.50726157
Pt       4.21082088       4.05186395      24.58417382        2      -0.14533935       0.12052075       0.03149342
Pt       7.01803505       4.05186408      24.58417402        2      -0.00013684      -0.05248072      -0.25989476
Pt       2.80721271       6.48298345      24.58417375        2       0.22961035       0.04648775       0.25635859
Pt       5.61442805       6.48298329      24.58417395        2      -0.19757235       0.15251760       0.17673542
Pt       8.42164225       6.48298337      24.58417373        2      -0.15480965       0.07726335       0.15615045
Pt      -0.12600842      -0.05052299      27.20591546        1       0.01078125      -0.02334747      -0.01386109
Pt       2.90323922      -0.05012511      26.92668416        1       0.00760779       0.00232008       0.02691514
Pt       5.58247872       0.02376532      26.88905082        1       0.00074832      -0.00163680       0.00526347
Pt       1.41339810       2.53558039      26.91006236        1      -0.00656379       0.01511549       0.01011983
Pt       4.23305354       2.45371610      26.87915693        1       0.00684918       0.00505101      -0.00134836
Pt       7.02093301       2.42110563      26.90156028        1      -0.00293625       0.01879281      -0.00067514
Pt       2.77374191       4.85185655      27.06402933        1       0.00920053       0.00055870      -0.00311392
Pt       5.64861319       4.84277655      26.87959841        1       0.00399808      -0.00324017      -0.00356573
Pt       8.42014398       4.85706920      26.90003217        1      -0.00853888      -0.00037183       0.00031062
C       -0.85648084      -1.33889879      28.61568119        0       0.00933890      -0.01909992       0.03859955
O       -0.89022792      -1.34846909      29.80085972        0       0.01871239       0.00422035       0.00204711
O        1.52491356       0.87821275      28.10769757        0      -0.01861216       0.02787269      -0.03376512
