31
Lattice="8.421641763931781 0.0 0.0 4.2108208819658905 7.293355709136913 0.0 0.0 0.0 44.584161137365626" Properties=species:S:1:pos:R:3:tags:I:1:forces:R:3 energy=-172.793212890625 free_energy=-172.793212890625 stress="0.010255726985633373 3.7818143061585374e-10 4.875547521265844e-09 3.7818143061585374e-10 0.010255716741085052 8.178512977963237e-09 4.875547521265844e-09 8.178512977963237e-09 -4.6705590648343787e-05" pbc="T T T"
Pt       1.40360696       0.81037286      20.00000000        3       0.00290645       0.00139606       0.00231463
Pt       4.21082088       0.81037286      20.00000000        3       0.00000172      -0.00000123      -0.00486049
Pt       7.01803480       0.81037286      20.00000000        3      -0.00228123       0.00265990       0.00166759
Pt       2.80721392       3.24149143      20.00000000        3      -0.00116470      -0.00330492       0.00166735
Pt       5.61442784       3.24149143      20.00000000        3      -0.00024346      -0.00321591       0.00231349
Pt       8.42164176       3.24149143      20.00000000        3       0.00000157       0.00000046       0.03026229
Pt       4.21082088       5.67261000      20.00000000        3       0.00000225       0.00000122      -0.01544431
Pt       7.01803480       5.67261000      20.00000000        3       0.00344275       0.00064543       0.00166664
Pt       9.82524872       5.67261000      20.00000000        3      -0.00266463       0.00181975       0.00231326
Pt      -0.00000000       1.62074571      22.29208057        2      -0.00400362       0.11403671       0.03495249
Pt       2.80721392       1.62074571      22.29208057        2      -0.13467741       0.06624741       0.03021925
Pt       5.61442784       1.62074571      22.29208057        2       0.12471034       0.08350755       0.03021841
Pt       1.40360696       4.05186428      22.29208057        2      -0.09675892      -0.06049076       0.03495004
Pt       4.21082088       4.05186428      22.29208057        2       0.00719883      -0.04540913      -0.07373709
Pt       7.01803480       4.05186428      22.29208057        2       0.10076244      -0.05355157       0.03495184
Pt       2.80721392       6.48298285      22.29208057        2      -0.04292201       0.01647433      -0.07373635
Pt       5.61442784       6.48298285      22.29208057        2       0.03572338       0.02894127      -0.07373583
Pt       8.42164176       6.48298285      22.29208057        2       0.00996600      -0.14975664       0.03021969
Pt      -0.01050968      -0.01354430      24.56854588        1       0.02909821       0.03360753      -0.00103374
Pt       2.81594387      -0.00866277      24.56865846        1      -0.01409032       0.02864901      -0.02491398
Pt       5.61756485       0.01189110      24.56865854        1      -0.01776655      -0.02652663      -0.02491339
Pt       1.42129160       2.40105444      24.60715459        1       0.01622877       0.01531122      -0.00091250
Pt       4.19895404       2.42788942      24.56865915        1       0.03185596      -0.00212291      -0.02491386
Pt       6.98315625       2.43083508      24.60715455        1       0.00514803      -0.02170834      -0.00091118
Pt       2.82419837       4.85990741      24.56854444        1      -0.04365290       0.00839373      -0.00102210
Pt       5.60795303       4.87811100      24.56854489        1       0.01455815      -0.04200307      -0.00102270
Pt       8.43883566       4.89258402      24.60715550        1      -0.02137861       0.00639969      -0.00091466
N        8.42164202       3.24149217      26.89807791        0      -0.00003143      -0.00005217       0.02242535
H        8.65476781       4.15848225      26.46327228        0      -0.02890715      -0.00168170       0.02062745
H        9.09921605       2.58110312      26.46327228        0       0.01296927       0.02590349       0.02064747
H        7.51094113       2.98488861      26.46327261        0       0.01596905      -0.02416964       0.02065449
