31
Lattice="8.421641763931781 0.0 0.0 4.2108208819658905 7.293355709136913 0.0 0.0 0.0 44.584161137365626" Properties=species:S:1:pos:R:3:tags:I:1:forces:R:3 energy=-172.80076599121094 free_energy=-172.80076599121094 stress="0.010380430147051811 5.440099037912205e-09 -6.135245089744501e-10 5.440099037912205e-09 0.010380451567471027 -2.943829402468623e-09 -6.135245089744501e-10 -2.943829402468623e-09 0.00013812334509566426" pbc="T T T"
Pt       1.40360696       0.81037286      20.00000000        3       0.00175860       0.00301087       0.00178042
Pt       4.21082088       0.81037286      20.00000000        3       0.00000186      -0.00000128      -0.00917000
Pt       7.01803480       0.81037286      20.00000000        3      -0.00208937       0.00282824       0.00179338
Pt       2.80721392       3.24149143      20.00000000        3      -0.00140636      -0.00322270       0.00179207
Pt       5.61442784       3.24149143      20.00000000        3       0.00172889      -0.00302925       0.00178003
Pt       8.42164176       3.24149143      20.00000000        3       0.00000161       0.00000054       0.03522700
Pt       4.21082088       5.67261000      20.00000000        3       0.00000229       0.00000141      -0.01458362
Pt       7.01803480       5.67261000      20.00000000        3       0.00349253       0.00039474       0.00179175
Pt       9.82524872       5.67261000      20.00000000        3      -0.00348971       0.00001833       0.00177878
Pt      -0.00000000       1.62074571      22.29208057        2       0.00085267       0.12743597       0.05054609
Pt       2.80721392       1.62074571      22.29208057        2      -0.13852096       0.08505634       0.03907473
Pt       5.61442784       1.62074571      22.29208057        2       0.14292143       0.07743270       0.03907480
Pt       1.40360696       4.05186428      22.29208057        2      -0.11078921      -0.06298354       0.05054627
Pt       4.21082088       4.05186428      22.29208057        2      -0.00003940      -0.03188383      -0.06163754
Pt       7.01803480       4.05186428      22.29208057        2       0.10993624      -0.06445704       0.05054490
Pt       2.80721392       6.48298285      22.29208057        2      -0.02759110       0.01597817      -0.06163695
Pt       5.61442784       6.48298285      22.29208057        2       0.02762994       0.01590814      -0.06163918
Pt       8.42164176       6.48298285      22.29208057        2      -0.00440004      -0.16248901       0.03907367
Pt      -0.00145577      -0.00628169      24.56941772        1      -0.00358348      -0.02452619      -0.00742798
Pt       2.80581199       0.00421245      24.56545394        1       0.02555438      -0.01176188      -0.00534275
Pt       5.61147983      -0.00332128      24.56545354        1      -0.00258535       0.02801353      -0.00534254
Pt       1.42917412       2.41956309      24.61814550        1      -0.01124249      -0.01084220      -0.00882182
Pt       4.21517029       2.43022609      24.56545414        1      -0.02296440      -0.01624919      -0.00534338
Pt       6.99524429       2.41475416      24.61814547        1      -0.00377096       0.01515640      -0.00882129
Pt       2.81338173       4.86411627      24.56941830        1       0.02303021       0.00916432      -0.00742784
Pt       5.60971636       4.86663870      24.56941817        1      -0.01945326       0.01536274      -0.00742713
Pt       8.41886464       4.89015633      24.61814579        1       0.01501570      -0.00431684      -0.00881831
N        8.42164112       3.24149210      26.94316000        0       0.00001278       0.00002641      -0.00878167
H        8.58080869       4.17741972      26.52136223        0      -0.02450633      -0.00391179      -0.01085326
H        9.15259469       2.63568652      26.52136178        0       0.00888847       0.02315420      -0.01086229
H        7.53152216       2.91137024      26.52136185        0       0.01560469      -0.01926856      -0.01086653
