31
Lattice="8.421641763931781 0.0 0.0 4.2108208819658905 7.293355709136913 0.0 0.0 0.0 44.584161137365626" Properties=species:S:1:pos:R:3:tags:I:1:forces:R:3 energy=-172.80897521972656 free_energy=-172.80897521972656 stress="0.010249955579638481 -2.9390099371084943e-05 1.2046853044012096e-06 -2.9390099371084943e-05 0.010283898562192917 6.961748795220046e-07 1.2046853044012096e-06 6.961748795220046e-07 -5.0517419367679395e-06" pbc="T T T"
Pt       1.40360696       0.81037286      20.00000000        3       0.00154524       0.00357584       0.00241086
Pt       4.21082088       0.81037286      20.00000000        3       0.00010159       0.00005588      -0.00896907
Pt       7.01803480       0.81037286      20.00000000        3      -0.00261105       0.00156764      -0.00206813
Pt       2.80721392       3.24149143      20.00000000        3      -0.00173269      -0.00380906       0.00406396
Pt       5.61442784       3.24149143      20.00000000        3       0.00005318      -0.00304407      -0.00206840
Pt       8.42164176       3.24149143      20.00000000        3       0.00104825       0.00060478       0.03430596
Pt       4.21082088       5.67261000      20.00000000        3      -0.00012567      -0.00007255      -0.01603514
Pt       7.01803480       5.67261000      20.00000000        3       0.00386867      -0.00044936       0.00240996
Pt       9.82524872       5.67261000      20.00000000        3      -0.00416652       0.00040483       0.00406402
Pt      -0.00000000       1.62074571      22.29208057        2       0.04131492       0.12694512       0.03362840
Pt       2.80721392       1.62074571      22.29208057        2      -0.15789799       0.09304471       0.05009504
Pt       5.61442784       1.62074571      22.29208057        2       0.10316779       0.05956359      -0.02880617
Pt       1.40360696       4.05186428      22.29208057        2      -0.11025105      -0.06365407       0.05075292
Pt       4.21082088       4.05186428      22.29208057        2      -0.00396987      -0.03556983      -0.07853831
Pt       7.01803480       4.05186428      22.29208057        2       0.13059388      -0.02769514       0.03362866
Pt       2.80721392       6.48298285      22.29208057        2      -0.03278892       0.01434662      -0.07853594
Pt       5.61442784       6.48298285      22.29208057        2       0.03574899       0.02064168      -0.07620283
Pt       8.42164176       6.48298285      22.29208057        2       0.00163198      -0.18326440       0.05009712
Pt       0.00363996      -0.00332976      24.56711297        1      -0.00097851      -0.00223584       0.00480513
Pt       2.80921821       0.00115760      24.56195678        1       0.01677061       0.00967477       0.00477441
Pt       5.61677926       0.00811589      24.56456230        1      -0.00498826      -0.01182665       0.00390631
Pt       1.43271296       2.42001150      24.62122089        1      -0.00169718       0.00020989      -0.00541127
Pt       4.21902508       2.42909664      24.56456241        1      -0.01273187       0.00159207       0.00390676
Pt       6.99866971       2.41993811      24.60123097        1       0.00206500       0.00119018       0.01021233
Pt       2.82499610       4.87250294      24.56471844        1       0.00104059       0.00060633       0.01161061
Pt       5.61336377       4.86705362      24.56711322        1      -0.00242176       0.00027487       0.00480680
Pt       8.42657581       4.89299612      24.62122150        1      -0.00066662      -0.00156864      -0.00541102
N        8.61850185       3.35514851      26.92569442        0       0.01956480       0.01129265       0.02498528
H        9.46902089       2.89489509      26.54854059        0      -0.00540607      -0.00318628      -0.00568666
H        7.82511258       2.89708521      26.43662453        0      -0.01061616      -0.00612549      -0.02104358
H        8.64517077       4.32184638      26.54854071        0      -0.00546531      -0.00309038      -0.00568836
