31
Lattice="8.421641763931781 0.0 0.0 4.2108208819658905 7.293355709136913 0.0 0.0 0.0 44.584161137365626" Properties=species:S:1:pos:R:3:tags:I:1:forces:R:3 energy=-172.575439453125 free_energy=-172.575439453125 stress="0.010545242577791214 4.3562027713051066e-05 -5.509665243152995e-06 4.3562027713051066e-05 0.01049521192908287 1.1597840966715012e-05 -5.509665243152995e-06 1.1597840966715012e-05 -0.00012013914965791628" pbc="T T T"
Pt       1.40360696       0.81037286      20.00000000        3       0.00031110       0.00118226      -0.00138968
Pt       4.21082088       0.81037286      20.00000000        3       0.00068856       0.00036375      -0.00524089
Pt       7.01803480       0.81037286      20.00000000        3      -0.00111162       0.00043863      -0.00392672
Pt       2.80721392       3.24149143      20.00000000        3      -0.00061707      -0.00083739       0.00243419
Pt       5.61442784       3.24149143      20.00000000        3      -0.00004492      -0.00116477      -0.00410968
Pt       8.42164176       3.24149143      20.00000000        3       0.00089884      -0.00012285       0.00689456
Pt       4.21082088       5.67261000      20.00000000        3      -0.00032097      -0.00016060      -0.00613019
Pt       7.01803480       5.67261000      20.00000000        3       0.00062756      -0.00010243      -0.00394046
Pt       9.82524872       5.67261000      20.00000000        3      -0.00045468       0.00035111       0.00005808
Pt      -0.00000000       1.62074571      22.29208057        2       0.03564789       0.04295151       0.02674951
Pt       2.80721392       1.62074571      22.29208057        2      -0.04664352       0.03454391       0.00318389
Pt       5.61442784       1.62074571      22.29208057        2       0.01000424       0.00575004      -0.04594879
Pt       1.40360696       4.05186428      22.29208057        2      -0.02153877      -0.02878624       0.04391055
Pt       4.21082088       4.05186428      22.29208057        2      -0.02308219      -0.00963758      -0.02192557
Pt       7.01803480       4.05186428      22.29208057        2       0.04504549       0.00011352       0.01556677
Pt       2.80721392       6.48298285      22.29208057        2      -0.01601255      -0.01163069      -0.02391632
Pt       5.61442784       6.48298285      22.29208057        2       0.00853671       0.00961400      -0.02985736
Pt       8.42164176       6.48298285      22.29208057        2       0.00669462      -0.04164750      -0.00911187
Pt      -0.00116837      -0.00534747      24.57862954        1      -0.00284660       0.01129258      -0.00653598
Pt       2.80758258      -0.00055047      24.57622515        1      -0.00006956       0.00036806      -0.00779426
Pt       5.61530210       0.00640742      24.57873330        1       0.00308171      -0.00563113      -0.00410214
Pt       1.41168652       2.41812410      24.59781677        1      -0.00626853       0.01011935       0.02197298
Pt       4.21629441       2.42922029      24.57886102        1      -0.00716124       0.00707017      -0.00327343
Pt       7.00966894       2.42715495      24.58337349        1       0.02899635       0.01774907       0.00005123
Pt       2.81431837       4.86705176      24.58331967        1      -0.02939931      -0.01537412      -0.00194640
Pt       5.60873396       4.86450606      24.57851455        1       0.00427806      -0.00535407      -0.00741044
Pt       8.41480285       4.87495333      24.58785912        1       0.00773206      -0.01307035       0.00253737
N        9.12357698       3.64625161      27.58833527        0       0.01010803      -0.01810095      -0.00560206
H        9.59630341       2.82761477      27.19136909        0      -0.00954367       0.01683235      -0.00836761
H        8.17594729       3.64498022      27.20167765        0       0.02165838       0.00799464       0.03816025
H        9.59842847       4.46647584      27.20180022        0      -0.01919430      -0.01511452       0.03901058
