31
Lattice="8.421641763931781 0.0 0.0 4.2108208819658905 7.293355709136913 0.0 0.0 0.0 44.584161137365626" Properties=species:S:1:pos:R:3:tags:I:1:forces:R:3 energy=-172.8042755126953 free_energy=-172.8042755126953 stress="0.010287951678037643 6.937860286271302e-10 2.1072050770953865e-09 6.937860286271302e-10 0.010287962853908539 -2.9819196001312775e-09 2.1072050770953865e-09 -2.9819196001312775e-09 2.5737066607689485e-05" pbc="T T T"
Pt       1.40360696       0.81037286      20.00000000        3       0.00218752       0.00302470       0.00097606
Pt       4.21082088       0.81037286      20.00000000        3       0.00000179      -0.00000145      -0.01219186
Pt       7.01803480       0.81037286      20.00000000        3      -0.00198279       0.00239060       0.00095284
Pt       2.80721392       3.24149143      20.00000000        3      -0.00108048      -0.00291192       0.00095260
Pt       5.61442784       3.24149143      20.00000000        3       0.00152643      -0.00340747       0.00097537
Pt       8.42164176       3.24149143      20.00000000        3       0.00000139       0.00000015       0.03240541
Pt       4.21082088       5.67261000      20.00000000        3       0.00000197       0.00000134      -0.01432976
Pt       7.01803480       5.67261000      20.00000000        3       0.00306053       0.00052138       0.00095177
Pt       9.82524872       5.67261000      20.00000000        3      -0.00371615       0.00038275       0.00097531
Pt      -0.00000000       1.62074571      22.29208057        2       0.00261389       0.12159418       0.04921645
Pt       2.80721392       1.62074571      22.29208057        2      -0.14873439       0.08593678       0.01205267
Pt       5.61442784       1.62074571      22.29208057        2       0.14878932       0.08583783       0.01205137
Pt       1.40360696       4.05186428      22.29208057        2      -0.10660762      -0.05853549       0.04921968
Pt       4.21082088       4.05186428      22.29208057        2      -0.00523700      -0.02981771      -0.07349338
Pt       7.01803480       4.05186428      22.29208057        2       0.10399695      -0.06306034       0.04921559
Pt       2.80721392       6.48298285      22.29208057        2      -0.02320489       0.01944254      -0.07349326
Pt       5.61442784       6.48298285      22.29208057        2       0.02843918       0.01037668      -0.07349674
Pt       8.42164176       6.48298285      22.29208057        2      -0.00005454      -0.17177397       0.01205037
Pt       0.00860746      -0.01200424      24.56953594        1      -0.02005246       0.02606807      -0.00906248
Pt       2.81249589       0.00130128      24.56071182        1      -0.02638393      -0.00282640       0.02084871
Pt       5.61065948       0.00392318      24.56071125        1       0.01564389      -0.02143408       0.02084944
Pt       1.43233300       2.42267551      24.61256532        1      -0.02811914       0.00079170       0.01037486
Pt       4.20930753       2.42589325      24.56071159        1       0.01073792       0.02426515       0.02084921
Pt       6.99636018       2.41046282      24.61256612        1       0.01474516       0.02395665       0.01037940
Pt       2.81330664       4.87569335      24.56953778        1      -0.01255164      -0.03040062      -0.00907175
Pt       5.59972849       4.86078539      24.56953702        1       0.03259860       0.00432923      -0.00906044
Pt       8.41459022       4.89133589      24.61256687        1       0.01338086      -0.02475221       0.01038357
N        8.42164243       3.24149051      26.94050987        0      -0.00000461       0.00001295      -0.04892781
H        8.33391217       4.18770253      26.52022076        0       0.01307226      -0.02019234       0.00248203
H        9.28494883       2.84436166      26.52021807        0      -0.02401359      -0.00122301       0.00248336
H        7.64606336       2.69241032      26.52021929        0       0.01094562       0.02140442       0.00248137
