31
Lattice="8.421641763931781 0.0 0.0 4.2108208819658905 7.293355709136913 0.0 0.0 0.0 44.584161137365626" Properties=species:S:1:pos:R:3:tags:I:1:forces:R:3 energy=-173.7055206298828 free_energy=-173.7055206298828 stress="0.0107019804418087 1.066654203896178e-05 -0.00010858543100766838 1.066654203896178e-05 0.010626274161040783 0.00012442005390767008 -0.00010858543100766838 0.00012442005390767008 2.5044191716006026e-05" pbc="T T T"
Pt       1.40360696       0.81037286      20.00000000        3       0.00109924       0.00497574       0.01145190
Pt       4.21082088       0.81037286      20.00000000        3       0.00418960      -0.00230046      -0.00983790
Pt       7.01803480       0.81037286      20.00000000        3      -0.00233138      -0.00082700      -0.00498095
Pt       2.80721392       3.24149143      20.00000000        3      -0.00302358      -0.00424281       0.01716441
Pt       5.61442784       3.24149143      20.00000000        3       0.00201491      -0.00824986      -0.00742763
Pt       8.42164176       3.24149143      20.00000000        3       0.00487764      -0.00438637       0.01765388
Pt       4.21082088       5.67261000      20.00000000        3      -0.00498862       0.00119307      -0.00822583
Pt       7.01803480       5.67261000      20.00000000        3       0.00618849       0.00183951      -0.01462907
Pt       9.82524872       5.67261000      20.00000000        3       0.00134224       0.00296354      -0.00681475
Pt      -0.00000000       1.62074571      22.29208057        2       0.05864492       0.05842259      -0.01836591
Pt       2.80721392       1.62074571      22.29208057        2      -0.10829189       0.08183374       0.00270554
Pt       5.61442784       1.62074571      22.29208057        2       0.00525813       0.03736986       0.00140833
Pt       1.40360696       4.05186428      22.29208057        2      -0.00014777      -0.06035652      -0.03938282
Pt       4.21082088       4.05186428      22.29208057        2      -0.08141928      -0.01954171       0.03163904
Pt       7.01803480       4.05186428      22.29208057        2       0.04033842      -0.04211052       0.01496963
Pt       2.80721392       6.48298285      22.29208057        2      -0.00442579      -0.00587978       0.00883117
Pt       5.61442784       6.48298285      22.29208057        2      -0.02864157       0.07669059       0.02199675
Pt       8.42164176       6.48298285      22.29208057        2      -0.00902513       0.01405201      -0.02863595
Pt      -0.02872130       0.01152061      24.59942628        1       0.01799774      -0.01684484      -0.00705174
Pt       2.79078671       0.01828182      24.59383788        1      -0.00596506      -0.00721560       0.02239569
Pt       5.59495992       0.02540372      24.58486208        1       0.02141309      -0.01373454       0.01699927
Pt       1.38181120       2.44679555      24.67381231        1       0.01962368      -0.00357246       0.00086308
Pt       4.20230060       2.45078436      24.60017659        1       0.00096430      -0.00777295      -0.01233080
Pt       6.99443402       2.45566311      24.61020250        1       0.01118699      -0.01596072       0.00311778
Pt       2.78232004       4.88521792      24.61129359        1       0.00548559      -0.01142304      -0.00255540
Pt       5.58950609       4.88340666      24.58461250        1       0.00308273      -0.00510646       0.01761091
Pt       8.38861236       4.90576206      24.59018738        1       0.02298573      -0.02185323       0.01011296
N        9.62938522       2.73092296      26.72176256        0       0.01489294      -0.02119118       0.00935042
H       10.05800536       1.94261704      27.21392203        0      -0.01123711       0.00974314      -0.04541013
H        8.63285270       2.80567216      26.94564526        0      -0.02320190      -0.03393920      -0.00238888
H       10.10321785       3.60762789      26.95570224        0       0.04111275       0.01742522      -0.00023307
