31
Lattice="8.421641763931781 0.0 0.0 4.2108208819658905 7.293355709136913 0.0 0.0 0.0 44.584161137365626" Properties=species:S:1:pos:R:3:tags:I:1:forces:R:3 energy=-172.80653381347656 free_energy=-172.80653381347656 stress="0.010291839018464088 -2.4543760357431665e-09 -6.676670327721013e-09 -2.4543760357431665e-09 0.010291854850947857 -9.985077209506699e-10 -6.676670327721013e-09 -9.985077209506699e-10 2.5777726477826945e-05" pbc="T T T"
Pt       1.40360696       0.81037286      20.00000000        3       0.00223442       0.00252587       0.00094765
Pt       4.21082088       0.81037286      20.00000000        3       0.00000159      -0.00000123      -0.00860566
Pt       7.01803480       0.81037286      20.00000000        3      -0.00223540       0.00252598       0.00094688
Pt       2.80721392       3.24149143      20.00000000        3      -0.00107154      -0.00319872       0.00094652
Pt       5.61442784       3.24149143      20.00000000        3       0.00107071      -0.00319834       0.00094715
Pt       8.42164176       3.24149143      20.00000000        3       0.00000124       0.00000046       0.03144303
Pt       4.21082088       5.67261000      20.00000000        3       0.00000222       0.00000120      -0.01521596
Pt       7.01803480       5.67261000      20.00000000        3       0.00330364       0.00067282       0.00094670
Pt       9.82524872       5.67261000      20.00000000        3      -0.00330674       0.00067246       0.00094613
Pt      -0.00000000       1.62074571      22.29208057        2      -0.00000052       0.12210000       0.04594621
Pt       2.80721392       1.62074571      22.29208057        2      -0.13821082       0.07979494       0.02789565
Pt       5.61442784       1.62074571      22.29208057        2       0.13821185       0.07979608       0.02789794
Pt       1.40360696       4.05186428      22.29208057        2      -0.10574262      -0.06105072       0.04594376
Pt       4.21082088       4.05186428      22.29208057        2       0.00000224      -0.03577151      -0.07026619
Pt       7.01803480       4.05186428      22.29208057        2       0.10573930      -0.06105264       0.04594700
Pt       2.80721392       6.48298285      22.29208057        2      -0.03097798       0.01788771      -0.07026587
Pt       5.61442784       6.48298285      22.29208057        2       0.03097704       0.01788676      -0.07026602
Pt       8.42164176       6.48298285      22.29208057        2       0.00000080      -0.15959054       0.02789568
Pt       0.00000031      -0.01027238      24.56857315        1       0.00000002       0.00925576      -0.00448562
Pt       2.80945444       0.00129345      24.56523444        1       0.00060790       0.00034924      -0.00526318
Pt       5.61218723       0.00129339      24.56523482        1      -0.00060764       0.00035257      -0.00526217
Pt       1.42909826       2.41640107      24.61131556        1      -0.01195674       0.00690215       0.00162614
Pt       4.21082091       2.42853136      24.56523439        1       0.00000202      -0.00070302      -0.00526160
Pt       6.99254350       2.41640106      24.61131578        1       0.01195341       0.00690188       0.00161327
Pt       2.81610994       4.86737314      24.56857346        1      -0.00801503      -0.00462622      -0.00448439
Pt       5.60553180       4.86737313      24.56857340        1       0.00801672      -0.00462767      -0.00448436
Pt       8.42164181       4.89167181      24.61131522        1      -0.00000052      -0.01380575       0.00162688
N        8.42164128       3.24149160      26.92948848        0       0.00003534       0.00001214       0.03301898
H        8.42164187       4.19293056      26.51547619        0      -0.00000614       0.01011141      -0.01088983
H        9.24561198       2.76577231      26.51547623        0       0.00875372      -0.00505677      -0.01088605
H        7.59767191       2.76577209      26.51547616        0      -0.00878243      -0.00506636      -0.01089858
