31
Lattice="8.421641763931781 0.0 0.0 4.2108208819658905 7.293355709136913 0.0 0.0 0.0 44.584161137365626" Properties=species:S:1:pos:R:3:tags:I:1:forces:R:3 energy=-172.57716369628906 free_energy=-172.57716369628906 stress="0.010478965006768703 -3.6911798062533308e-09 1.0039492570612651e-09 -3.6911798062533308e-09 0.010478981770575047 -1.6351584530838181e-09 1.0039492570612651e-09 -1.6351584530838181e-09 -0.00018221039499621838" pbc="T T T"
Pt       1.40360696       0.81037286      20.00000000        3      -0.00008720       0.00047749      -0.00420776
Pt       4.21082088       0.81037286      20.00000000        3       0.00106809       0.00043671      -0.00487050
Pt       7.01803480       0.81037286      20.00000000        3      -0.00091522       0.00070170      -0.00487134
Pt       2.80721392       3.24149143      20.00000000        3      -0.00009752      -0.00000941       0.00331879
Pt       5.61442784       3.24149143      20.00000000        3      -0.00015575      -0.00114286      -0.00487140
Pt       8.42164176       3.24149143      20.00000000        3       0.00004306       0.00009055       0.00331804
Pt       4.21082088       5.67261000      20.00000000        3      -0.00036921      -0.00031476      -0.00420782
Pt       7.01803480       5.67261000      20.00000000        3       0.00045723      -0.00016140      -0.00420931
Pt       9.82524872       5.67261000      20.00000000        3       0.00005599      -0.00007836       0.00331908
Pt      -0.00000000       1.62074571      22.29208057        2       0.02598479       0.03246774      -0.00567440
Pt       2.80721392       1.62074571      22.29208057        2      -0.02726795       0.03339231      -0.00389035
Pt       5.61442784       1.62074571      22.29208057        2      -0.00000252      -0.00000138      -0.05327009
Pt       1.40360696       4.05186428      22.29208057        2       0.00000157      -0.00000014       0.05031629
Pt       4.21082088       4.05186428      22.29208057        2      -0.04111107       0.00626671      -0.00567421
Pt       7.01803480       4.05186428      22.29208057        2       0.04255160       0.00691890      -0.00389008
Pt       2.80721392       6.48298285      22.29208057        2      -0.01528393      -0.04031089      -0.00389107
Pt       5.61442784       6.48298285      22.29208057        2      -0.00000204       0.00000188      -0.03515446
Pt       8.42164176       6.48298285      22.29208057        2       0.01512930      -0.03873358      -0.00567552
Pt       0.00112251      -0.00153372      24.57707676        1      -0.00738442      -0.00062453      -0.00708383
Pt       2.80532472      -0.00020522      24.57707680        1       0.00315257       0.00670761      -0.00708473
Pt       5.61492281       0.00689202      24.57902279        1       0.00323614      -0.01788388      -0.00410780
Pt       1.40101581       2.41651343      24.58942594        1      -0.00550716       0.02317738       0.00538440
Pt       4.21654209       2.42724368      24.57902283        1      -0.01710751       0.00613802      -0.00410733
Pt       7.01181827       2.42810136      24.57902275        1       0.01386878       0.01174462      -0.00410673
Pt       2.82115800       4.86729557      24.58942591        1      -0.01731794      -0.01635983       0.00538476
Pt       5.61519466       4.86397589      24.57707681        1       0.00423314      -0.00608431      -0.00708365
Pt       8.41028909       4.87178393      24.58942618        1       0.02282651      -0.00681607       0.00538559
N        9.82524900       4.05186429      27.59415607        0      -0.00000510       0.00001798       0.00236267
H       10.77036541       4.05669553      27.19876079        0      -0.02401203       0.02385972       0.03304613
H        9.35687423       3.23095332      27.19876059        0       0.03266413       0.00886236       0.03304408
H        9.34850642       4.86794403      27.19876060        0      -0.00864667      -0.03274028       0.03305255
