31
Lattice="8.421641763931781 0.0 0.0 4.2108208819658905 7.293355709136913 0.0 0.0 0.0 44.584161137365626" Properties=species:S:1:pos:R:3:tags:I:1:forces:R:3 energy=-172.79193115234375 free_energy=-172.79193115234375 stress="0.01031014509499073 -2.601017623504731e-09 -1.093733326129609e-09 -2.601017623504731e-09 0.010310152545571327 2.176583739632587e-11 -1.093733326129609e-09 2.176583739632587e-11 -5.318247349350713e-05" pbc="T T T"
Pt       1.40360696       0.81037286      20.00000000        3       0.00026876       0.00262260      -0.00198108
Pt       4.21082088       0.81037286      20.00000000        3       0.00082373       0.00125832      -0.00642559
Pt       7.01803480       0.81037286      20.00000000        3      -0.00150479       0.00007980      -0.00642776
Pt       2.80721392       3.24149143      20.00000000        3       0.00056977       0.00048103       0.01711330
Pt       5.61442784       3.24149143      20.00000000        3       0.00067810      -0.00134216      -0.00642750
Pt       8.42164176       3.24149143      20.00000000        3       0.00013380      -0.00073214       0.01711312
Pt       4.21082088       5.67261000      20.00000000        3      -0.00240536      -0.00107914      -0.00198177
Pt       7.01803480       5.67261000      20.00000000        3       0.00213748      -0.00154250      -0.00198203
Pt       9.82524872       5.67261000      20.00000000        3      -0.00070192       0.00025425       0.01711378
Pt      -0.00000000       1.62074571      22.29208057        2       0.11871847       0.08205715       0.00725969
Pt       2.80721392       1.62074571      22.29208057        2      -0.10593995       0.07567671       0.01753443
Pt       5.61442784       1.62074571      22.29208057        2      -0.00000249      -0.00000171      -0.12335856
Pt       1.40360696       4.05186428      22.29208057        2       0.00000088       0.00000008       0.07267497
Pt       4.21082088       4.05186428      22.29208057        2      -0.13042115       0.06178206       0.00726160
Pt       7.01803480       4.05186428      22.29208057        2       0.11850773       0.05390843       0.01753491
Pt       2.80721392       6.48298285      22.29208057        2      -0.01257023      -0.12958676       0.01753297
Pt       5.61442784       6.48298285      22.29208057        2       0.00000060       0.00000033      -0.04818111
Pt       8.42164176       6.48298285      22.29208057        2       0.01170642      -0.14383797       0.00726089
Pt       0.00823500       0.00938997      24.56825714        1      -0.01508067      -0.02343073      -0.02905753
Pt       2.81122891      -0.01182686      24.56825750        1      -0.01275235       0.02477653      -0.02906737
Pt       5.60570937       0.01462017      24.57019425        1       0.02185359      -0.03446755      -0.00114842
Pt       1.42189162       2.40891784      24.60961087        1      -0.02603497      -0.01961027      -0.00391513
Pt       4.22784187       2.43135831      24.57019421        1      -0.04077609      -0.00169301      -0.00114706
Pt       7.00973208       2.41625757      24.57019388        1       0.01892220       0.03616102      -0.00114569
Pt       2.81729826       4.88917185      24.60961071        1       0.02999986      -0.01274187      -0.00391687
Pt       5.60217796       4.86467319      24.56825803        1       0.02783464      -0.00134511      -0.02906656
Pt       8.39327327       4.85750265      24.60961198        1      -0.00396615       0.03235226      -0.00391500
N        9.82524869       4.05186449      26.91369083        0      -0.00000201      -0.00000458       0.03993446
H        8.91526849       4.30711512      26.47644988        0       0.02096210       0.02486924       0.02027025
H       10.50129230       4.71230450      26.47644988        0       0.01105705      -0.03058251       0.02026962
H       10.05918476       3.13617363      26.47644983        0      -0.03201689       0.00571801       0.02027119
