31
Lattice="8.421641763931781 0.0 0.0 4.2108208819658905 7.293355709136913 0.0 0.0 0.0 44.584161137365626" Properties=species:S:1:pos:R:3:tags:I:1:forces:R:3 energy=-172.64569091796875 free_energy=-172.64569091796875 stress="0.01056431233882904 5.770163458151956e-09 3.6961111948841108e-09 5.770163458151956e-09 0.01056431420147419 -1.045440400915254e-09 3.6961111948841108e-09 -1.045440400915254e-09 0.000129508160171099" pbc="T T T"
Pt       1.40360696       0.81037286      20.00000000        3       0.00000052       0.00392930       0.00387132
Pt       4.21082088       0.81037286      20.00000000        3       0.00160849       0.00092614       0.00035757
Pt       7.01803480       0.81037286      20.00000000        3      -0.00160975       0.00092519       0.00035569
Pt       2.80721392       3.24149143      20.00000000        3      -0.00078678       0.00045490       0.03163332
Pt       5.61442784       3.24149143      20.00000000        3      -0.00000211      -0.00185610       0.00035548
Pt       8.42164176       3.24149143      20.00000000        3       0.00078987       0.00045588       0.03163210
Pt       4.21082088       5.67261000      20.00000000        3      -0.00340231      -0.00196435       0.00387111
Pt       7.01803480       5.67261000      20.00000000        3       0.00340335      -0.00196319       0.00387049
Pt       9.82524872       5.67261000      20.00000000        3      -0.00000136      -0.00090744       0.03163368
Pt      -0.00000000       1.62074571      22.29208057        2       0.08638993       0.08268723       0.00364301
Pt       2.80721392       1.62074571      22.29208057        2      -0.08638740       0.08268850       0.00364233
Pt       5.61442784       1.62074571      22.29208057        2      -0.00000214       0.00000105      -0.05205613
Pt       1.40360696       4.05186428      22.29208057        2       0.00000128      -0.00000041       0.03507050
Pt       4.21082088       4.05186428      22.29208057        2      -0.11480368       0.03346869       0.00364308
Pt       7.01803480       4.05186428      22.29208057        2       0.11480194       0.03346955       0.00364454
Pt       2.80721392       6.48298285      22.29208057        2      -0.02841471      -0.11615898       0.00364116
Pt       5.61442784       6.48298285      22.29208057        2      -0.00000163       0.00000144      -0.05437887
Pt       8.42164176       6.48298285      22.29208057        2       0.02841642      -0.11615727       0.00363964
Pt       0.00256115      -0.00147868      24.56614468        1      -0.00538264       0.00310700      -0.00713778
Pt       2.80465314      -0.00147847      24.56614437        1       0.00538120       0.00310591      -0.00713709
Pt       5.61442779       0.00400311      24.58141990        1       0.00000106       0.01598509      -0.00493844
Pt       1.40360714       2.40793852      24.63180113        1       0.00000074       0.01428824      -0.00863411
Pt       4.21428790       2.42911654      24.58142023        1       0.01384288      -0.00798885      -0.00494793
Pt       7.01456785       2.42911657      24.58142055        1      -0.01384379      -0.00798925      -0.00494681
Pt       2.82728841       4.87382743      24.63180101        1      -0.01237195      -0.00714597      -0.00863631
Pt       5.61442756       4.86519419      24.56614433        1       0.00000145      -0.00621683      -0.00713652
Pt       8.40156721       4.87382689      24.63180150        1       0.01237072      -0.00714421      -0.00863507
N        9.82524890       4.05186382      26.88132072        0      -0.00001850       0.00000896       0.03621891
H        9.82524863       4.97044507      26.36859669        0       0.00000007       0.00314826      -0.01070920
H       10.62076425       3.59257423      26.36859719        0       0.00272550      -0.00158477      -0.01072028
H        9.02973269       3.59257407      26.36859660        0      -0.00270671      -0.00157356      -0.01070976
