31
Lattice="8.421641763931781 0.0 0.0 4.2108208819658905 7.293355709136913 0.0 0.0 0.0 44.584161137365626" Properties=species:S:1:pos:R:3:tags:I:1:forces:R:3 energy=-172.80630493164062 free_energy=-172.80630493164062 stress="0.010269241407513618 -1.004552352412702e-08 -6.718686496043347e-09 -1.004552352412702e-08 0.010269253514707088 -4.723186730615225e-09 -6.718686496043347e-09 -4.723186730615225e-09 9.026951374835335e-06" pbc="T T T"
Pt       1.40360696       0.81037286      20.00000000        3       0.00214468       0.00264008       0.00079560
Pt       4.21082088       0.81037286      20.00000000        3       0.00000165      -0.00000155      -0.00880846
Pt       7.01803480       0.81037286      20.00000000        3      -0.00214583       0.00264038       0.00079510
Pt       2.80721392       3.24149143      20.00000000        3      -0.00121553      -0.00317821       0.00079483
Pt       5.61442784       3.24149143      20.00000000        3       0.00121458      -0.00317755       0.00079411
Pt       8.42164176       3.24149143      20.00000000        3       0.00000139       0.00000063       0.03264317
Pt       4.21082088       5.67261000      20.00000000        3       0.00000251       0.00000149      -0.01720235
Pt       7.01803480       5.67261000      20.00000000        3       0.00335777       0.00053762       0.00079399
Pt       9.82524872       5.67261000      20.00000000        3      -0.00336094       0.00053778       0.00079393
Pt      -0.00000000       1.62074571      22.29208057        2       0.00000411       0.12738705       0.04131873
Pt       2.80721392       1.62074571      22.29208057        2      -0.13941242       0.08048914       0.02965423
Pt       5.61442784       1.62074571      22.29208057        2       0.13940841       0.08048674       0.02964960
Pt       1.40360696       4.05186428      22.29208057        2      -0.11032019      -0.06369709       0.04131959
Pt       4.21082088       4.05186428      22.29208057        2       0.00000040      -0.04157423      -0.08074424
Pt       7.01803480       4.05186428      22.29208057        2       0.11031961      -0.06369436       0.04131628
Pt       2.80721392       6.48298285      22.29208057        2      -0.03600308       0.02078814      -0.08074380
Pt       5.61442784       6.48298285      22.29208057        2       0.03600274       0.02078858      -0.08074452
Pt       8.42164176       6.48298285      22.29208057        2       0.00000085      -0.16097453       0.02965122
Pt       0.00000037      -0.01019395      24.56513536        1      -0.00000039       0.01071963       0.01351404
Pt       2.80876066       0.00089287      24.56436924        1       0.00933380       0.00539019      -0.00226429
Pt       5.61288105       0.00089295      24.56436890        1      -0.00933411       0.00538780      -0.00226396
Pt       1.42713126       2.41753680      24.61312644        1      -0.00276396       0.00159504      -0.00095110
Pt       4.21082114       2.42933250      24.56436885        1      -0.00000355      -0.01077912      -0.00226429
Pt       6.99451044       2.41753670      24.61312539        1       0.00276686       0.00159521      -0.00094093
Pt       2.81604202       4.86733391      24.56513589        1      -0.00928419      -0.00535931       0.01351522
Pt       5.60559973       4.86733356      24.56513562        1       0.00928174      -0.00535701       0.01351453
Pt       8.42164139       4.88940028      24.61312578        1       0.00000224      -0.00319184      -0.00094149
N        8.42164170       3.24149095      26.94056626        0       0.00004758       0.00004078      -0.03255174
H        9.24177605       2.76798689      26.51488981        0       0.02597916      -0.01500870       0.00652546
H        7.60150815       2.76798778      26.51489010        0      -0.02602871      -0.01504084       0.00650017
H        8.42164141       4.18849976      26.51488966        0       0.00000282       0.03000800       0.00653111
