31
Lattice="8.421641763931781 0.0 0.0 4.2108208819658905 7.293355709136913 0.0 0.0 0.0 44.584161137365626" Properties=species:S:1:pos:R:3:tags:I:1:forces:R:3 energy=-172.65194702148438 free_energy=-172.65194702148438 stress="0.010527045466005802 9.8180557017713e-09 -8.499288384200554e-09 9.8180557017713e-09 0.010527057573199272 -5.689045678991533e-09 -8.499288384200554e-09 -5.689045678991533e-09 0.00012942210014443845" pbc="T T T"
Pt       1.40360696       0.81037286      20.00000000        3       0.00164757       0.00305645       0.01138940
Pt       4.21082088       0.81037286      20.00000000        3       0.00000165      -0.00000166      -0.00398493
Pt       7.01803480       0.81037286      20.00000000        3      -0.00164905       0.00305698       0.01138854
Pt       2.80721392       3.24149143      20.00000000        3      -0.00182448      -0.00295625       0.01138854
Pt       5.61442784       3.24149143      20.00000000        3       0.00182400      -0.00295540       0.01138878
Pt       8.42164176       3.24149143      20.00000000        3       0.00000090       0.00000005       0.04825941
Pt       4.21082088       5.67261000      20.00000000        3       0.00000256       0.00000125      -0.00338623
Pt       7.01803480       5.67261000      20.00000000        3       0.00347029      -0.00010111       0.01138809
Pt       9.82524872       5.67261000      20.00000000        3      -0.00347393      -0.00010059       0.01138881
Pt      -0.00000000       1.62074571      22.29208057        2       0.00000169       0.09583860      -0.00173063
Pt       2.80721392       1.62074571      22.29208057        2      -0.12621501       0.07287004       0.01767446
Pt       5.61442784       1.62074571      22.29208057        2       0.12621452       0.07287011       0.01767460
Pt       1.40360696       4.05186428      22.29208057        2      -0.08299792      -0.04791963      -0.00172818
Pt       4.21082088       4.05186428      22.29208057        2       0.00000141      -0.01845648      -0.03355554
Pt       7.01803480       4.05186428      22.29208057        2       0.08299564      -0.04791903      -0.00172796
Pt       2.80721392       6.48298285      22.29208057        2      -0.01598368       0.00922811      -0.03355674
Pt       5.61442784       6.48298285      22.29208057        2       0.01598378       0.00922802      -0.03355795
Pt       8.42164176       6.48298285      22.29208057        2       0.00000067      -0.14574000       0.01767465
Pt       0.00000015      -0.00257084      24.58162398        1      -0.00000016      -0.00449410      -0.00638492
Pt       2.81078938       0.00206418      24.56716550        1      -0.00151417      -0.00087675      -0.00904194
Pt       5.61085232       0.00206416      24.56716537        1       0.00151422      -0.00087624      -0.00904253
Pt       1.42971608       2.41604402      24.62652000        1      -0.00350766       0.00202697      -0.00718573
Pt       4.21082074       2.42698947      24.56716548        1       0.00000072       0.00175070      -0.00904179
Pt       6.99192563       2.41604423      24.62651993        1       0.00350587       0.00202498      -0.00718817
Pt       2.80943984       4.86352220      24.58162475        1       0.00388943       0.00224652      -0.00639193
Pt       5.61220175       4.86352208      24.58162424        1      -0.00389048       0.00224631      -0.00639297
Pt       8.42164157       4.89238497      24.62652021        1       0.00000117      -0.00404797      -0.00718722
N        8.42164166       3.24149126      26.85797822        0       0.00004744       0.00002283       0.01048511
H        7.62457363       3.70167919      26.34499162        0       0.02188724      -0.01263877       0.00031924
H        9.21871075       3.70168046      26.34499222        0      -0.02193783      -0.01267218       0.00034469
H        8.42164124       2.32111607      26.34499206        0       0.00000349       0.02528839       0.00032094
