31
Lattice="8.421641763931781 0.0 0.0 4.2108208819658905 7.293355709136913 0.0 0.0 0.0 44.584161137365626" Properties=species:S:1:pos:R:3:tags:I:1:forces:R:3 energy=-172.6018829345703 free_energy=-172.6018829345703 stress="0.010518870316445827 1.0323152999092144e-08 1.8313231819888642e-08 1.0323152999092144e-08 0.010518886148929596 -7.764962006717724e-09 1.8313231819888642e-08 -7.764962006717724e-09 -1.5806634110049345e-05" pbc="T T T"
Pt       1.40360696       0.81037286      20.00000000        3       0.00067515       0.00123189      -0.00134280
Pt       4.21082088       0.81037286      20.00000000        3       0.00000180      -0.00000099      -0.00634682
Pt       7.01803480       0.81037286      20.00000000        3      -0.00067628       0.00123256      -0.00134319
Pt       2.80721392       3.24149143      20.00000000        3      -0.00073013      -0.00120146      -0.00134420
Pt       5.61442784       3.24149143      20.00000000        3       0.00072964      -0.00120088      -0.00134355
Pt       8.42164176       3.24149143      20.00000000        3       0.00000105       0.00000015       0.01187062
Pt       4.21082088       5.67261000      20.00000000        3       0.00000219       0.00000112      -0.00859866
Pt       7.01803480       5.67261000      20.00000000        3       0.00140388      -0.00003134      -0.00134444
Pt       9.82524872       5.67261000      20.00000000        3      -0.00140700      -0.00003036      -0.00134438
Pt      -0.00000000       1.62074571      22.29208057        2       0.00000191       0.05406183       0.04110660
Pt       2.80721392       1.62074571      22.29208057        2      -0.04278809       0.02470312      -0.01080840
Pt       5.61442784       1.62074571      22.29208057        2       0.04278650       0.02470291      -0.01080829
Pt       1.40360696       4.05186428      22.29208057        2      -0.04682015      -0.02703278       0.04110806
Pt       4.21082088       4.05186428      22.29208057        2       0.00000113      -0.01914884      -0.03130744
Pt       7.01803480       4.05186428      22.29208057        2       0.04681786      -0.02703195       0.04110662
Pt       2.80721392       6.48298285      22.29208057        2      -0.01658168       0.00957543      -0.03130776
Pt       5.61442784       6.48298285      22.29208057        2       0.01658114       0.00957538      -0.03130994
Pt       8.42164176       6.48298285      22.29208057        2       0.00000106      -0.04940475      -0.01080865
Pt       0.00000028      -0.00688295      24.57748740        1      -0.00000130       0.02061700      -0.00907660
Pt       2.80876317       0.00089447      24.57688563        1      -0.00320267      -0.00184890      -0.00630924
Pt       5.61287840       0.00089444      24.57688563        1       0.00320331      -0.00184965      -0.00630993
Pt       1.41500366       2.42453869      24.59691510        1      -0.01709590       0.00986986       0.02064748
Pt       4.21082088       2.42932945      24.57688564        1       0.00000129       0.00369946      -0.00630990
Pt       7.00663806       2.42453884      24.59691516        1       0.01709482       0.00986860       0.02064925
Pt       2.81317452       4.86567861      24.57748767        1      -0.01785292      -0.01030923      -0.00907663
Pt       5.60846724       4.86567867      24.57748755        1       0.01785269      -0.01030917      -0.00907594
Pt       8.42164181       4.87539681      24.59691517        1       0.00000074      -0.01973896       0.02064961
N        8.42164295       3.24149086      27.59226977        0      -0.00011632       0.00006028      -0.02898169
H        8.42164176       4.18641782      27.19286765        0       0.00000891      -0.02895549       0.00913603
H        9.23997074       2.76902894      27.19286807        0      -0.02497485       0.01442175       0.00908440
H        7.60331158       2.76902826      27.19286749        0       0.02508213       0.01447356       0.00913913
