31
Lattice="8.421641763931781 0.0 0.0 4.2108208819658905 7.293355709136913 0.0 0.0 0.0 44.584161137365626" Properties=species:S:1:pos:R:3:tags:I:1:forces:R:3 energy=-172.80886840820312 free_energy=-172.80886840820312 stress="0.010305294767022133 -2.184752702305559e-05 4.326177815983101e-07 -2.184752702305559e-05 0.01033056527376175 2.411435389149119e-07 4.326177815983101e-07 2.411435389149119e-07 8.44427449919749e-06" pbc="T T T"
Pt       1.40360696       0.81037286      20.00000000        3       0.00041410       0.00381826      -0.00013176
Pt       4.21082088       0.81037286      20.00000000        3       0.00130594       0.00075155      -0.00881276
Pt       7.01803480       0.81037286      20.00000000        3      -0.00152642       0.00026230      -0.00968212
Pt       2.80721392       3.24149143      20.00000000        3      -0.00092531      -0.00141617       0.01716641
Pt       5.61442784       3.24149143      20.00000000        3      -0.00053510      -0.00145229      -0.00968227
Pt       8.42164176       3.24149143      20.00000000        3       0.00160378       0.00092549       0.02362004
Pt       4.21082088       5.67261000      20.00000000        3      -0.00174352      -0.00100639      -0.00764793
Pt       7.01803480       5.67261000      20.00000000        3       0.00351356      -0.00154942      -0.00013316
Pt       9.82524872       5.67261000      20.00000000        3      -0.00169053      -0.00009186       0.01716661
Pt      -0.00000000       1.62074571      22.29208057        2       0.13441969       0.09835269       0.01990639
Pt       2.80721392       1.62074571      22.29208057        2      -0.14300224       0.09631567       0.02985351
Pt       5.61442784       1.62074571      22.29208057        2      -0.00348944      -0.00201490      -0.11545292
Pt       1.40360696       4.05186428      22.29208057        2      -0.03031512      -0.01750105       0.08498552
Pt       4.21082088       4.05186428      22.29208057        2      -0.10979156       0.02900857      -0.02290631
Pt       7.01803480       4.05186428      22.29208057        2       0.15238574       0.06723381       0.01991013
Pt       2.80721392       6.48298285      22.29208057        2      -0.02977409      -0.10958739      -0.02290634
Pt       5.61442784       6.48298285      22.29208057        2       0.01389960       0.00802565      -0.06293797
Pt       8.42164176       6.48298285      22.29208057        2       0.01191198      -0.17200270       0.02985699
Pt      -0.00008609      -0.00447357      24.56366529        1       0.00398317       0.01116739       0.00246856
Pt       2.80830278       0.00062911      24.56180354        1      -0.01166940      -0.00674576       0.00301600
Pt       5.61348933       0.00744554      24.56870363        1       0.00197148      -0.00027676       0.00529638
Pt       1.40519541       2.41065115      24.62482096        1      -0.00001553      -0.00104497      -0.00748194
Pt       4.21679972       2.42658266      24.56870354        1       0.00074917       0.00184864       0.00529712
Pt       7.00399382       2.42301136      24.56554116        1      -0.00259542      -0.00149519       0.01330602
Pt       2.82629997       4.87325686      24.60324842        1      -0.00105662      -0.00061211       0.01186106
Pt       5.61050971       4.86439850      24.56366533        1       0.01166745      -0.00213454       0.00246933
Pt       8.40471118       4.87384476      24.62482186        1      -0.00092117       0.00051807      -0.00749816
N        9.63083429       3.93961723      26.94625080        0      -0.02455601      -0.01411512       0.01649210
H        9.60362784       2.97506764      26.56311662        0       0.01124144       0.00211382      -0.00307840
H        8.78190855       4.39833382      26.56311460        0       0.00742097       0.00864702      -0.00304076
H       10.42217680       4.39650550      26.45243572        0       0.00711934       0.00405782      -0.02127948
