31
Lattice="8.421641763931781 0.0 0.0 4.2108208819658905 7.293355709136913 0.0 0.0 0.0 44.584161137365626" Properties=species:S:1:pos:R:3:tags:I:1:forces:R:3 energy=-172.80076599121094 free_energy=-172.80076599121094 stress="0.010380525141954422 3.118636238141903e-09 -1.2830961182430656e-08 3.118636238141903e-09 0.010380472987890244 1.415867689757988e-08 -1.2830961182430656e-08 1.415867689757988e-08 0.0001381865586154163" pbc="T T T"
Pt       1.40360696       0.81037286      20.00000000        3       0.00208744       0.00282766       0.00179350
Pt       4.21082088       0.81037286      20.00000000        3       0.00000120      -0.00000097      -0.00916955
Pt       7.01803480       0.81037286      20.00000000        3      -0.00175980       0.00301233       0.00178036
Pt       2.80721392       3.24149143      20.00000000        3      -0.00173018      -0.00302960       0.00177982
Pt       5.61442784       3.24149143      20.00000000        3       0.00140600      -0.00322277       0.00179318
Pt       8.42164176       3.24149143      20.00000000        3       0.00000135       0.00000037       0.03522906
Pt       4.21082088       5.67261000      20.00000000        3       0.00000216       0.00000133      -0.01458207
Pt       7.01803480       5.67261000      20.00000000        3       0.00348676       0.00001765       0.00177962
Pt       9.82524872       5.67261000      20.00000000        3      -0.00349575       0.00039423       0.00179315
Pt      -0.00000000       1.62074571      22.29208057        2      -0.00085396       0.12743703       0.05055815
Pt       2.80721392       1.62074571      22.29208057        2      -0.14292227       0.07743146       0.03908199
Pt       5.61442784       1.62074571      22.29208057        2       0.13852188       0.08505893       0.03909060
Pt       1.40360696       4.05186428      22.29208057        2      -0.10994017      -0.06445660       0.05055682
Pt       4.21082088       4.05186428      22.29208057        2       0.00004439      -0.03187805      -0.06162352
Pt       7.01803480       4.05186428      22.29208057        2       0.11078956      -0.06298188       0.05056103
Pt       2.80721392       6.48298285      22.29208057        2      -0.02762680       0.01590512      -0.06162225
Pt       5.61442784       6.48298285      22.29208057        2       0.02758507       0.01597481      -0.06162363
Pt       8.42164176       6.48298285      22.29208057        2       0.00440329      -0.16249327       0.03908882
Pt       0.00145546      -0.00627990      24.56942096        1       0.00357969      -0.02454263      -0.00744669
Pt       2.81016111      -0.00332226      24.56545672        1       0.00259720       0.02800845      -0.00535160
Pt       5.61583159       0.00421302      24.56545619        1      -0.02556079      -0.01175881      -0.00535178
Pt       1.42639733       2.41474904      24.61814783        1       0.00376664       0.01517276      -0.00883370
Pt       4.20646876       2.43022670      24.56545588        1       0.02298108      -0.01625467      -0.00535136
Pt       6.99246445       2.41956608      24.61814865        1       0.01124270      -0.01085475      -0.00885454
Pt       2.81192490       4.86663623      24.56942136        1       0.01946325       0.01537611      -0.00744590
Pt       5.60826217       4.86411675      24.56942148        1      -0.02304222       0.00916755      -0.00744638
Pt       8.42442278       4.89015702      24.61814914        1      -0.01502931      -0.00431048      -0.00885325
N        8.42164061       3.24149211      26.94314896        0       0.00007972      -0.00009047      -0.00863746
H        8.26248526       4.17742175      26.52136542        0       0.02446854      -0.00376950      -0.01092291
H        9.31176303       2.91136162      26.52136526        0      -0.01565798      -0.01927696      -0.01087443
H        7.69067832       2.63569291      26.52136470        0      -0.00888896       0.02313541      -0.01089474
