31
Lattice="8.421641763931781 0.0 0.0 4.2108208819658905 7.293355709136913 0.0 0.0 0.0 44.584161137365626" Properties=species:S:1:pos:R:3:tags:I:1:forces:R:3 energy=-172.575439453125 free_energy=-172.575439453125 stress="0.010545236989855766 4.355537021183409e-05 -5.508369667950319e-06 4.355537021183409e-05 0.010495207272469997 1.1602794984355569e-05 -5.508369667950319e-06 1.1602794984355569e-05 -0.00012014139065286145" pbc="T T T"
Pt       1.40360696       0.81037286      20.00000000        3       0.00031135       0.00118249      -0.00138912
Pt       4.21082088       0.81037286      20.00000000        3       0.00068854       0.00036361      -0.00524130
Pt       7.01803480       0.81037286      20.00000000        3      -0.00111185       0.00043844      -0.00392660
Pt       2.80721392       3.24149143      20.00000000        3      -0.00061748      -0.00083765       0.00243372
Pt       5.61442784       3.24149143      20.00000000        3      -0.00004488      -0.00116485      -0.00410995
Pt       8.42164176       3.24149143      20.00000000        3       0.00089899      -0.00012235       0.00689426
Pt       4.21082088       5.67261000      20.00000000        3      -0.00032099      -0.00016078      -0.00612974
Pt       7.01803480       5.67261000      20.00000000        3       0.00062774      -0.00010235      -0.00393993
Pt       9.82524872       5.67261000      20.00000000        3      -0.00045509       0.00035076       0.00005835
Pt      -0.00000000       1.62074571      22.29208057        2       0.03564766       0.04295087       0.02674879
Pt       2.80721392       1.62074571      22.29208057        2      -0.04664343       0.03454342       0.00318435
Pt       5.61442784       1.62074571      22.29208057        2       0.01000426       0.00574959      -0.04594853
Pt       1.40360696       4.05186428      22.29208057        2      -0.02153830      -0.02878586       0.04390793
Pt       4.21082088       4.05186428      22.29208057        2      -0.02308242      -0.00963727      -0.02192548
Pt       7.01803480       4.05186428      22.29208057        2       0.04504567       0.00011434       0.01556679
Pt       2.80721392       6.48298285      22.29208057        2      -0.01601226      -0.01163004      -0.02391627
Pt       5.61442784       6.48298285      22.29208057        2       0.00853699       0.00961360      -0.02985713
Pt       8.42164176       6.48298285      22.29208057        2       0.00669381      -0.04164849      -0.00911075
Pt      -0.00116833      -0.00534730      24.57862980        1      -0.00284572       0.01128983      -0.00653586
Pt       2.80758258      -0.00055045      24.57622549        1      -0.00006972       0.00036812      -0.00779471
Pt       5.61530204       0.00640719      24.57873352        1       0.00308227      -0.00562911      -0.00410268
Pt       1.41168620       2.41812461      24.59781631        1      -0.00626511       0.01011366       0.02197325
Pt       4.21629434       2.42922034      24.57886121        1      -0.00716143       0.00706762      -0.00327313
Pt       7.00966918       2.42715505      24.58337354        1       0.02899235       0.01774929       0.00005107
Pt       2.81431822       4.86705163      24.58331969        1      -0.02939441      -0.01537238      -0.00194621
Pt       5.60873407       4.86450595      24.57851476        1       0.00427975      -0.00535083      -0.00741029
Pt       8.41480308       4.87495287      24.58785892        1       0.00772551      -0.01306538       0.00253754
N        9.12357724       3.64625207      27.58833499        0       0.01009965      -0.01814163      -0.00559506
H        8.17594686       3.64498007      27.20167734        0       0.02165866       0.00799894       0.03816013
H        9.59842845       4.46647556      27.20180003        0      -0.01918249      -0.01508559       0.03899824
H        9.59630324       2.82761499      27.19136914        0      -0.00954761       0.01683971      -0.00836150
