31
Lattice="8.421641763931781 0.0 0.0 4.2108208819658905 7.293355709136913 0.0 0.0 0.0 44.584161137365626" Properties=species:S:1:pos:R:3:tags:I:1:forces:R:3 energy=-172.8055419921875 free_energy=-172.8055419921875 stress="0.010231142863631248 -2.0787229004781693e-05 9.824713924899697e-05 -2.0787229004781693e-05 0.010255117900669575 5.6723933084867895e-05 9.824713924899697e-05 5.6723933084867895e-05 -5.917810995015316e-05" pbc="T T T"
Pt       1.40360696       0.81037286      20.00000000        3       0.00072987       0.00306966       0.00427184
Pt       4.21082088       0.81037286      20.00000000        3      -0.00051492      -0.00030006      -0.00790805
Pt       7.01803480       0.81037286      20.00000000        3      -0.00367374       0.00022219      -0.00474948
Pt       2.80721392       3.24149143      20.00000000        3      -0.00297150      -0.00394665       0.00620434
Pt       5.61442784       3.24149143      20.00000000        3      -0.00164353      -0.00329112      -0.00474858
Pt       8.42164176       3.24149143      20.00000000        3       0.00016060       0.00009234       0.03382933
Pt       4.21082088       5.67261000      20.00000000        3      -0.00142880      -0.00082522      -0.01465935
Pt       7.01803480       5.67261000      20.00000000        3       0.00302302      -0.00090205       0.00427130
Pt       9.82524872       5.67261000      20.00000000        3      -0.00490479      -0.00059906       0.00620508
Pt      -0.00000000       1.62074571      22.29208057        2       0.06775109       0.13291122       0.02002023
Pt       2.80721392       1.62074571      22.29208057        2      -0.14975476       0.10423813       0.05781157
Pt       5.61442784       1.62074571      22.29208057        2       0.10109318       0.05836514      -0.04283760
Pt       1.40360696       4.05186428      22.29208057        2      -0.08819535      -0.05091599       0.06141352
Pt       4.21082088       4.05186428      22.29208057        2       0.00215989      -0.01869090      -0.08239247
Pt       7.01803480       4.05186428      22.29208057        2       0.14897548      -0.00778063       0.02002698
Pt       2.80721392       6.48298285      22.29208057        2      -0.01511414       0.01121244      -0.08239225
Pt       5.61442784       6.48298285      22.29208057        2       0.05875845       0.03392162      -0.07098310
Pt       8.42164176       6.48298285      22.29208057        2       0.01539937      -0.18181267       0.05782064
Pt       0.02783324       0.01203039      24.56748742        1      -0.00525587      -0.01786548       0.00482534
Pt       2.83632298       0.01680649      24.56492689        1      -0.01650218      -0.00953617      -0.01172538
Pt       5.64060873       0.01409811      24.56335518        1      -0.03699241       0.00792033       0.01106024
Pt       1.45097478       2.43372001      24.62335561        1       0.00758953      -0.01097175      -0.02257993
Pt       4.23611966       2.44674221      24.56335209        1      -0.01162188      -0.03599452       0.01107231
Pt       7.01179358       2.42751490      24.59224992        1      -0.00991892      -0.00572373       0.01752306
Pt       2.85409295       4.88930192      24.57053607        1      -0.03598262      -0.02076764      -0.01219924
Pt       5.63876322       4.88032692      24.56749103        1      -0.01809932       0.00437752       0.00480542
Pt       8.44757739       4.90195663      24.62335779        1      -0.00570105       0.01207568      -0.02260054
N        8.65416275       3.37573626      26.90602852        0      -0.01216713      -0.00702202       0.04639968
H        8.69247015       4.34700946      26.54188234        0      -0.00032342       0.01719114      -0.00790446
H        9.51446753       2.92327770      26.54188434        0       0.01466121      -0.00887893      -0.00792344
H        7.87705914       2.92707988      26.37849281        0       0.00046476       0.00022702       0.02804273
