31
Lattice="8.421641763931781 0.0 0.0 4.2108208819658905 7.293355709136913 0.0 0.0 0.0 44.584161137365626" Properties=species:S:1:pos:R:3:tags:I:1:forces:R:3 energy=-172.5789794921875 free_energy=-172.5789794921875 stress="0.010473089292645454 4.00066291206258e-09 3.836228668063768e-09 4.00066291206258e-09 0.010473099537193775 -6.611373115639196e-10 3.836228668063768e-09 -6.611373115639196e-10 -0.00020024080004077405" pbc="T T T"
Pt       1.40360696       0.81037286      20.00000000        3       0.00079662       0.00067822      -0.00219947
Pt       4.21082088       0.81037286      20.00000000        3       0.00000246      -0.00000163      -0.00540107
Pt       7.01803480       0.81037286      20.00000000        3      -0.00074933       0.00084633      -0.00204459
Pt       2.80721392       3.24149143      20.00000000        3      -0.00035988      -0.00107087      -0.00204617
Pt       5.61442784       3.24149143      20.00000000        3       0.00018963      -0.00103027      -0.00220010
Pt       8.42164176       3.24149143      20.00000000        3       0.00000129       0.00000037       0.00783584
Pt       4.21082088       5.67261000      20.00000000        3       0.00000272       0.00000129      -0.00681654
Pt       7.01803480       5.67261000      20.00000000        3       0.00110555       0.00022464      -0.00204554
Pt       9.82524872       5.67261000      20.00000000        3      -0.00098886       0.00035198      -0.00220075
Pt      -0.00000000       1.62074571      22.29208057        2      -0.00152503       0.04198109       0.02925923
Pt       2.80721392       1.62074571      22.29208057        2      -0.03240205       0.01846229      -0.02422176
Pt       5.61442784       1.62074571      22.29208057        2       0.03218905       0.01882873      -0.02422218
Pt       1.40360696       4.05186428      22.29208057        2      -0.03559429      -0.02231451       0.02925928
Pt       4.21082088       4.05186428      22.29208057        2      -0.00078047      -0.01329142      -0.03097754
Pt       7.01803480       4.05186428      22.29208057        2       0.03711745      -0.01966831       0.02926087
Pt       2.80721392       6.48298285      22.29208057        2      -0.01111801       0.00732717      -0.03097903
Pt       5.61442784       6.48298285      22.29208057        2       0.01190149       0.00596597      -0.03097800
Pt       8.42164176       6.48298285      22.29208057        2       0.00021212      -0.03729038      -0.02422245
Pt      -0.00056935      -0.00636831      24.57875338        1      -0.00298986       0.01932034      -0.00732347
Pt       2.80914027       0.00033107      24.57723238        1      -0.00364855      -0.00612853      -0.00424147
Pt       5.61317775       0.00150257      24.57723230        1       0.00713128      -0.00009538      -0.00424284
Pt       1.41585038       2.42122458      24.58945410        1      -0.02483307       0.00794670       0.00628337
Pt       4.21014463       2.42928475      24.57723234        1      -0.00348261       0.00622401      -0.00424278
Pt       7.00334456       2.42546260      24.58945414        1       0.01929906       0.01753144       0.00628485
Pt       2.81301386       4.86492802      24.57875340        1      -0.01523682      -0.01225146      -0.00732213
Pt       5.60919760       4.86591451      24.57875347        1       0.01822638      -0.00706924      -0.00733250
Pt       8.42408817       4.87778715      24.58945427        1       0.00553358      -0.02547843       0.00628515
N        8.42164183       3.24149132      27.59559766        0      -0.00002621       0.00000754       0.00372088
H        8.89837943       2.42587686      27.19906546        0       0.00926022       0.03346337       0.03568501
H        7.47692998       3.23643178      27.19906528        0       0.02437568      -0.02474836       0.03569773
H        8.88961591       4.06216566      27.19906532        0      -0.03360948      -0.00872266       0.03568853
