31
Lattice="8.421641763931781 0.0 0.0 4.2108208819658905 7.293355709136913 0.0 0.0 0.0 44.584161137365626" Properties=species:S:1:pos:R:3:tags:I:1:forces:R:3 energy=-172.80453491210938 free_energy=-172.80453491210938 stress="0.010309015400707722 1.3059502090850827e-10 2.0024570890342375e-09 1.3059502090850827e-10 0.010309040546417236 3.861735820009926e-09 2.0024570890342375e-09 3.861735820009926e-09 -2.4588773158029653e-05" pbc="T T T"
Pt       1.40360696       0.81037286      20.00000000        3       0.00024560       0.00310380      -0.00555369
Pt       4.21082088       0.81037286      20.00000000        3       0.00189961       0.00057225      -0.00842384
Pt       7.01803480       0.81037286      20.00000000        3      -0.00144786       0.00135367      -0.00842473
Pt       2.80721392       3.24149143      20.00000000        3      -0.00007390      -0.00009946       0.01854828
Pt       5.61442784       3.24149143      20.00000000        3      -0.00045387      -0.00192997      -0.00842440
Pt       8.42164176       3.24149143      20.00000000        3      -0.00004666       0.00011514       0.01854691
Pt       4.21082088       5.67261000      20.00000000        3      -0.00281059      -0.00133925      -0.00555381
Pt       7.01803480       5.67261000      20.00000000        3       0.00256567      -0.00176342      -0.00555515
Pt       9.82524872       5.67261000      20.00000000        3       0.00012240      -0.00001331       0.01854813
Pt      -0.00000000       1.62074571      22.29208057        2       0.10751054       0.10099376       0.00855667
Pt       2.80721392       1.62074571      22.29208057        2      -0.11438422       0.09611946       0.00601359
Pt       5.61442784       1.62074571      22.29208057        2      -0.00000248      -0.00000197      -0.10862531
Pt       1.40360696       4.05186428      22.29208057        2       0.00000098       0.00000006       0.08441173
Pt       4.21082088       4.05186428      22.29208057        2      -0.14121829       0.04260650       0.00855658
Pt       7.01803480       4.05186428      22.29208057        2       0.14043145       0.05099944       0.00601694
Pt       2.80721392       6.48298285      22.29208057        2      -0.02604894      -0.14711936       0.00601644
Pt       5.61442784       6.48298285      22.29208057        2      -0.00000284       0.00000058      -0.08293512
Pt       8.42164176       6.48298285      22.29208057        2       0.03371250      -0.14359936       0.00855648
Pt       0.00295087       0.00120990      24.55878951        1      -0.01112646      -0.00656911       0.02385831
Pt       2.80678597      -0.00315933      24.55878992        1      -0.00012053       0.01291404       0.02385981
Pt       5.62399365       0.01234342      24.57146225        1      -0.02427871      -0.01654585      -0.01096183
Pt       1.39730445       2.40983256      24.61359057        1       0.01066457       0.00379966       0.00526893
Pt       4.21672757       2.41666178      24.57146185        1      -0.00218768       0.02929880      -0.01096070
Pt       7.00256170       2.43323026      24.57146308        1       0.02646708      -0.01274909      -0.01095931
Pt       2.82880005       4.86742185      24.61359055        1      -0.00862404       0.00733902       0.00527172
Pt       5.61190504       4.86418659      24.55879059        1       0.01124662      -0.00635049       0.02385923
Pt       8.40635791       4.87833904      24.61359022        1      -0.00204091      -0.01113681       0.00526998
N        9.82524912       4.05186411      26.95092443        0      -0.00001913      -0.00003988      -0.01178864
H       10.68321477       4.45691448      26.52766140        0      -0.01727058       0.00299430       0.00232292
H        9.74704960       3.10631828      26.52765937        0       0.01123170       0.01350114       0.00235006
H        9.04548159       4.59235949      26.52766029        0       0.00605901      -0.01645432       0.00233376
