31
Lattice="8.421641763931781 0.0 0.0 4.2108208819658905 7.293355709136913 0.0 0.0 0.0 44.584161137365626" Properties=species:S:1:pos:R:3:tags:I:1:forces:R:3 energy=-172.57989501953125 free_energy=-172.57989501953125 stress="0.010525956749916077 4.706105755758472e-05 5.857303040102124e-05 4.706105755758472e-05 0.010471619665622711 3.381368878763169e-05 5.857303040102124e-05 3.381368878763169e-05 -0.00013547413982450962" pbc="T T T"
Pt       1.40360696       0.81037286      20.00000000        3      -0.00061312       0.00213020      -0.00299215
Pt       4.21082088       0.81037286      20.00000000        3       0.00014512       0.00008106      -0.00903258
Pt       7.01803480       0.81037286      20.00000000        3      -0.00100558       0.00141499      -0.00500405
Pt       2.80721392       3.24149143      20.00000000        3      -0.00164446      -0.00120262       0.00114885
Pt       5.61442784       3.24149143      20.00000000        3       0.00072400      -0.00157777      -0.00500384
Pt       8.42164176       3.24149143      20.00000000        3       0.00143646       0.00082935       0.01389748
Pt       4.21082088       5.67261000      20.00000000        3      -0.00060154      -0.00034709      -0.00966090
Pt       7.01803480       5.67261000      20.00000000        3       0.00153821      -0.00159599      -0.00299340
Pt       9.82524872       5.67261000      20.00000000        3      -0.00186527      -0.00082131       0.00114876
Pt      -0.00000000       1.62074571      22.29208057        2       0.03828073       0.06413436       0.02288255
Pt       2.80721392       1.62074571      22.29208057        2      -0.05150542       0.04289507      -0.00485567
Pt       5.61442784       1.62074571      22.29208057        2       0.03183848       0.01838183      -0.03857541
Pt       1.40360696       4.05186428      22.29208057        2      -0.04868878      -0.02811107       0.04125209
Pt       4.21082088       4.05186428      22.29208057        2      -0.01980654      -0.01047415      -0.03542259
Pt       7.01803480       4.05186428      22.29208057        2       0.07468004       0.00108189       0.02288288
Pt       2.80721392       6.48298285      22.29208057        2      -0.01897453      -0.01191608      -0.03542192
Pt       5.61442784       6.48298285      22.29208057        2       0.01025633       0.00592415      -0.04682960
Pt       8.42164176       6.48298285      22.29208057        2       0.01139763      -0.06605065      -0.00485647
Pt      -0.00154414      -0.00184411      24.57164879        1       0.00867246      -0.01877683       0.02614504
Pt       2.80719725      -0.00000993      24.56783219        1       0.00796802       0.00460157       0.03423122
Pt       5.62024762       0.01092622      24.57383944        1      -0.00109481       0.00844092       0.01765260
Pt       1.41977777       2.42112022      24.60467310        1       0.00120140      -0.00040127      -0.03186034
Pt       4.22319360       2.43069585      24.57383997        1       0.00676179      -0.00517050       0.01765290
Pt       7.02910868       2.43751191      24.59023781        1      -0.03295355      -0.01902500      -0.01324102
Pt       2.80728744       4.86227948      24.57686677        1       0.03597647       0.02077163       0.01433857
Pt       5.61205856       4.86182174      24.57164929        1      -0.01192322       0.01689832       0.02614573
Pt       8.42106860       4.88124050      24.60467341        1       0.00025283       0.00124072      -0.03186028
N        9.12246438       3.64611074      27.59995624        0       0.00018035       0.00013432       0.01548970
H        9.10809639       4.58521530      27.19199402        0      -0.01609779      -0.01787649      -0.00792129
H        9.92856863       3.16411724      27.19199440        0      -0.02352673      -0.00501819      -0.00793349
H        8.28916135       3.16500462      27.25214724        0      -0.00100906      -0.00059547       0.03859666
