31
Lattice="8.421641763931781 0.0 0.0 4.2108208819658905 7.293355709136913 0.0 0.0 0.0 44.584161137365626" Properties=species:S:1:pos:R:3:tags:I:1:forces:R:3 energy=-172.80596923828125 free_energy=-172.80596923828125 stress="0.010263830423355103 -4.4497050112113357e-05 -8.822540257824585e-05 -4.4497050112113357e-05 0.010315212421119213 -5.09335077367723e-05 -8.822540257824585e-05 -5.09335077367723e-05 -2.5160336008411832e-05" pbc="T T T"
Pt       1.40360696       0.81037286      20.00000000        3       0.00177813       0.00456403       0.00073361
Pt       4.21082088       0.81037286      20.00000000        3       0.00236062       0.00136071      -0.00847059
Pt       7.01803480       0.81037286      20.00000000        3      -0.00119693       0.00088880      -0.00833583
Pt       2.80721392       3.24149143      20.00000000        3      -0.00033483      -0.00209167       0.01607439
Pt       5.61442784       3.24149143      20.00000000        3       0.00017258      -0.00148026      -0.00833595
Pt       8.42164176       3.24149143      20.00000000        3       0.00228255       0.00131741       0.02806619
Pt       4.21082088       5.67261000      20.00000000        3      -0.00046876      -0.00027040      -0.01008582
Pt       7.01803480       5.67261000      20.00000000        3       0.00484156      -0.00074137       0.00073180
Pt       9.82524872       5.67261000      20.00000000        3      -0.00198042       0.00075702       0.01607490
Pt      -0.00000000       1.62074571      22.29208057        2       0.11912407       0.10259592       0.02592499
Pt       2.80721392       1.62074571      22.29208057        2      -0.16237150       0.08812183       0.02519218
Pt       5.61442784       1.62074571      22.29208057        2      -0.01717946      -0.00992047      -0.12073044
Pt       1.40360696       4.05186428      22.29208057        2      -0.05769183      -0.03330895       0.08369070
Pt       4.21082088       4.05186428      22.29208057        2      -0.10972559       0.01324053      -0.04019948
Pt       7.01803480       4.05186428      22.29208057        2       0.14841554       0.05186130       0.02591883
Pt       2.80721392       6.48298285      22.29208057        2      -0.04339272      -0.10164239      -0.04019318
Pt       5.61442784       6.48298285      22.29208057        2       0.00831487       0.00480851      -0.06137198
Pt       8.42164176       6.48298285      22.29208057        2      -0.00486539      -0.18467656       0.02519199
Pt      -0.01517078      -0.01109112      24.56280271        1       0.01351903      -0.00445019       0.00656343
Pt       2.79524252      -0.00691213      24.56256657        1      -0.01721039      -0.00993546      -0.00171609
Pt       5.59571053      -0.00619252      24.56863167        1       0.01606091       0.01267095       0.00780156
Pt       1.38697525       2.39675982      24.62805716        1       0.00597110       0.03318489      -0.00592659
Pt       4.19609941       2.41800495      24.56863293        1       0.01900641       0.00757142       0.00780043
Pt       6.97798737       2.40799752      24.56969596        1       0.03842847       0.02218188      -0.00401008
Pt       2.81351264       4.86587300      24.59392453        1      -0.00277519      -0.00159803       0.02677783
Pt       5.59723769       4.85464369      24.56279884        1       0.00290243       0.01393567       0.00658599
Pt       8.38356992       4.86501212      24.62805820        1       0.03173243      -0.01141994      -0.00592170
N        9.57409587       3.90686276      26.93106438        0      -0.02168955      -0.01254700      -0.01034263
H        8.71186817       4.35549531      26.56361179        0       0.01762742       0.00683979      -0.00304851
H       10.34457448       4.35169717      26.38980085        0      -0.00638073      -0.00366798       0.02859429
H        9.53150961       2.93583594      26.56361016        0       0.01472504       0.01184975      -0.00303369
