31
Lattice="8.421641763931781 0.0 0.0 4.2108208819658905 7.293355709136913 0.0 0.0 0.0 44.584161137365626" Properties=species:S:1:pos:R:3:tags:I:1:forces:R:3 energy=-173.71566772460938 free_energy=-173.71566772460938 stress="0.010731197893619537 -3.274057913671413e-09 2.1988597609379212e-09 -3.274057913671413e-09 0.010731207206845284 2.7975901595311825e-09 2.1988597609379212e-09 2.7975901595311825e-09 2.105182829836849e-05" pbc="T T T"
Pt       1.40360696       0.81037286      20.00000000        3      -0.00236974      -0.00071535      -0.00491866
Pt       4.21082088       0.81037286      20.00000000        3      -0.00012656       0.00453533       0.01195180
Pt       7.01803480       0.81037286      20.00000000        3       0.00180068      -0.00169833      -0.00491950
Pt       2.80721392       3.24149143      20.00000000        3       0.00399411      -0.00215776       0.01195085
Pt       5.61442784       3.24149143      20.00000000        3      -0.00386720      -0.00237949       0.01195022
Pt       8.42164176       3.24149143      20.00000000        3       0.00072775      -0.00597922      -0.00801814
Pt       4.21082088       5.67261000      20.00000000        3       0.00057000       0.00241038      -0.00491929
Pt       7.01803480       5.67261000      20.00000000        3      -0.00554356       0.00236340      -0.00801855
Pt       9.82524872       5.67261000      20.00000000        3       0.00481448       0.00362097      -0.00801820
Pt      -0.00000000       1.62074571      22.29208057        2       0.01000058       0.00663392       0.01779860
Pt       2.80721392       1.62074571      22.29208057        2       0.05779659       0.03318398      -0.03198576
Pt       5.61442784       1.62074571      22.29208057        2      -0.05763955       0.03345821      -0.03198562
Pt       1.40360696       4.05186428      22.29208057        2       0.04849417      -0.03198709       0.04052562
Pt       4.21082088       4.05186428      22.29208057        2      -0.00015683      -0.06664532      -0.03198563
Pt       7.01803480       4.05186428      22.29208057        2      -0.05195048      -0.02600311       0.04052789
Pt       2.80721392       6.48298285      22.29208057        2      -0.01074484       0.00534272       0.01779929
Pt       5.61442784       6.48298285      22.29208057        2       0.00074595      -0.01197550       0.01779767
Pt       8.42164176       6.48298285      22.29208057        2       0.00345561       0.05799312       0.04052518
Pt       0.00000041      -0.00000004      24.59176464        1      -0.00000153      -0.00000211      -0.01549578
Pt       2.79914808      -0.01412724      24.60009216        1      -0.01577355      -0.01933712      -0.01380639
Pt       5.61287453       0.00498580      24.60838704        1       0.02505227      -0.03914000      -0.01027592
Pt       1.40870184       2.42997042      24.60838715        1      -0.04642463      -0.00212431      -0.01027575
Pt       4.21082117       2.43111887      24.65832943        1      -0.00000128       0.00000040      -0.02947095
Pt       7.03430235       2.43119650      24.60009262        1       0.02463512      -0.00399017      -0.01380600
Pt       2.79901241       4.87628582      24.60009229        1      -0.00885648       0.02333058      -0.01380569
Pt       5.61088636       4.85839906      24.60838708        1       0.02137242       0.04126739      -0.01027583
Pt       8.42164202       4.86223727      24.59135599        1      -0.00000450      -0.00000257      -0.01073197
N        4.21082051       2.43111876      26.72026807        0       0.00001666      -0.00000610       0.04303241
H        4.69661541       3.27220506      27.04136383        0       0.00976926       0.01452167       0.00294731
H        4.69632617       1.58986395      27.04136163        0       0.00768922      -0.01571457       0.00295289
H        3.23952098       2.43128510      27.04136224        0      -0.01747422       0.00119600       0.00295415
