31
Lattice="8.421641763931781 0.0 0.0 4.2108208819658905 7.293355709136913 0.0 0.0 0.0 44.584161137365626" Properties=species:S:1:pos:R:3:tags:I:1:forces:R:3 energy=-173.71255493164062 free_energy=-173.71255493164062 stress="0.010737704113125801 -1.215165035262089e-08 -7.120149358996741e-09 -1.215165035262089e-08 0.010737692005932331 4.581708790141192e-09 -7.120149358996741e-09 4.581708790141192e-09 1.2290080121601932e-05" pbc="T T T"
Pt       1.40360696       0.81037286      20.00000000        3      -0.00309211      -0.00178855      -0.00688446
Pt       4.21082088       0.81037286      20.00000000        3       0.00000153       0.00538817       0.01373172
Pt       7.01803480       0.81037286      20.00000000        3       0.00309076      -0.00178844      -0.00688520
Pt       2.80721392       3.24149143      20.00000000        3       0.00466903      -0.00269544       0.01373023
Pt       5.61442784       3.24149143      20.00000000        3      -0.00466967      -0.00269519       0.01373026
Pt       8.42164176       3.24149143      20.00000000        3       0.00000136      -0.00631357      -0.01009580
Pt       4.21082088       5.67261000      20.00000000        3       0.00000220       0.00357347      -0.00688466
Pt       7.01803480       5.67261000      20.00000000        3      -0.00547026       0.00315981      -0.01009443
Pt       9.82524872       5.67261000      20.00000000        3       0.00546707       0.00315991      -0.01009387
Pt      -0.00000000       1.62074571      22.29208057        2       0.00000172       0.00557383       0.00163995
Pt       2.80721392       1.62074571      22.29208057        2       0.07609755       0.04393253      -0.02060145
Pt       5.61442784       1.62074571      22.29208057        2      -0.07609832       0.04393206      -0.02060236
Pt       1.40360696       4.05186428      22.29208057        2       0.05734748      -0.03310896       0.03225474
Pt       4.21082088       4.05186428      22.29208057        2       0.00000123      -0.08786870      -0.02060148
Pt       7.01803480       4.05186428      22.29208057        2      -0.05734891      -0.03310838       0.03225523
Pt       2.80721392       6.48298285      22.29208057        2      -0.00482851      -0.00278683       0.00163884
Pt       5.61442784       6.48298285      22.29208057        2       0.00482737      -0.00278631       0.00163820
Pt       8.42164176       6.48298285      22.29208057        2       0.00000089       0.06622095       0.03225289
Pt       0.00000030      -0.00000024      24.59054608        1       0.00000065       0.00000183      -0.00889480
Pt       2.80082090      -0.00692756      24.60083884        1       0.00585535       0.00239135       0.00067449
Pt       5.62082119      -0.00692780      24.60083872        1      -0.00585566       0.00239162       0.00067423
Pt       1.39441104       2.42904547      24.60083930        1       0.00499835       0.00387531       0.00067545
Pt       4.21082107       2.43111824      24.67001099        1       0.00000012      -0.00000136      -0.03263861
Pt       7.02723080       2.42904529      24.60083933        1      -0.00499806       0.00387643       0.00067601
Pt       2.80441122       4.87123771      24.60083907        1      -0.00085709      -0.00626908       0.00067556
Pt       5.61723055       4.87123775      24.60083903        1       0.00085760      -0.00626818       0.00067563
Pt       8.42164175       4.86223712      24.58858497        1      -0.00000020      -0.00000030       0.00282231
N        4.21082161       2.43111756      26.73726531        0      -0.00007296       0.00005320      -0.01466531
H        4.21082086       1.45739362      27.05381454        0       0.00000333       0.04894528       0.00640644
H        3.36754967       2.91798141      27.05381214        0       0.04246324      -0.02451592       0.00638256
H        5.05409142       2.91798115      27.05381254        0      -0.04239510      -0.02448057       0.00640797
