31
Lattice="8.421641763931781 0.0 0.0 4.2108208819658905 7.293355709136913 0.0 0.0 0.0 44.584161137365626" Properties=species:S:1:pos:R:3:tags:I:1:forces:R:3 energy=-172.80612182617188 free_energy=-172.80612182617188 stress="0.010317434556782246 -3.4730445186426095e-09 1.8120059896986618e-09 -3.4730445186426095e-09 0.010317441076040268 -1.4229415423727687e-09 1.8120059896986618e-09 -1.4229415423727687e-09 1.4681846550956834e-05" pbc="T T T"
Pt       1.40360696       0.81037286      20.00000000        3       0.00000082       0.00306344      -0.00310111
Pt       4.21082088       0.81037286      20.00000000        3       0.00118348       0.00068097      -0.00975442
Pt       7.01803480       0.81037286      20.00000000        3      -0.00118444       0.00067984      -0.00975594
Pt       2.80721392       3.24149143      20.00000000        3      -0.00054114       0.00031273       0.01786679
Pt       5.61442784       3.24149143      20.00000000        3      -0.00000165      -0.00136467      -0.00975555
Pt       8.42164176       3.24149143      20.00000000        3       0.00054340       0.00031358       0.01786631
Pt       4.21082088       5.67261000      20.00000000        3      -0.00265304      -0.00153125      -0.00310132
Pt       7.01803480       5.67261000      20.00000000        3       0.00265283      -0.00153076      -0.00310314
Pt       9.82524872       5.67261000      20.00000000        3      -0.00000120      -0.00062381       0.01786745
Pt      -0.00000000       1.62074571      22.29208057        2       0.12058080       0.08954009       0.01156402
Pt       2.80721392       1.62074571      22.29208057        2      -0.12057777       0.08954089       0.01156276
Pt       5.61442784       1.62074571      22.29208057        2      -0.00000222      -0.00000136      -0.12116466
Pt       1.40360696       4.05186428      22.29208057        2       0.00000004      -0.00000003       0.08417650
Pt       4.21082088       4.05186428      22.29208057        2      -0.13783330       0.05965275       0.01156272
Pt       7.01803480       4.05186428      22.29208057        2       0.13783206       0.05965376       0.01156474
Pt       2.80721392       6.48298285      22.29208057        2      -0.01725574      -0.14919440       0.01156143
Pt       5.61442784       6.48298285      22.29208057        2      -0.00000134       0.00000071      -0.05945654
Pt       8.42164176       6.48298285      22.29208057        2       0.01725709      -0.14919297       0.01156264
Pt       0.00072263      -0.00041750      24.56338208        1       0.00593066      -0.00342100      -0.00189942
Pt       2.80649184      -0.00041689      24.56338149        1      -0.00592975      -0.00342645      -0.00189960
Pt       5.61442809       0.01175046      24.56734107        1      -0.00000090      -0.01475248       0.01010630
Pt       1.40360713       2.41191748      24.61556612        1      -0.00000119      -0.00761154      -0.00048215
Pt       4.22099751       2.42524276      24.56734103        1      -0.01277633       0.00737847       0.01010579
Pt       7.00785827       2.42524295      24.56734138        1       0.01277748       0.00737772       0.01010628
Pt       2.82384251       4.87183761      24.61556640        1       0.00659002       0.00380340      -0.00047828
Pt       5.61442763       4.86307105      24.56338165        1       0.00000255       0.00684670      -0.00190026
Pt       8.40501281       4.87183748      24.61556660        1      -0.00659218       0.00380542      -0.00048160
N        9.82524872       4.05186436      26.96079509        0      -0.00002410       0.00000067      -0.02614740
H       10.64390151       4.52451344      26.53156588        0       0.02725892       0.01574209       0.00499478
H        9.82524897       3.10656573      26.53156557        0       0.00000110      -0.03147200       0.00500338
H        9.00659569       4.52451372      26.53156550        0      -0.02723515       0.01572960       0.00500969
