31
Lattice="8.421641763931781 0.0 0.0 4.2108208819658905 7.293355709136913 0.0 0.0 0.0 44.584161137365626" Properties=species:S:1:pos:R:3:tags:I:1:forces:R:3 energy=-172.5789794921875 free_energy=-172.5789794921875 stress="0.010473108850419521 4.605685166580997e-09 9.93066340271298e-09 4.605685166580997e-09 0.010473102331161499 -2.3343860178215436e-09 9.93066340271298e-09 -2.3343860178215436e-09 -0.00020023074466735125" pbc="T T T"
Pt       1.40360696       0.81037286      20.00000000        3       0.00079690       0.00067821      -0.00220001
Pt       4.21082088       0.81037286      20.00000000        3       0.00000167      -0.00000159      -0.00540093
Pt       7.01803480       0.81037286      20.00000000        3      -0.00074875       0.00084620      -0.00204515
Pt       2.80721392       3.24149143      20.00000000        3      -0.00036038      -0.00107089      -0.00204569
Pt       5.61442784       3.24149143      20.00000000        3       0.00018977      -0.00103007      -0.00220034
Pt       8.42164176       3.24149143      20.00000000        3       0.00000120      -0.00000007       0.00783581
Pt       4.21082088       5.67261000      20.00000000        3       0.00000236       0.00000149      -0.00681582
Pt       7.01803480       5.67261000      20.00000000        3       0.00110604       0.00022469      -0.00204551
Pt       9.82524872       5.67261000      20.00000000        3      -0.00098881       0.00035193      -0.00220060
Pt      -0.00000000       1.62074571      22.29208057        2      -0.00152545       0.04198081       0.02925869
Pt       2.80721392       1.62074571      22.29208057        2      -0.03240176       0.01846318      -0.02422168
Pt       5.61442784       1.62074571      22.29208057        2       0.03218864       0.01882845      -0.02422184
Pt       1.40360696       4.05186428      22.29208057        2      -0.03559199      -0.02231278       0.02926107
Pt       4.21082088       4.05186428      22.29208057        2      -0.00078324      -0.01328972      -0.03097513
Pt       7.01803480       4.05186428      22.29208057        2       0.03711721      -0.01966804       0.02926085
Pt       2.80721392       6.48298285      22.29208057        2      -0.01111814       0.00732435      -0.03097608
Pt       5.61442784       6.48298285      22.29208057        2       0.01190064       0.00596533      -0.03097731
Pt       8.42164176       6.48298285      22.29208057        2       0.00021309      -0.03729057      -0.02422202
Pt      -0.00056931      -0.00636828      24.57875343        1      -0.00299121       0.01931864      -0.00732332
Pt       2.80914030       0.00033105      24.57723245        1      -0.00364820      -0.00612815      -0.00424173
Pt       5.61317772       0.00150254      24.57723237        1       0.00713154      -0.00009569      -0.00424331
Pt       1.41585027       2.42122470      24.58945411        1      -0.02483074       0.00794551       0.00628427
Pt       4.21014470       2.42928472      24.57723235        1      -0.00348202       0.00622352      -0.00424254
Pt       7.00334459       2.42546257      24.58945411        1       0.01929799       0.01753124       0.00628565
Pt       2.81301370       4.86492798      24.57875364        1      -0.01523622      -0.01224867      -0.00733232
Pt       5.60919756       4.86591451      24.57875352        1       0.01822609      -0.00706945      -0.00733271
Pt       8.42408841       4.87778718      24.58945423        1       0.00553367      -0.02547758       0.00628509
N        8.42164227       3.24149137      27.59559740        0      -0.00007556       0.00001428       0.00370830
H        7.47692950       3.23643174      27.19906520        0       0.02441636      -0.02474859       0.03571549
H        8.88961593       4.06216553      27.19906536        0      -0.03360705      -0.00872177       0.03568785
H        8.89837913       2.42587712      27.19906537        0       0.00926636       0.03345598       0.03568118
