31
Lattice="8.421641763931781 0.0 0.0 4.2108208819658905 7.293355709136913 0.0 0.0 0.0 44.584161137365626" Properties=species:S:1:pos:R:3:tags:I:1:forces:R:3 energy=-173.71633911132812 free_energy=-173.71633911132812 stress="0.010683336295187473 -5.1610542506352886e-09 1.0690596852214185e-08 -5.1610542506352886e-09 0.010683368891477585 1.2002498550600649e-08 1.0690596852214185e-08 1.2002498550600649e-08 -3.925264081772184e-06" pbc="T T T"
Pt       1.40360696       0.81037286      20.00000000        3      -0.00293529      -0.00088739      -0.00606722
Pt       4.21082088       0.81037286      20.00000000        3       0.00052884       0.00464667       0.01212883
Pt       7.01803480       0.81037286      20.00000000        3       0.00223091      -0.00210271      -0.00606790
Pt       2.80721392       3.24149143      20.00000000        3       0.00376310      -0.00278046       0.01212609
Pt       5.61442784       3.24149143      20.00000000        3      -0.00429003      -0.00186720       0.01212722
Pt       8.42164176       3.24149143      20.00000000        3       0.00075986      -0.00624138      -0.00914520
Pt       4.21082088       5.67261000      20.00000000        3       0.00070474       0.00298598      -0.00606731
Pt       7.01803480       5.67261000      20.00000000        3      -0.00578756       0.00246619      -0.00914392
Pt       9.82524872       5.67261000      20.00000000        3       0.00502493       0.00378112      -0.00914419
Pt      -0.00000000       1.62074571      22.29208057        2       0.00918700       0.00729866      -0.00012712
Pt       2.80721392       1.62074571      22.29208057        2       0.06351788       0.04181562      -0.02887927
Pt       5.61442784       1.62074571      22.29208057        2      -0.06797680       0.03409445      -0.02888017
Pt       1.40360696       4.05186428      22.29208057        2       0.05035971      -0.03659797       0.03253512
Pt       4.21082088       4.05186428      22.29208057        2       0.00445914      -0.07591671      -0.02888583
Pt       7.01803480       4.05186428      22.29208057        2      -0.05687512      -0.02531324       0.03252886
Pt       2.80721392       6.48298285      22.29208057        2      -0.01091616       0.00430586      -0.00012892
Pt       5.61442784       6.48298285      22.29208057        2       0.00172914      -0.01160138      -0.00013185
Pt       8.42164176       6.48298285      22.29208057        2       0.00651848       0.06191452       0.03252942
Pt       0.00000030      -0.00000085      24.58913250        1       0.00000170       0.00000558      -0.00107062
Pt       2.80002558      -0.01010737      24.59557712        1       0.00134089      -0.00807412       0.00798717
Pt       5.61872939      -0.00402729      24.60743638        1      -0.00989129       0.00583254      -0.00834696
Pt       1.39796896       2.42940521      24.60743703        1       0.00999394       0.00565746      -0.00834687
Pt       4.21082180       2.43112336      24.65948062        1      -0.00000436      -0.00001636       0.00716630
Pt       7.03038178       2.42994546      24.59557728        1       0.00633615       0.00519913       0.00798777
Pt       2.80205907       4.87351679      24.59557740        1      -0.00769345       0.00288401       0.00798714
Pt       5.61576604       4.86797625      24.60743666        1      -0.00010169      -0.01147376      -0.00834525
Pt       8.42164130       4.86223715      24.58941072        1       0.00001372      -0.00000365      -0.00292495
N        4.21081848       2.43111933      26.72623310        0       0.00008610      -0.00000093      -0.00216407
H        4.69909839       3.27171763      27.04597522        0       0.00136095      -0.00005249      -0.00043479
H        4.69466074       1.58795289      27.04595684        0      -0.00072691      -0.00115228      -0.00040509
H        3.23869811       2.43367958      27.04596597        0      -0.00071855       0.00119416      -0.00039631
