31
Lattice="8.421641763931781 0.0 0.0 4.2108208819658905 7.293355709136913 0.0 0.0 0.0 44.584161137365626" Properties=species:S:1:pos:R:3:tags:I:1:forces:R:3 energy=-172.64517211914062 free_energy=-172.64517211914062 stress="0.01042440626770258 1.7768074789259458e-09 3.2813307626611277e-09 1.7768074789259458e-09 0.010424409061670303 1.7793572171243e-09 3.2813307626611277e-09 1.7793572171243e-09 -8.765107850194909e-06" pbc="T T T"
Pt       1.40360696       0.81037286      20.00000000        3       0.00000093       0.00398703       0.00066805
Pt       4.21082088       0.81037286      20.00000000        3       0.00203442       0.00117264       0.00089779
Pt       7.01803480       0.81037286      20.00000000        3      -0.00203506       0.00117167       0.00089616
Pt       2.80721392       3.24149143      20.00000000        3      -0.00027190       0.00015710       0.02934337
Pt       5.61442784       3.24149143      20.00000000        3      -0.00000212      -0.00234773       0.00089699
Pt       8.42164176       3.24149143      20.00000000        3       0.00027472       0.00015815       0.02934244
Pt       4.21082088       5.67261000      20.00000000        3      -0.00345316      -0.00199380       0.00066859
Pt       7.01803480       5.67261000      20.00000000        3       0.00345340      -0.00199244       0.00066692
Pt       9.82524872       5.67261000      20.00000000        3      -0.00000122      -0.00031291       0.02934358
Pt      -0.00000000       1.62074571      22.29208057        2       0.07618494       0.08602673      -0.01590441
Pt       2.80721392       1.62074571      22.29208057        2      -0.07618236       0.08602861      -0.01590538
Pt       5.61442784       1.62074571      22.29208057        2      -0.00000225      -0.00000171      -0.06579366
Pt       1.40360696       4.05186428      22.29208057        2       0.00000276       0.00000086       0.00991262
Pt       4.21082088       4.05186428      22.29208057        2      -0.11259526       0.02296319      -0.01590342
Pt       7.01803480       4.05186428      22.29208057        2       0.11259183       0.02296293      -0.01590339
Pt       2.80721392       6.48298285      22.29208057        2      -0.03641106      -0.10899226      -0.01590277
Pt       5.61442784       6.48298285      22.29208057        2      -0.00000232       0.00000092      -0.07842250
Pt       8.42164176       6.48298285      22.29208057        2       0.03641310      -0.10898823      -0.01590647
Pt       0.00172898      -0.00099806      24.55968830        1       0.00141584      -0.00082090       0.02566656
Pt       2.80548557      -0.00099802      24.55968832        1      -0.00141805      -0.00081937       0.02566709
Pt       5.61442775       0.00666436      24.58204422        1       0.00000150      -0.00462404      -0.00813283
Pt       1.40360707       2.40933296      24.62282276        1       0.00000058       0.01740729       0.04150690
Pt       4.21659256       2.42778607      24.58204427        1      -0.00400544       0.00231272      -0.00813299
Pt       7.01226304       2.42778598      24.58204455        1       0.00400472       0.00231300      -0.00813244
Pt       2.82608073       4.87312990      24.62282279        1      -0.01507270      -0.00870170       0.04149677
Pt       5.61442766       4.86423287      24.55968826        1       0.00000092       0.00163715       0.02566664
Pt       8.40277482       4.87313001      24.62282252        1       0.01507355      -0.00870471       0.04150818
N        9.82524917       4.05186436      26.88201531        0      -0.00002092      -0.00000193      -0.01739341
H       10.61955242       3.59327265      26.36754930        0       0.01714864      -0.00990470      -0.00757658
H        9.03094427       3.59327257      26.36755010        0      -0.01712747      -0.00989126      -0.00756717
H        9.82524884       4.96904766      26.36754965        0      -0.00000053       0.01979755      -0.00757113
