31
Lattice="8.421641763931781 0.0 0.0 4.2108208819658905 7.293355709136913 0.0 0.0 0.0 44.584161137365626" Properties=species:S:1:pos:R:3:tags:I:1:forces:R:3 energy=-172.65139770507812 free_energy=-172.65139770507812 stress="0.010359610430896282 -1.446834985152634e-09 -2.187466652259218e-09 -1.446834985152634e-09 0.010359618812799454 1.7684742559254119e-10 -2.187466652259218e-09 1.7684742559254119e-10 -4.0876344428397715e-05" pbc="T T T"
Pt       1.40360696       0.81037286      20.00000000        3       0.00129231       0.00270157       0.00972646
Pt       4.21082088       0.81037286      20.00000000        3       0.00000161      -0.00000144      -0.00685346
Pt       7.01803480       0.81037286      20.00000000        3      -0.00129357       0.00270209       0.00972575
Pt       2.80721392       3.24149143      20.00000000        3      -0.00169512      -0.00247105       0.00972563
Pt       5.61442784       3.24149143      20.00000000        3       0.00169456      -0.00247049       0.00972632
Pt       8.42164176       3.24149143      20.00000000        3       0.00000091       0.00000055       0.04421684
Pt       4.21082088       5.67261000      20.00000000        3       0.00000213       0.00000169      -0.00171158
Pt       7.01803480       5.67261000      20.00000000        3       0.00298576      -0.00023160       0.00972590
Pt       9.82524872       5.67261000      20.00000000        3      -0.00298889      -0.00023124       0.00972560
Pt      -0.00000000       1.62074571      22.29208057        2       0.00000186       0.08691599      -0.02148072
Pt       2.80721392       1.62074571      22.29208057        2      -0.12749907       0.07361037      -0.01448054
Pt       5.61442784       1.62074571      22.29208057        2       0.12749800       0.07361209      -0.01448052
Pt       1.40360696       4.05186428      22.29208057        2      -0.07527225      -0.04345930      -0.02148081
Pt       4.21082088       4.05186428      22.29208057        2       0.00000356      -0.00806150      -0.05043714
Pt       7.01803480       4.05186428      22.29208057        2       0.07526849      -0.04345716      -0.02147765
Pt       2.80721392       6.48298285      22.29208057        2      -0.00698034       0.00403150      -0.05043863
Pt       5.61442784       6.48298285      22.29208057        2       0.00698102       0.00402995      -0.05043700
Pt       8.42164176       6.48298285      22.29208057        2      -0.00000006      -0.14722222      -0.01448037
Pt       0.00000024      -0.00376794      24.58110107        1       0.00000147       0.00321648      -0.00503173
Pt       2.81067437       0.00199779      24.56004504        1      -0.00291686      -0.00168703       0.02771094
Pt       5.61096741       0.00199770      24.56004489        1       0.00291572      -0.00168320       0.02771086
Pt       1.42969075       2.41605904      24.61787468        1      -0.01592287       0.00919344       0.04069829
Pt       4.21082089       2.42712274      24.56004513        1       0.00000162       0.00336786       0.02771141
Pt       6.99195110       2.41605909      24.61787479        1       0.01592148       0.00919477       0.04069808
Pt       2.81047699       4.86412098      24.58110127        1      -0.00278641      -0.00160915      -0.00503103
Pt       5.61116476       4.86412078      24.58110150        1       0.00279048      -0.00160858      -0.00503895
Pt       8.42164184       4.89235580      24.61787473        1      -0.00000467      -0.01838490       0.04069787
N        8.42164180       3.24149153      26.85605594        0       0.00001629      -0.00000297      -0.01856497
H        9.21662915       3.70047794      26.34043554        0       0.01130231       0.00652789      -0.00212047
H        8.42164199       2.32351902      26.34043585        0      -0.00000370      -0.01305525      -0.00212377
H        7.62665433       3.70047769      26.34043571        0      -0.01131577       0.00653077      -0.00213036
