31
Lattice="8.421641763931781 0.0 0.0 4.2108208819658905 7.293355709136913 0.0 0.0 0.0 44.584161137365626" Properties=species:S:1:pos:R:3:tags:I:1:forces:R:3 energy=-172.6018829345703 free_energy=-172.6018829345703 stress="0.010518878698348999 1.4065064668500327e-08 2.0547631152112444e-08 1.4065064668500327e-08 0.010518869385123253 6.521589046570853e-09 2.0547631152112444e-08 6.521589046570853e-09 -1.5808913303771988e-05" pbc="T T T"
Pt       1.40360696       0.81037286      20.00000000        3       0.00067498       0.00123172      -0.00134254
Pt       4.21082088       0.81037286      20.00000000        3       0.00000195      -0.00000134      -0.00634697
Pt       7.01803480       0.81037286      20.00000000        3      -0.00067647       0.00123225      -0.00134313
Pt       2.80721392       3.24149143      20.00000000        3      -0.00073004      -0.00120162      -0.00134471
Pt       5.61442784       3.24149143      20.00000000        3       0.00072952      -0.00120096      -0.00134379
Pt       8.42164176       3.24149143      20.00000000        3       0.00000086      -0.00000028       0.01187071
Pt       4.21082088       5.67261000      20.00000000        3       0.00000233       0.00000147      -0.00859869
Pt       7.01803480       5.67261000      20.00000000        3       0.00140399      -0.00003093      -0.00134444
Pt       9.82524872       5.67261000      20.00000000        3      -0.00140728      -0.00003058      -0.00134414
Pt      -0.00000000       1.62074571      22.29208057        2       0.00000192       0.05406181       0.04110693
Pt       2.80721392       1.62074571      22.29208057        2      -0.04278812       0.02470323      -0.01080818
Pt       5.61442784       1.62074571      22.29208057        2       0.04278696       0.02470265      -0.01080903
Pt       1.40360696       4.05186428      22.29208057        2      -0.04681976      -0.02703217       0.04110750
Pt       4.21082088       4.05186428      22.29208057        2       0.00000073      -0.01914869      -0.03130743
Pt       7.01803480       4.05186428      22.29208057        2       0.04681841      -0.02703192       0.04110663
Pt       2.80721392       6.48298285      22.29208057        2      -0.01658184       0.00957575      -0.03130794
Pt       5.61442784       6.48298285      22.29208057        2       0.01658119       0.00957562      -0.03130994
Pt       8.42164176       6.48298285      22.29208057        2       0.00000107      -0.04940495      -0.01080860
Pt       0.00000027      -0.00688294      24.57748742        1      -0.00000155       0.02061687      -0.00907674
Pt       2.80876315       0.00089446      24.57688563        1      -0.00320259      -0.00184880      -0.00630930
Pt       5.61287848       0.00089449      24.57688562        1       0.00320302      -0.00184935      -0.00631058
Pt       1.41500362       2.42453874      24.59691510        1      -0.01709456       0.00986951       0.02064823
Pt       4.21082093       2.42932947      24.57688567        1      -0.00000065       0.00369998      -0.00630975
Pt       7.00663801       2.42453884      24.59691514        1       0.01709595       0.00986830       0.02065004
Pt       2.81317448       4.86567859      24.57748765        1      -0.01785268      -0.01030924      -0.00907677
Pt       5.60846725       4.86567865      24.57748755        1       0.01785215      -0.01030908      -0.00907576
Pt       8.42164180       4.87539674      24.59691520        1       0.00000076      -0.01973850       0.02064967
N        8.42164311       3.24149190      27.59226964        0      -0.00013065      -0.00003720      -0.02897561
H        7.60331101       2.76902793      27.19286743        0       0.02510943       0.01449323       0.00915359
H        8.42164175       4.18641703      27.19286788        0       0.00000890      -0.02889031       0.00910774
H        9.23997100       2.76902875      27.19286799        0      -0.02498806       0.01443361       0.00909235
