31
Lattice="8.421641763931781 0.0 0.0 4.2108208819658905 7.293355709136913 0.0 0.0 0.0 44.584161137365626" Properties=species:S:1:pos:R:3:tags:I:1:forces:R:3 energy=-172.5946807861328 free_energy=-172.5946807861328 stress="0.010531834326684475 -8.30358448666857e-09 -2.318061742556665e-09 -8.30358448666857e-09 0.010531820356845856 1.314928610440802e-08 -2.318061742556665e-09 1.314928610440802e-08 -0.00010162301623495296" pbc="T T T"
Pt       1.40360696       0.81037286      20.00000000        3       0.00000124       0.00081035      -0.00487375
Pt       4.21082088       0.81037286      20.00000000        3       0.00046684       0.00026657      -0.00698891
Pt       7.01803480       0.81037286      20.00000000        3      -0.00046735       0.00026580      -0.00699177
Pt       2.80721392       3.24149143      20.00000000        3      -0.00043395       0.00025103      -0.00006634
Pt       5.61442784       3.24149143      20.00000000        3      -0.00000231      -0.00053667      -0.00699109
Pt       8.42164176       3.24149143      20.00000000        3       0.00043653       0.00025208      -0.00006673
Pt       4.21082088       5.67261000      20.00000000        3      -0.00070159      -0.00040521      -0.00487483
Pt       7.01803480       5.67261000      20.00000000        3       0.00070199      -0.00040436      -0.00487581
Pt       9.82524872       5.67261000      20.00000000        3      -0.00000171      -0.00050005      -0.00006640
Pt      -0.00000000       1.62074571      22.29208057        2       0.02141322       0.02138466      -0.00027391
Pt       2.80721392       1.62074571      22.29208057        2      -0.02140770       0.02138641      -0.00027216
Pt       5.61442784       1.62074571      22.29208057        2      -0.00000448      -0.00000131      -0.05402198
Pt       1.40360696       4.05186428      22.29208057        2       0.00000139      -0.00000097       0.04414014
Pt       4.21082088       4.05186428      22.29208057        2      -0.02922775       0.00784382      -0.00027539
Pt       7.01803480       4.05186428      22.29208057        2       0.02922514       0.00784631      -0.00027601
Pt       2.80721392       6.48298285      22.29208057        2      -0.00781628      -0.02923432      -0.00027718
Pt       5.61442784       6.48298285      22.29208057        2      -0.00000112       0.00000459      -0.03137774
Pt       8.42164176       6.48298285      22.29208057        2       0.00781818      -0.02923184      -0.00027788
Pt       0.00239928      -0.00138554      24.57829619        1      -0.01535505       0.00887020       0.00744221
Pt       2.80481614      -0.00138621      24.57829635        1       0.01535130       0.00887236       0.00744244
Pt       5.61442786       0.00768572      24.57860607        1       0.00000007      -0.03943849       0.01256493
Pt       1.40360751       2.42801283      24.59073963        1       0.00000034      -0.02196352       0.00538744
Pt       4.21747834       2.42727467      24.57860679        1      -0.03416210       0.01972198       0.01255393
Pt       7.01137715       2.42727435      24.57860611        1       0.03416104       0.01972355       0.01256517
Pt       2.80990322       4.86378990      24.59073971        1       0.01901974       0.01097637       0.00538763
Pt       5.61442727       4.86500727      24.57829565        1       0.00000314      -0.01773659       0.00745288
Pt       8.41895172       4.86378963      24.59074052        1      -0.01901923       0.01097707       0.00538717
N        9.82524906       4.05186598      27.96139895        0       0.00001220      -0.00010785       0.02145392
H        9.82524812       4.99159678      27.56270983        0       0.00000891       0.02592281      -0.00634008
H       10.63908004       3.58199659      27.56271004        0       0.02238204      -0.01289643      -0.00629221
H        9.01141721       3.58199784      27.56270986        0      -0.02240272      -0.01291842      -0.00629763
