31
Lattice="8.421641763931781 0.0 0.0 4.2108208819658905 7.293355709136913 0.0 0.0 0.0 44.584161137365626" Properties=species:S:1:pos:R:3:tags:I:1:forces:R:3 energy=-172.76077270507812 free_energy=-172.76077270507812 stress="0.010433997958898544 5.5530712415929884e-05 -6.429923087125644e-05 5.5530712415929884e-05 0.010335422120988369 0.00012290354061406106 -6.429923087125644e-05 0.00012290354061406106 0.0001139727100962773" pbc="T T T"
Pt       1.40360696       0.81037286      20.00000000        3       0.00130204       0.00326486       0.00365856
Pt       4.21082088       0.81037286      20.00000000        3       0.00028256      -0.00058206      -0.00557828
Pt       7.01803480       0.81037286      20.00000000        3      -0.00184500       0.00191394       0.00243154
Pt       2.80721392       3.24149143      20.00000000        3      -0.00120330      -0.00307380       0.01904264
Pt       5.61442784       3.24149143      20.00000000        3       0.00101909      -0.00356214       0.00178820
Pt       8.42164176       3.24149143      20.00000000        3       0.00240613      -0.00058120       0.03803411
Pt       4.21082088       5.67261000      20.00000000        3      -0.00208909      -0.00238076      -0.00506389
Pt       7.01803480       5.67261000      20.00000000        3       0.00342333      -0.00187630       0.00241306
Pt       9.82524872       5.67261000      20.00000000        3      -0.00232447      -0.00032821       0.01665151
Pt      -0.00000000       1.62074571      22.29208057        2       0.08145392       0.11704522       0.03078869
Pt       2.80721392       1.62074571      22.29208057        2      -0.15735687       0.12324964       0.05174865
Pt       5.61442784       1.62074571      22.29208057        2       0.05290507       0.04726427      -0.06477225
Pt       1.40360696       4.05186428      22.29208057        2      -0.04699991      -0.05245765       0.03637984
Pt       4.21082088       4.05186428      22.29208057        2      -0.06485106      -0.00048914      -0.03371709
Pt       7.01803480       4.05186428      22.29208057        2       0.10645792       0.01139176      -0.00417543
Pt       2.80721392       6.48298285      22.29208057        2      -0.03644430      -0.02712565      -0.03812037
Pt       5.61442784       6.48298285      22.29208057        2       0.00853719       0.02035785      -0.05837012
Pt       8.42164176       6.48298285      22.29208057        2       0.01159884      -0.14118420       0.02495158
Pt      -0.00576119       0.00780909      24.56933689        1      -0.01225950       0.00011615      -0.00238498
Pt       2.80675410       0.01498112      24.55989917        1       0.01101890      -0.02584512       0.00331642
Pt       5.61602425       0.03238869      24.57077788        1       0.00283534       0.00790829      -0.00210679
Pt       1.42685791       2.41373638      24.62962380        1      -0.00356661       0.00262234       0.02443708
Pt       4.22009784       2.44510317      24.57114074        1       0.00706945       0.00574515      -0.00351384
Pt       7.01137656       2.45529862      24.60469659        1       0.01565384       0.01114146       0.00362152
Pt       2.79956351       4.88539794      24.60377372        1      -0.01487130      -0.00685597       0.00149937
Pt       5.59771810       4.88241411      24.56952102        1      -0.00627819      -0.00474934      -0.00144553
Pt       8.40722554       4.90950173      24.62028311        1       0.00666706      -0.01134806       0.01262893
N        9.10779842       3.66187916      26.89483346        0       0.01179678      -0.02343583      -0.01391405
H        9.60469816       2.80112246      26.58755353        0       0.02335084      -0.04003134      -0.00393877
H        8.21715163       3.56764529      26.35178367        0      -0.02685718      -0.01997437      -0.01943895
H        9.63451756       4.38596713      26.35085541        0       0.02916828       0.01386023      -0.01685145
