31
Lattice="8.421641763931781 0.0 0.0 4.2108208819658905 7.293355709136913 0.0 0.0 0.0 44.584161137365626" Properties=species:S:1:pos:R:3:tags:I:1:forces:R:3 energy=-172.8042755126953 free_energy=-172.8042755126953 stress="0.010287957265973091 2.4268909104563363e-09 6.103956895486817e-09 2.4268909104563363e-09 0.01028797123581171 -1.0787692961145012e-09 6.103956895486817e-09 -1.0787692961145012e-09 2.5809162252699025e-05" pbc="T T T"
Pt       1.40360696       0.81037286      20.00000000        3       0.00218765       0.00302489       0.00097692
Pt       4.21082088       0.81037286      20.00000000        3       0.00000169      -0.00000173      -0.01218995
Pt       7.01803480       0.81037286      20.00000000        3      -0.00198374       0.00239062       0.00095347
Pt       2.80721392       3.24149143      20.00000000        3      -0.00108045      -0.00291210       0.00095215
Pt       5.61442784       3.24149143      20.00000000        3       0.00152698      -0.00340771       0.00097722
Pt       8.42164176       3.24149143      20.00000000        3       0.00000170       0.00000052       0.03240708
Pt       4.21082088       5.67261000      20.00000000        3       0.00000258       0.00000126      -0.01432893
Pt       7.01803480       5.67261000      20.00000000        3       0.00306081       0.00052154       0.00095353
Pt       9.82524872       5.67261000      20.00000000        3      -0.00371655       0.00038309       0.00097486
Pt      -0.00000000       1.62074571      22.29208057        2       0.00261032       0.12159169       0.04922270
Pt       2.80721392       1.62074571      22.29208057        2      -0.14873196       0.08593211       0.01205514
Pt       5.61442784       1.62074571      22.29208057        2       0.14879210       0.08583678       0.01205710
Pt       1.40360696       4.05186428      22.29208057        2      -0.10661179      -0.05853435       0.04921965
Pt       4.21082088       4.05186428      22.29208057        2      -0.00522966      -0.02981703      -0.07348044
Pt       7.01803480       4.05186428      22.29208057        2       0.10399312      -0.06306016       0.04922616
Pt       2.80721392       6.48298285      22.29208057        2      -0.02320544       0.01944795      -0.07348152
Pt       5.61442784       6.48298285      22.29208057        2       0.02844095       0.01037424      -0.07347703
Pt       8.42164176       6.48298285      22.29208057        2      -0.00005711      -0.17177300       0.01205792
Pt       0.00860709      -0.01200318      24.56953828        1      -0.02004591       0.02605216      -0.00907241
Pt       2.81249753       0.00130318      24.56071455        1      -0.02640738      -0.00284078       0.02082978
Pt       5.61065640       0.00392370      24.56071395        1       0.01566550      -0.02144935       0.02082923
Pt       1.43233516       2.42267663      24.61256621        1      -0.02813303       0.00079367       0.01038426
Pt       4.20930932       2.42589040      24.56071375        1       0.01073653       0.02429067       0.02084039
Pt       6.99636051       2.41045984      24.61256955        1       0.01475380       0.02396856       0.01036734
Pt       2.81330476       4.87569271      24.56953683        1      -0.01253702      -0.03039198      -0.00906259
Pt       5.59972931       4.86078401      24.56953940        1       0.03258440       0.00433836      -0.00908229
Pt       8.41458771       4.89133621      24.61256698        1       0.01338165      -0.02475967       0.01037615
N        8.42164207       3.24149153      26.94051456        0      -0.00003716       0.00000038      -0.04887897
H        7.64609192       2.69237733      26.52021831        0       0.01088750       0.02137669       0.00247504
H        8.33387008       4.18769463      26.52021815        0       0.01307119      -0.02011009       0.00246598
H        9.28496272       2.84440211      26.52021807        0      -0.02392109      -0.00126717       0.00245222
