31
Lattice="8.421641763931781 0.0 0.0 4.2108208819658905 7.293355709136913 0.0 0.0 0.0 44.584161137365626" Properties=species:S:1:pos:R:3:tags:I:1:forces:R:3 energy=-172.76148986816406 free_energy=-172.76148986816406 stress="0.010398834012448788 8.09117773314938e-05 6.975806900300086e-05 8.09117773314938e-05 0.01034683920443058 -0.00012505246559157968 6.975806900300086e-05 -0.00012505246559157968 3.076643406529911e-05" pbc="T T T"
Pt       1.40360696       0.81037286      20.00000000        3      -0.00037577       0.00380448       0.00172421
Pt       4.21082088       0.81037286      20.00000000        3      -0.00042422       0.00079505      -0.00353682
Pt       7.01803480       0.81037286      20.00000000        3      -0.00233510       0.00270167       0.00237912
Pt       2.80721392       3.24149143      20.00000000        3      -0.00085539      -0.00218518       0.01590505
Pt       5.61442784       3.24149143      20.00000000        3       0.00055698      -0.00220461       0.00321797
Pt       8.42164176       3.24149143      20.00000000        3       0.00110828       0.00289516       0.03659704
Pt       4.21082088       5.67261000      20.00000000        3      -0.00287917      -0.00069349      -0.00485522
Pt       7.01803480       5.67261000      20.00000000        3       0.00290373      -0.00062408       0.00399688
Pt       9.82524872       5.67261000      20.00000000        3      -0.00323111       0.00077629       0.01941007
Pt      -0.00000000       1.62074571      22.29208057        2       0.05972720       0.07665139      -0.01966652
Pt       2.80721392       1.62074571      22.29208057        2      -0.10449457       0.07611538       0.01836694
Pt       5.61442784       1.62074571      22.29208057        2       0.06586591       0.01851213      -0.05670043
Pt       1.40360696       4.05186428      22.29208057        2      -0.07248563      -0.00916265       0.02687003
Pt       4.21082088       4.05186428      22.29208057        2      -0.03736796      -0.02237926      -0.04282359
Pt       7.01803480       4.05186428      22.29208057        2       0.13662362       0.01731323       0.02739410
Pt       2.80721392       6.48298285      22.29208057        2      -0.03788569      -0.05532986      -0.03392451
Pt       5.61442784       6.48298285      22.29208057        2       0.02046306      -0.00894064      -0.05894380
Pt       8.42164176       6.48298285      22.29208057        2       0.02943671      -0.19373606       0.06492753
Pt       0.00645463      -0.03069481      24.57063990        1      -0.00461176      -0.00566358      -0.00686955
Pt       2.81511051      -0.00607376      24.55895358        1       0.01372700       0.00371586       0.00540526
Pt       5.63505458       0.00201109      24.57390621        1      -0.01588464       0.00024226      -0.02147684
Pt       1.43722051       2.38958349      24.61623051        1       0.01147749       0.01140273       0.00466250
Pt       4.24306819       2.41553454      24.57289305        1       0.01375328      -0.01776304      -0.01404610
Pt       7.04600246       2.41441476      24.60179930        1      -0.04128402      -0.00646151       0.00962296
Pt       2.81765094       4.83508826      24.60072366        1       0.00157317       0.02197115       0.01102132
Pt       5.61425366       4.84999621      24.57091212        1       0.00341453      -0.00233279      -0.01211815
Pt       8.41336263       4.89399523      24.62803390        1       0.00349668       0.02343209      -0.01594700
N        9.11935051       3.62807029      26.87165545        0      -0.01614717       0.02757078       0.02701157
H        8.58705984       2.90626518      26.32759995        0       0.00278599       0.02537687       0.00018623
H        8.62515646       4.49370996      26.56866798        0       0.00000817       0.00511818       0.01814316
H       10.01359921       3.72122832      26.33079521        0      -0.02665979       0.00908207      -0.00593325
