31
Lattice="8.421641763931781 0.0 0.0 4.2108208819658905 7.293355709136913 0.0 0.0 0.0 44.584161137365626" Properties=species:S:1:pos:R:3:tags:I:1:forces:R:3 energy=-172.80453491210938 free_energy=-172.80453491210938 stress="0.01030899677425623 -1.8786638911194586e-09 2.998244097440761e-09 -1.8786638911194586e-09 0.010309009812772274 -1.5668001340785054e-09 2.998244097440761e-09 -1.5668001340785054e-09 -2.462877455400303e-05" pbc="T T T"
Pt       1.40360696       0.81037286      20.00000000        3      -0.00024420       0.00310412      -0.00555375
Pt       4.21082088       0.81037286      20.00000000        3       0.00144744       0.00135481      -0.00842485
Pt       7.01803480       0.81037286      20.00000000        3      -0.00189961       0.00057139      -0.00842479
Pt       2.80721392       3.24149143      20.00000000        3       0.00004917       0.00011482       0.01854724
Pt       5.61442784       3.24149143      20.00000000        3       0.00044986      -0.00193056      -0.00842535
Pt       8.42164176       3.24149143      20.00000000        3       0.00007715      -0.00009843       0.01854718
Pt       4.21082088       5.67261000      20.00000000        3      -0.00256585      -0.00176376      -0.00555453
Pt       7.01803480       5.67261000      20.00000000        3       0.00281079      -0.00133873      -0.00555488
Pt       9.82524872       5.67261000      20.00000000        3      -0.00012439      -0.00001328       0.01854756
Pt      -0.00000000       1.62074571      22.29208057        2       0.11438902       0.09611692       0.00601385
Pt       2.80721392       1.62074571      22.29208057        2      -0.10751081       0.10099292       0.00855325
Pt       5.61442784       1.62074571      22.29208057        2      -0.00000164      -0.00000129      -0.10863544
Pt       1.40360696       4.05186428      22.29208057        2      -0.00000054      -0.00000141       0.08440777
Pt       4.21082088       4.05186428      22.29208057        2      -0.14043184       0.05100162       0.00601023
Pt       7.01803480       4.05186428      22.29208057        2       0.14121777       0.04261015       0.00855511
Pt       2.80721392       6.48298285      22.29208057        2      -0.03370818      -0.14360194       0.00855176
Pt       5.61442784       6.48298285      22.29208057        2      -0.00000074       0.00000131      -0.08293481
Pt       8.42164176       6.48298285      22.29208057        2       0.02604771      -0.14711922       0.00601287
Pt       0.00042741      -0.00316026      24.55878970        1       0.00012533       0.01291660       0.02385852
Pt       2.80426359       0.00121012      24.55878961        1       0.01112294      -0.00657078       0.02385859
Pt       5.60486186       0.01234374      24.57146160        1       0.02427846      -0.01655016      -0.01095100
Pt       1.40990924       2.40983241      24.61359010        1      -0.01066709       0.00379357       0.00526623
Pt       4.22629418       2.43323024      24.57146155        1      -0.02647007      -0.01274860      -0.01094994
Pt       7.01212703       2.41666208      24.57146019        1       0.00219499       0.02929989      -0.01094930
Pt       2.82249711       4.87833748      24.61358901        1       0.00204522      -0.01113263       0.00527733
Pt       5.61695117       4.86418653      24.55878951        1      -0.01124711      -0.00634733       0.02385859
Pt       8.40005652       4.86742200      24.61359024        1       0.00861605       0.00734003       0.00526803
N        9.82524854       4.05186450      26.95092108        0      -0.00001580       0.00000022      -0.01179540
H        8.96728601       4.45692427      26.52765793        0       0.01730178       0.00297339       0.00234507
H       10.60502139       4.59235181      26.52765866        0      -0.00606072      -0.01646339       0.00233453
H        9.90343791       3.10631749      26.52765883        0      -0.01122503       0.01348996       0.00234049
