31
Lattice="8.421641763931781 0.0 0.0 4.2108208819658905 7.293355709136913 0.0 0.0 0.0 44.584161137365626" Properties=species:S:1:pos:R:3:tags:I:1:forces:R:3 energy=-172.57542419433594 free_energy=-172.57542419433594 stress="0.010545439086854458 4.3457628635223955e-05 7.283338618435664e-06 4.3457628635223955e-05 0.010495007038116455 -1.0560621376498602e-05 7.283338618435664e-06 -1.0560621376498602e-05 -0.00012014002277282998" pbc="T T T"
Pt       1.40360696       0.81037286      20.00000000        3       0.00022526       0.00059519      -0.00393876
Pt       4.21082088       0.81037286      20.00000000        3       0.00066150       0.00041080      -0.00524032
Pt       7.01803480       0.81037286      20.00000000        3      -0.00103292       0.00054283      -0.00411007
Pt       2.80721392       3.24149143      20.00000000        3       0.00007587      -0.00056754       0.00005814
Pt       5.61442784       3.24149143      20.00000000        3      -0.00017471      -0.00118171      -0.00392690
Pt       8.42164176       3.24149143      20.00000000        3       0.00034340       0.00083994       0.00689426
Pt       4.21082088       5.67261000      20.00000000        3      -0.00029950      -0.00019716      -0.00612947
Pt       7.01803480       5.67261000      20.00000000        3       0.00117944      -0.00032142      -0.00139153
Pt       9.82524872       5.67261000      20.00000000        3      -0.00103526      -0.00011427       0.00243431
Pt      -0.00000000       1.62074571      22.29208057        2       0.02262480       0.03895392       0.01556604
Pt       2.80721392       1.62074571      22.29208057        2      -0.03272316       0.02662025      -0.00911017
Pt       5.61442784       1.62074571      22.29208057        2       0.00998192       0.00578872      -0.04594820
Pt       1.40360696       4.05186428      22.29208057        2      -0.03569801      -0.00426177       0.04390823
Pt       4.21082088       4.05186428      22.29208057        2      -0.01807762      -0.00805242      -0.02391656
Pt       7.01803480       4.05186428      22.29208057        2       0.05501857       0.00939361       0.02674976
Pt       2.80721392       6.48298285      22.29208057        2      -0.01988802      -0.01517068      -0.02192591
Pt       5.61442784       6.48298285      22.29208057        2       0.01259213       0.00258989      -0.02985715
Pt       8.42164176       6.48298285      22.29208057        2       0.00659631      -0.05766413       0.00318358
Pt      -0.00088180      -0.00606522      24.57851491        1      -0.00249540       0.00638036      -0.00741014
Pt       2.80692170       0.00059432      24.57622557        1       0.00028308      -0.00024333      -0.00779429
Pt       5.61552038       0.00568900      24.57886121        1       0.00254113      -0.00973435      -0.00327462
Pt       1.41119969       2.41883838      24.58785872        1      -0.00745006       0.01322641       0.00253687
Pt       4.21680696       2.42867216      24.57873363        1      -0.00333407       0.00548332      -0.00410172
Pt       7.01041938       2.42585569      24.58337351        1       0.02986665       0.01623548       0.00005081
Pt       2.81493547       4.86598233      24.58331978        1      -0.02801072      -0.01777196      -0.00194609
Pt       5.60921288       4.86389880      24.57863007        1       0.00835564      -0.00811047      -0.00653571
Pt       8.41442830       4.87573092      24.59781624        1       0.00562483      -0.01048608       0.02197321
N        9.12314174       3.64700560      27.58833479        0      -0.01057974       0.01775395      -0.00559884
H        8.64822571       2.82696900      27.20167723        0       0.01775531       0.01477517       0.03816546
H        8.65054526       4.46571586      27.19136944        0       0.00977989      -0.01664740      -0.00838575
H       10.07090300       3.64812651      27.20179979        0      -0.02270651      -0.00906512       0.03902156
