31
Lattice="8.421641763931781 0.0 0.0 4.2108208819658905 7.293355709136913 0.0 0.0 0.0 44.584161137365626" Properties=species:S:1:pos:R:3:tags:I:1:forces:R:3 energy=-172.60189819335938 free_energy=-172.60189819335938 stress="0.010518897324800491 5.2353548163353025e-09 7.85065701336407e-09 5.2353548163353025e-09 0.010518866591155529 1.9817795404719618e-08 7.85065701336407e-09 1.9817795404719618e-08 -1.5808962416485883e-05" pbc="T T T"
Pt       1.40360696       0.81037286      20.00000000        3       0.00067485       0.00123152      -0.00134283
Pt       4.21082088       0.81037286      20.00000000        3       0.00000186      -0.00000137      -0.00634664
Pt       7.01803480       0.81037286      20.00000000        3      -0.00067614       0.00123223      -0.00134277
Pt       2.80721392       3.24149143      20.00000000        3      -0.00073082      -0.00120138      -0.00134447
Pt       5.61442784       3.24149143      20.00000000        3       0.00072992      -0.00120113      -0.00134385
Pt       8.42164176       3.24149143      20.00000000        3       0.00000089      -0.00000019       0.01187125
Pt       4.21082088       5.67261000      20.00000000        3       0.00000224       0.00000141      -0.00859895
Pt       7.01803480       5.67261000      20.00000000        3       0.00140391      -0.00003147      -0.00134435
Pt       9.82524872       5.67261000      20.00000000        3      -0.00140709      -0.00003059      -0.00134429
Pt      -0.00000000       1.62074571      22.29208057        2       0.00000126       0.05406184       0.04110646
Pt       2.80721392       1.62074571      22.29208057        2      -0.04278797       0.02470279      -0.01080777
Pt       5.61442784       1.62074571      22.29208057        2       0.04278713       0.02470242      -0.01080890
Pt       1.40360696       4.05186428      22.29208057        2      -0.04681969      -0.02703237       0.04110633
Pt       4.21082088       4.05186428      22.29208057        2       0.00000154      -0.01914831      -0.03130769
Pt       7.01803480       4.05186428      22.29208057        2       0.04681842      -0.02703142       0.04110701
Pt       2.80721392       6.48298285      22.29208057        2      -0.01658136       0.00957627      -0.03130736
Pt       5.61442784       6.48298285      22.29208057        2       0.01658076       0.00957535      -0.03130893
Pt       8.42164176       6.48298285      22.29208057        2       0.00000086      -0.04940481      -0.01080837
Pt       0.00000026      -0.00688284      24.57748756        1      -0.00000122       0.02061375      -0.00907701
Pt       2.80876321       0.00089449      24.57688576        1      -0.00320325      -0.00184985      -0.00630924
Pt       5.61287844       0.00089446      24.57688578        1       0.00320408      -0.00184877      -0.00631025
Pt       1.41500347       2.42453885      24.59691479        1      -0.01709244       0.00986740       0.02064824
Pt       4.21082095       2.42932950      24.57688577        1      -0.00000186       0.00369891      -0.00631005
Pt       7.00663816       2.42453896      24.59691485        1       0.01709529       0.00986951       0.02064942
Pt       2.81317441       4.86567850      24.57748780        1      -0.01785038      -0.01030647      -0.00907585
Pt       5.60846727       4.86567848      24.57748769        1       0.01785443      -0.01030686      -0.00907624
Pt       8.42164185       4.87539659      24.59691497        1      -0.00000460      -0.01973800       0.02064912
N        8.42164250       3.24149302      27.59227002        0      -0.00004687      -0.00013639      -0.02898216
H        9.23997199       2.76902814      27.19286764        0      -0.02505770       0.01447674       0.00912763
H        7.60331108       2.76902801      27.19286720        0       0.02509928       0.01449517       0.00914945
H        8.42164165       4.18641649      27.19286806        0       0.00000469      -0.02883588       0.00908282
