31
Lattice="8.421641763931781 0.0 0.0 4.2108208819658905 7.293355709136913 0.0 0.0 0.0 44.584161137365626" Properties=species:S:1:pos:R:3:tags:I:1:forces:R:3 energy=-173.71286010742188 free_energy=-173.71286010742188 stress="0.010689347051084042 5.392592150599285e-09 1.6501224830989258e-09 5.392592150599285e-09 0.01068938709795475 -1.2588816211689391e-08 1.6501224830989258e-09 -1.2588816211689391e-08 -7.990810217961553e-07" pbc="T T T"
Pt       1.40360696       0.81037286      20.00000000        3      -0.00282492      -0.00163381      -0.00671253
Pt       4.21082088       0.81037286      20.00000000        3       0.00000189       0.00503958       0.01242104
Pt       7.01803480       0.81037286      20.00000000        3       0.00282318      -0.00163427      -0.00671369
Pt       2.80721392       3.24149143      20.00000000        3       0.00436690      -0.00252128       0.01241899
Pt       5.61442784       3.24149143      20.00000000        3      -0.00436784      -0.00252066       0.01241949
Pt       8.42164176       3.24149143      20.00000000        3       0.00000164      -0.00624431      -0.00960985
Pt       4.21082088       5.67261000      20.00000000        3       0.00000199       0.00326452      -0.00671339
Pt       7.01803480       5.67261000      20.00000000        3      -0.00541022       0.00312518      -0.00960934
Pt       9.82524872       5.67261000      20.00000000        3       0.00540697       0.00312502      -0.00960833
Pt      -0.00000000       1.62074571      22.29208057        2       0.00000182       0.00647536      -0.00202436
Pt       2.80721392       1.62074571      22.29208057        2       0.07025734       0.04056166      -0.02787762
Pt       5.61442784       1.62074571      22.29208057        2      -0.07025832       0.04056162      -0.02787616
Pt       1.40360696       4.05186428      22.29208057        2       0.05403164      -0.03119355       0.03128590
Pt       4.21082088       4.05186428      22.29208057        2       0.00000211      -0.08112568      -0.02787598
Pt       7.01803480       4.05186428      22.29208057        2      -0.05403243      -0.03119434       0.03128621
Pt       2.80721392       6.48298285      22.29208057        2      -0.00560818      -0.00323724      -0.00202486
Pt       5.61442784       6.48298285      22.29208057        2       0.00560757      -0.00323701      -0.00202605
Pt       8.42164176       6.48298285      22.29208057        2       0.00000247       0.06239099       0.03128399
Pt       0.00000138       0.00000060      24.58937930        1      -0.00000145      -0.00000183      -0.00328156
Pt       2.80075914      -0.00705611      24.60032829        1       0.00605954       0.00140908       0.00255153
Pt       5.62088492      -0.00705554      24.60032769        1      -0.00606247       0.00140932       0.00255030
Pt       1.39426917       2.42905584      24.60032823        1       0.00424804       0.00454581       0.00255069
Pt       4.21082040       2.43111818      24.66258259        1       0.00000130      -0.00000072       0.01703697
Pt       7.02737402       2.42905604      24.60032821        1      -0.00425179       0.00454502       0.00255108
Pt       2.80433269       4.87135653      24.60032797        1      -0.00181307      -0.00595340       0.00255097
Pt       5.61731127       4.87135588      24.60032782        1       0.00180779      -0.00595502       0.00255048
Pt       8.42164264       4.86223799      24.58984579        1       0.00000192      -0.00000306      -0.00326493
N        4.21081740       2.43111776      26.73159994        0       0.00003624      -0.00008757      -0.00468379
H        5.05242362       2.91701844      27.05269162        0      -0.01586154      -0.00915311      -0.00450546
H        4.21081821       1.45931502      27.05269721        0       0.00000031       0.01837927      -0.00454318
H        3.36921366       2.91701813      27.05269652        0       0.01583144      -0.00913545      -0.00450639
