31
Lattice="8.421641763931781 0.0 0.0 4.2108208819658905 7.293355709136913 0.0 0.0 0.0 44.584161137365626" Properties=species:S:1:pos:R:3:tags:I:1:forces:R:3 energy=-172.80453491210938 free_energy=-172.80453491210938 stress="0.010308993048965931 5.02382713207794e-09 -7.509213695300332e-09 5.02382713207794e-09 0.010308988392353058 -9.527655109309308e-09 -7.509213695300332e-09 -9.527655109309308e-09 -2.4620670956210233e-05" pbc="T T T"
Pt       1.40360696       0.81037286      20.00000000        3       0.00024602       0.00310391      -0.00555485
Pt       4.21082088       0.81037286      20.00000000        3       0.00189933       0.00057228      -0.00842524
Pt       7.01803480       0.81037286      20.00000000        3      -0.00144824       0.00135440      -0.00842589
Pt       2.80721392       3.24149143      20.00000000        3      -0.00007455      -0.00009949       0.01854870
Pt       5.61442784       3.24149143      20.00000000        3      -0.00045388      -0.00193015      -0.00842547
Pt       8.42164176       3.24149143      20.00000000        3      -0.00004671       0.00011593       0.01854831
Pt       4.21082088       5.67261000      20.00000000        3      -0.00281070      -0.00134012      -0.00555447
Pt       7.01803480       5.67261000      20.00000000        3       0.00256588      -0.00176363      -0.00555587
Pt       9.82524872       5.67261000      20.00000000        3       0.00012258      -0.00001310       0.01854929
Pt      -0.00000000       1.62074571      22.29208057        2       0.10751073       0.10100211       0.00855247
Pt       2.80721392       1.62074571      22.29208057        2      -0.11438744       0.09612658       0.00600877
Pt       5.61442784       1.62074571      22.29208057        2      -0.00000034       0.00000036      -0.10863383
Pt       1.40360696       4.05186428      22.29208057        2       0.00000331       0.00000106       0.08442161
Pt       4.21082088       4.05186428      22.29208057        2      -0.14122480       0.04260812       0.00855520
Pt       7.01803480       4.05186428      22.29208057        2       0.14043784       0.05099794       0.00601356
Pt       2.80721392       6.48298285      22.29208057        2      -0.02605336      -0.14712782       0.00601168
Pt       5.61442784       6.48298285      22.29208057        2      -0.00000208      -0.00000207      -0.08294966
Pt       8.42164176       6.48298285      22.29208057        2       0.03371796      -0.14360707       0.00855110
Pt       0.00295049       0.00120937      24.55878711        1      -0.01112570      -0.00656447       0.02388085
Pt       2.80678650      -0.00316033      24.55878711        1      -0.00012057       0.01291857       0.02388012
Pt       5.62399470       0.01234464      24.57146031        1      -0.02428137      -0.01655608      -0.01095015
Pt       1.39730428       2.40983009      24.61359146        1       0.01066586       0.00381672       0.00526611
Pt       4.21672774       2.41666104      24.57146099        1      -0.00219199       0.02930514      -0.01094954
Pt       7.00256099       2.43323123      24.57146270        1       0.02647449      -0.01274934      -0.01095966
Pt       2.82880239       4.86742257      24.61359326        1      -0.00863958       0.00733078       0.00525573
Pt       5.61190558       4.86418659      24.55878761        1       0.01124585      -0.00635436       0.02386966
Pt       8.40635737       4.87833973      24.61359198        1      -0.00202846      -0.01114595       0.00526812
N        9.82524822       4.05186372      26.95092959        0       0.00005859       0.00005608      -0.01175138
H        9.74706014       3.10631906      26.52766745        0       0.01121531       0.01340353       0.00229972
H        9.04547624       4.59235058      26.52766730        0       0.00601356      -0.01643725       0.00231226
H       10.68320970       4.45692434      26.52766665        0      -0.01728766       0.00297745       0.00234278
