31
Lattice="8.421641763931781 0.0 0.0 4.2108208819658905 7.293355709136913 0.0 0.0 0.0 44.584161137365626" Properties=species:S:1:pos:R:3:tags:I:1:forces:R:3 energy=-172.57989501953125 free_energy=-172.57989501953125 stress="0.010525941848754883 4.705189712694846e-05 5.8569374232320115e-05 4.705189712694846e-05 0.010471620596945286 3.381298665772192e-05 5.8569374232320115e-05 3.381298665772192e-05 -0.00013546798436436802" pbc="T T T"
Pt       1.40360696       0.81037286      20.00000000        3      -0.00061360       0.00213018      -0.00299248
Pt       4.21082088       0.81037286      20.00000000        3       0.00014478       0.00008127      -0.00903296
Pt       7.01803480       0.81037286      20.00000000        3      -0.00100560       0.00141474      -0.00500405
Pt       2.80721392       3.24149143      20.00000000        3      -0.00164424      -0.00120221       0.00114813
Pt       5.61442784       3.24149143      20.00000000        3       0.00072426      -0.00157722      -0.00500408
Pt       8.42164176       3.24149143      20.00000000        3       0.00143641       0.00082912       0.01389822
Pt       4.21082088       5.67261000      20.00000000        3      -0.00060087      -0.00034671      -0.00966027
Pt       7.01803480       5.67261000      20.00000000        3       0.00153812      -0.00159614      -0.00299290
Pt       9.82524872       5.67261000      20.00000000        3      -0.00186498      -0.00082124       0.00114915
Pt      -0.00000000       1.62074571      22.29208057        2       0.03828052       0.06413572       0.02288309
Pt       2.80721392       1.62074571      22.29208057        2      -0.05150492       0.04289798      -0.00485893
Pt       5.61442784       1.62074571      22.29208057        2       0.03184023       0.01838240      -0.03857399
Pt       1.40360696       4.05186428      22.29208057        2      -0.04868875      -0.02810903       0.04125508
Pt       4.21082088       4.05186428      22.29208057        2      -0.01980828      -0.01047179      -0.03542048
Pt       7.01803480       4.05186428      22.29208057        2       0.07468329       0.00108343       0.02288545
Pt       2.80721392       6.48298285      22.29208057        2      -0.01897458      -0.01191835      -0.03541897
Pt       5.61442784       6.48298285      22.29208057        2       0.01025404       0.00592142      -0.04683246
Pt       8.42164176       6.48298285      22.29208057        2       0.01140122      -0.06605463      -0.00485614
Pt      -0.00154415      -0.00184417      24.57164887        1       0.00867040      -0.01877635       0.02614516
Pt       2.80719710      -0.00000996      24.56783125        1       0.00796952       0.00460029       0.03424114
Pt       5.62024818       0.01092712      24.57383944        1      -0.00109455       0.00844096       0.01765141
Pt       1.41977930       2.42111979      24.60467395        1       0.00119544      -0.00039837      -0.03185903
Pt       4.22319426       2.43069603      24.57383836        1       0.00676421      -0.00517131       0.01765376
Pt       7.02911058       2.43751301      24.59023804        1      -0.03295807      -0.01902784      -0.01324134
Pt       2.80728677       4.86227895      24.57686751        1       0.03598073       0.02077506       0.01432885
Pt       5.61205845       4.86182146      24.57164928        1      -0.01192265       0.01689764       0.02614579
Pt       8.42106892       4.88124197      24.60467445        1       0.00025056       0.00123586      -0.03186713
N        9.12246321       3.64611074      27.59995717        0       0.00023756       0.00015028       0.01551133
H        9.92856714       3.16411540      27.19199389        0      -0.02352941      -0.00501011      -0.00793014
H        8.28916094       3.16500350      27.25215396        0      -0.00105672      -0.00060969       0.03857442
H        9.10809495       4.58521513      27.19199367        0      -0.01610406      -0.01788525      -0.00792569
