31
Lattice="8.421641763931781 0.0 0.0 4.2108208819658905 7.293355709136913 0.0 0.0 0.0 44.584161137365626" Properties=species:S:1:pos:R:3:tags:I:1:forces:R:3 energy=-172.79193115234375 free_energy=-172.79193115234375 stress="0.010310136713087559 9.644986143086953e-09 -4.516411244992469e-09 9.644986143086953e-09 0.010310151614248753 -2.0133399114552475e-10 -4.516411244992469e-09 -2.0133399114552475e-10 -5.319131014402956e-05" pbc="T T T"
Pt       1.40360696       0.81037286      20.00000000        3      -0.00026752       0.00262267      -0.00198048
Pt       4.21082088       0.81037286      20.00000000        3       0.00150386       0.00008025      -0.00642562
Pt       7.01803480       0.81037286      20.00000000        3      -0.00082421       0.00125810      -0.00642648
Pt       2.80721392       3.24149143      20.00000000        3      -0.00013103      -0.00073314       0.01711336
Pt       5.61442784       3.24149143      20.00000000        3      -0.00068257      -0.00134216      -0.00642747
Pt       8.42164176       3.24149143      20.00000000        3      -0.00056683       0.00048144       0.01711211
Pt       4.21082088       5.67261000      20.00000000        3      -0.00213754      -0.00154333      -0.00198102
Pt       7.01803480       5.67261000      20.00000000        3       0.00240605      -0.00107813      -0.00198251
Pt       9.82524872       5.67261000      20.00000000        3       0.00069949       0.00025452       0.01711333
Pt      -0.00000000       1.62074571      22.29208057        2       0.10594089       0.07567407       0.01753234
Pt       2.80721392       1.62074571      22.29208057        2      -0.11871469       0.08205718       0.00725681
Pt       5.61442784       1.62074571      22.29208057        2      -0.00000118      -0.00000142      -0.12336393
Pt       1.40360696       4.05186428      22.29208057        2       0.00000168      -0.00000040       0.07267095
Pt       4.21082088       4.05186428      22.29208057        2      -0.11850732       0.05390761       0.01753177
Pt       7.01803480       4.05186428      22.29208057        2       0.13041772       0.06178094       0.00725913
Pt       2.80721392       6.48298285      22.29208057        2      -0.01170448      -0.14383739       0.00725963
Pt       5.61442784       6.48298285      22.29208057        2      -0.00000407       0.00000031      -0.04818249
Pt       8.42164176       6.48298285      22.29208057        2       0.01257226      -0.12958270       0.01752754
Pt      -0.00401445      -0.01182686      24.56825820        1       0.01275065       0.02477697      -0.02906764
Pt       2.79897946       0.00938998      24.56825716        1       0.01507887      -0.02342930      -0.02905597
Pt       5.62314575       0.01462115      24.57019460        1      -0.02185063      -0.03447634      -0.00114673
Pt       1.38532295       2.40891799      24.60960983        1       0.02603441      -0.01960804      -0.00390538
Pt       4.21912452       2.41625756      24.57019401        1      -0.01892997       0.03616456      -0.00114685
Pt       7.00101319       2.43135778      24.57019382        1       0.04078301      -0.00168922      -0.00114577
Pt       2.83558211       4.85750293      24.60960984        1       0.00396488       0.03234976      -0.00390413
Pt       5.62667746       4.86467329      24.56825768        1      -0.02783562      -0.00134385      -0.02906637
Pt       8.41155754       4.88917161      24.60960989        1      -0.02999590      -0.01274255      -0.00390353
N        9.82524831       4.05186421      26.91369110        0       0.00002651      -0.00000720       0.03990132
H        9.59131237       3.13617221      26.47644966        0       0.03202694       0.00574794       0.02027784
H        9.14920483       4.71230478      26.47644948        0      -0.01105414      -0.03059288       0.02027116
H       10.73522911       4.30711607      26.47644927        0      -0.02099943       0.02485185       0.02028511
