31
Lattice="8.421641763931781 0.0 0.0 4.2108208819658905 7.293355709136913 0.0 0.0 0.0 44.584161137365626" Properties=species:S:1:pos:R:3:tags:I:1:forces:R:3 energy=-172.793212890625 free_energy=-172.793212890625 stress="0.010255732573568821 -1.1548136669148334e-08 -4.516411244992469e-09 -1.1548136669148334e-08 0.010255732573568821 -8.874339485487326e-09 -4.516411244992469e-09 -8.874339485487326e-09 -4.670452472055331e-05" pbc="T T T"
Pt       1.40360696       0.81037286      20.00000000        3       0.00227996       0.00265984       0.00166786
Pt       4.21082088       0.81037286      20.00000000        3       0.00000193      -0.00000122      -0.00486052
Pt       7.01803480       0.81037286      20.00000000        3      -0.00290808       0.00139585       0.00231370
Pt       2.80721392       3.24149143      20.00000000        3       0.00024327      -0.00321625       0.00231460
Pt       5.61442784       3.24149143      20.00000000        3       0.00116395      -0.00330502       0.00166696
Pt       8.42164176       3.24149143      20.00000000        3       0.00000123       0.00000002       0.03026256
Pt       4.21082088       5.67261000      20.00000000        3       0.00000194       0.00000136      -0.01544449
Pt       7.01803480       5.67261000      20.00000000        3       0.00266180       0.00181930       0.00231299
Pt       9.82524872       5.67261000      20.00000000        3      -0.00344555       0.00064538       0.00166687
Pt      -0.00000000       1.62074571      22.29208057        2       0.00400925       0.11403994       0.03495064
Pt       2.80721392       1.62074571      22.29208057        2      -0.12471268       0.08351070       0.03022177
Pt       5.61442784       1.62074571      22.29208057        2       0.13467549       0.06624773       0.03021991
Pt       1.40360696       4.05186428      22.29208057        2      -0.10076217      -0.05355339       0.03495428
Pt       4.21082088       4.05186428      22.29208057        2      -0.00719935      -0.04540927      -0.07373428
Pt       7.01803480       4.05186428      22.29208057        2       0.09675793      -0.06048946       0.03495079
Pt       2.80721392       6.48298285      22.29208057        2      -0.03572538       0.02893717      -0.07373541
Pt       5.61442784       6.48298285      22.29208057        2       0.04292274       0.01647274      -0.07373795
Pt       8.42164176       6.48298285      22.29208057        2      -0.00996438      -0.14975615       0.03022038
Pt       0.01051035      -0.01354394      24.56854438        1      -0.02909981       0.03360324      -0.00102276
Pt       2.80407642       0.01189175      24.56865833        1       0.01777286      -0.02652950      -0.02491422
Pt       5.60569817      -0.00866304      24.56865858        1       0.01408566       0.02865371      -0.02491468
Pt       1.43848561       2.43083515      24.60715586        1      -0.00514285      -0.02171040      -0.00092556
Pt       4.22268800       2.42788973      24.56865857        1      -0.03185958      -0.00212494      -0.02491401
Pt       7.00035106       2.40105401      24.60715560        1      -0.01623319       0.01531375      -0.00091641
Pt       2.81368810       4.87811123      24.56854554        1      -0.01455078      -0.04200488      -0.00103182
Pt       5.59744351       4.85990728      24.56854527        1       0.04365204       0.00839721      -0.00102249
Pt       8.40444753       4.89258403      24.60715490        1       0.02137429       0.00640153      -0.00091398
N        8.42164124       3.24149077      26.89807647        0       0.00003562       0.00004098       0.02239802
H        9.33234218       2.98488660      26.46327002        0      -0.01597950      -0.02417259       0.02066410
H        7.74406583       2.58110517      26.46326986        0      -0.01297907       0.02588156       0.02064045
H        8.18851795       4.15848304      26.46326990        0       0.02892262      -0.00174889       0.02066258
