31
Lattice="8.421641763931781 0.0 0.0 4.2108208819658905 7.293355709136913 0.0 0.0 0.0 44.584161137365626" Properties=species:S:1:pos:R:3:tags:I:1:forces:R:3 energy=-172.8036651611328 free_energy=-172.8036651611328 stress="0.010243699885904789 -4.372854527900927e-05 -6.0944083088543266e-05 -4.372854527900927e-05 0.010294203646481037 -3.519331949064508e-05 -6.0944083088543266e-05 -3.519331949064508e-05 -1.095975221687695e-05" pbc="T T T"
Pt       1.40360696       0.81037286      20.00000000        3       0.00197190       0.00391098       0.00331247
Pt       4.21082088       0.81037286      20.00000000        3       0.00083825       0.00048134      -0.00621021
Pt       7.01803480       0.81037286      20.00000000        3      -0.00232178       0.00122385      -0.00127223
Pt       2.80721392       3.24149143      20.00000000        3      -0.00048095      -0.00361443       0.00617629
Pt       5.61442784       3.24149143      20.00000000        3      -0.00010049      -0.00262226      -0.00127271
Pt       8.42164176       3.24149143      20.00000000        3       0.00266197       0.00153595       0.03510338
Pt       4.21082088       5.67261000      20.00000000        3       0.00064202       0.00037025      -0.01569113
Pt       7.01803480       5.67261000      20.00000000        3       0.00437232      -0.00024730       0.00331017
Pt       9.82524872       5.67261000      20.00000000        3      -0.00337167       0.00139229       0.00617528
Pt      -0.00000000       1.62074571      22.29208057        2       0.04753917       0.11495742       0.03033754
Pt       2.80721392       1.62074571      22.29208057        2      -0.16865160       0.08359321       0.05839713
Pt       5.61442784       1.62074571      22.29208057        2       0.07065429       0.04079238      -0.03735961
Pt       1.40360696       4.05186428      22.29208057        2      -0.12040021      -0.06951870       0.04897939
Pt       4.21082088       4.05186428      22.29208057        2      -0.01789354      -0.05013869      -0.08589851
Pt       7.01803480       4.05186428      22.29208057        2       0.12332026      -0.01631482       0.03033330
Pt       2.80721392       6.48298285      22.29208057        2      -0.05236618       0.00957321      -0.08589749
Pt       5.61442784       6.48298285      22.29208057        2       0.02277424       0.01315296      -0.07215889
Pt       8.42164176       6.48298285      22.29208057        2      -0.01193036      -0.18784457       0.05838753
Pt      -0.01818475      -0.01401623      24.56862816        1       0.04336316       0.02349380       0.00071898
Pt       2.78803378      -0.01107466      24.56182912        1       0.04227681       0.02441765       0.00093395
Pt       5.60211244       0.00197385      24.56838990        1      -0.00624692       0.01060818      -0.01237640
Pt       1.42114856       2.40594953      24.62284212        1       0.00362283       0.01725331      -0.00584282
Pt       4.20637341       2.41946625      24.56839059        1       0.00605528      -0.01071865      -0.01237622
Pt       6.99164774       2.41588412      24.59719080        1      -0.00689370      -0.00398236       0.01626584
Pt       2.81349099       4.86586079      24.56439366        1      -0.00974578      -0.00562584       0.01068705
Pt       5.59319709       4.85349620      24.56862769        1       0.04202723       0.02580956       0.00071801
Pt       8.40861465       4.89001394      24.62283990        1       0.01675699      -0.00550257      -0.00580985
N        8.71544755       3.41111908      26.90726072        0       0.00594317       0.00346801      -0.04220581
H        9.58019165       2.96428653      26.53905194        0      -0.04065312       0.00449304       0.01654030
H        7.94741124       2.96769424      26.35831677        0       0.02267297       0.01308702       0.04145704
H        8.76085039       4.38342729      26.53905246        0      -0.01643652      -0.03748406       0.01653799
