31
Lattice="8.421641763931781 0.0 0.0 4.2108208819658905 7.293355709136913 0.0 0.0 0.0 44.584161137365626" Properties=species:S:1:pos:R:3:tags:I:1:forces:R:3 energy=-172.80612182617188 free_energy=-172.80612182617188 stress="0.01021499652415514 -2.9924456246277487e-09 -3.935535453081229e-09 -2.9924456246277487e-09 0.010215004906058311 -2.6227833238579024e-09 -3.935535453081229e-09 -2.6227833238579024e-09 -7.902227662270889e-05" pbc="T T T"
Pt       1.40360696       0.81037286      20.00000000        3       0.00201164       0.00318901       0.00014907
Pt       4.21082088       0.81037286      20.00000000        3       0.00000205      -0.00000117      -0.01100233
Pt       7.01803480       0.81037286      20.00000000        3      -0.00201359       0.00318960       0.00014925
Pt       2.80721392       3.24149143      20.00000000        3      -0.00175753      -0.00333796       0.00014833
Pt       5.61442784       3.24149143      20.00000000        3       0.00175684      -0.00333744       0.00014827
Pt       8.42164176       3.24149143      20.00000000        3       0.00000111       0.00000039       0.03285739
Pt       4.21082088       5.67261000      20.00000000        3       0.00000243       0.00000166      -0.01574659
Pt       7.01803480       5.67261000      20.00000000        3       0.00376720       0.00014778       0.00014764
Pt       9.82524872       5.67261000      20.00000000        3      -0.00377069       0.00014802       0.00014848
Pt      -0.00000000       1.62074571      22.29208057        2       0.00000110       0.12772545       0.03249641
Pt       2.80721392       1.62074571      22.29208057        2      -0.14542329       0.08395930       0.01005428
Pt       5.61442784       1.62074571      22.29208057        2       0.14542237       0.08395698       0.01005639
Pt       1.40360696       4.05186428      22.29208057        2      -0.11061492      -0.06386396       0.03249609
Pt       4.21082088       4.05186428      22.29208057        2       0.00000165      -0.03007258      -0.07678637
Pt       7.01803480       4.05186428      22.29208057        2       0.11061298      -0.06386443       0.03249682
Pt       2.80721392       6.48298285      22.29208057        2      -0.02604491       0.01503896      -0.07678429
Pt       5.61442784       6.48298285      22.29208057        2       0.02604142       0.01503810      -0.07678761
Pt       8.42164176       6.48298285      22.29208057        2       0.00000304      -0.16791672       0.01005493
Pt       0.00000021      -0.00512100      24.56477975        1       0.00000078      -0.03940053       0.01025145
Pt       2.81114799       0.00227106      24.56060090        1      -0.01717585      -0.00991542       0.01757057
Pt       5.61049373       0.00227116      24.56060133        1       0.01717546      -0.00991551       0.01755987
Pt       1.42856009       2.41671184      24.61159906        1      -0.00752433       0.00434381       0.00179319
Pt       4.21082090       2.42657585      24.56060098        1       0.00000207       0.01983193       0.01757054
Pt       6.99308163       2.41671168      24.61159854        1       0.00752272       0.00434508       0.00179247
Pt       2.81164871       4.86479748      24.56477992        1       0.03412289       0.01970041       0.01025338
Pt       5.60999303       4.86479750      24.56477978        1      -0.03412266       0.01969974       0.01025273
Pt       8.42164171       4.89105065      24.61159882        1       0.00000005      -0.00868994       0.00179494
N        8.42164143       3.24149137      26.93137977        0       0.00001525       0.00001086       0.00369018
H        8.42164185       4.19005453      26.50980730        0      -0.00000517       0.02606510       0.00106088
H        9.24312157       2.76721001      26.50980696        0       0.02257636      -0.01303795       0.00106031
H        7.60016219       2.76720994      26.50980746        0      -0.02258644      -0.01303818       0.00105319
