31
Lattice="8.421641763931781 0.0 0.0 4.2108208819658905 7.293355709136913 0.0 0.0 0.0 44.584161137365626" Properties=species:S:1:pos:R:3:tags:I:1:forces:R:3 energy=-172.793212890625 free_energy=-172.793212890625 stress="0.010255713015794754 4.932682706737523e-09 1.1590308712783326e-09 4.932682706737523e-09 0.010255715809762478 3.7926972673574255e-09 1.1590308712783326e-09 3.7926972673574255e-09 -4.672748764278367e-05" pbc="T T T"
Pt       1.40360696       0.81037286      20.00000000        3       0.00228005       0.00265963       0.00166732
Pt       4.21082088       0.81037286      20.00000000        3       0.00000190      -0.00000149      -0.00485981
Pt       7.01803480       0.81037286      20.00000000        3      -0.00290821       0.00139627       0.00231385
Pt       2.80721392       3.24149143      20.00000000        3       0.00024306      -0.00321611       0.00231290
Pt       5.61442784       3.24149143      20.00000000        3       0.00116407      -0.00330493       0.00166675
Pt       8.42164176       3.24149143      20.00000000        3       0.00000128       0.00000018       0.03026220
Pt       4.21082088       5.67261000      20.00000000        3       0.00000215       0.00000125      -0.01544389
Pt       7.01803480       5.67261000      20.00000000        3       0.00266198       0.00181966       0.00231352
Pt       9.82524872       5.67261000      20.00000000        3      -0.00344593       0.00064588       0.00166637
Pt      -0.00000000       1.62074571      22.29208057        2       0.00400739       0.11403911       0.03494912
Pt       2.80721392       1.62074571      22.29208057        2      -0.12471169       0.08350858       0.03021975
Pt       5.61442784       1.62074571      22.29208057        2       0.13467589       0.06624676       0.03021914
Pt       1.40360696       4.05186428      22.29208057        2      -0.10076492      -0.05355222       0.03494926
Pt       4.21082088       4.05186428      22.29208057        2      -0.00719641      -0.04540882      -0.07373656
Pt       7.01803480       4.05186428      22.29208057        2       0.09675729      -0.06048916       0.03494920
Pt       2.80721392       6.48298285      22.29208057        2      -0.03572484       0.02893988      -0.07373743
Pt       5.61442784       6.48298285      22.29208057        2       0.04292262       0.01647219      -0.07373782
Pt       8.42164176       6.48298285      22.29208057        2      -0.00996485      -0.14975588       0.03021944
Pt       0.01051047      -0.01354351      24.56854488        1      -0.02909949       0.03360070      -0.00102316
Pt       2.80407658       0.01189158      24.56865852        1       0.01777074      -0.02652696      -0.02491377
Pt       5.60569821      -0.00866333      24.56865949        1       0.01408688       0.02865481      -0.02491531
Pt       1.43848523       2.43083565      24.60715543        1      -0.00514188      -0.02171557      -0.00091821
Pt       4.22268827       2.42788967      24.56865860        1      -0.03185896      -0.00212638      -0.02491401
Pt       7.00035066       2.40105422      24.60715479        1      -0.01623288       0.01531131      -0.00091665
Pt       2.81368772       4.87811106      24.56854481        1      -0.01454713      -0.04200111      -0.00102258
Pt       5.59744384       4.85990668      24.56854423        1       0.04364673       0.00839941      -0.00102311
Pt       8.40444742       4.89258376      24.60715468        1       0.02137566       0.00640342      -0.00091866
N        8.42164104       3.24149165      26.89807540        0       0.00000224      -0.00001357       0.02241543
H        7.74406495       2.58110543      26.46326893        0      -0.01296607       0.02590953       0.02065369
H        8.18852013       4.15848309      26.46326912        0       0.02890190      -0.00171372       0.02064907
H        9.33234048       2.98488542      26.46326834        0      -0.01593861      -0.02418268       0.02065377
