31
Lattice="8.421641763931781 0.0 0.0 4.2108208819658905 7.293355709136913 0.0 0.0 0.0 44.584161137365626" Properties=species:S:1:pos:R:3:tags:I:1:forces:R:3 energy=-172.8059844970703 free_energy=-172.8059844970703 stress="0.010280280373990536 -4.463996394754588e-10 -7.128311829696088e-10 -4.463996394754588e-10 0.010280288755893707 -3.3154641254640183e-09 -7.128311829696088e-10 -3.3154641254640183e-09 -5.394010804593563e-05" pbc="T T T"
Pt       1.40360696       0.81037286      20.00000000        3       0.00000065       0.00276081      -0.00425261
Pt       4.21082088       0.81037286      20.00000000        3       0.00105218       0.00060499      -0.00947186
Pt       7.01803480       0.81037286      20.00000000        3      -0.00105260       0.00060454      -0.00947350
Pt       2.80721392       3.24149143      20.00000000        3      -0.00058995       0.00034058       0.01770377
Pt       5.61442784       3.24149143      20.00000000        3      -0.00000204      -0.00121309      -0.00947300
Pt       8.42164176       3.24149143      20.00000000        3       0.00059251       0.00034196       0.01770231
Pt       4.21082088       5.67261000      20.00000000        3      -0.00239078      -0.00138024      -0.00425223
Pt       7.01803480       5.67261000      20.00000000        3       0.00239147      -0.00137936      -0.00425413
Pt       9.82524872       5.67261000      20.00000000        3      -0.00000090      -0.00068053       0.01770329
Pt      -0.00000000       1.62074571      22.29208057        2       0.11651104       0.09124079       0.00165111
Pt       2.80721392       1.62074571      22.29208057        2      -0.11650570       0.09124325       0.00165304
Pt       5.61442784       1.62074571      22.29208057        2      -0.00000480      -0.00000033      -0.09937352
Pt       1.40360696       4.05186428      22.29208057        2       0.00000186      -0.00000080       0.08201195
Pt       4.21082088       4.05186428      22.29208057        2      -0.13727233       0.05527509       0.00165241
Pt       7.01803480       4.05186428      22.29208057        2       0.13726947       0.05527793       0.00165155
Pt       2.80721392       6.48298285      22.29208057        2      -0.02076434      -0.14652012       0.00165101
Pt       5.61442784       6.48298285      22.29208057        2      -0.00000093       0.00000146      -0.07235065
Pt       8.42164176       6.48298285      22.29208057        2       0.02076531      -0.14651714       0.00164951
Pt       0.00067093      -0.00038754      24.56074765        1       0.00382717      -0.00220939       0.01202093
Pt       2.80654339      -0.00038738      24.56074738        1      -0.00382846      -0.00221021       0.01202238
Pt       5.61442779       0.00600124      24.56729963        1       0.00000141       0.04490351       0.00588191
Pt       1.40360706       2.40924908      24.61409017        1       0.00000112       0.00594138       0.00152860
Pt       4.21601824       2.42811772      24.56729986        1       0.03888694      -0.02245162       0.00587252
Pt       7.01283731       2.42811776      24.56729958        1      -0.03888860      -0.02245230       0.00588398
Pt       2.82615314       4.87317179      24.61409050        1      -0.00514472      -0.00297164       0.00153081
Pt       5.61442774       4.86301153      24.56074786        1       0.00000023       0.00442027       0.01202162
Pt       8.40270197       4.87317184      24.61409005        1       0.00514453      -0.00297015       0.00153124
N        9.82524849       4.05186438      26.95105784        0       0.00000038       0.00001279       0.00445154
H       10.64515992       4.52524020      26.52528484        0       0.02161537       0.01247653       0.00171055
H        9.82524899       3.10511245      26.52528487        0       0.00000002      -0.02496530       0.00170543
H        9.00533790       4.52524034      26.52528508        0      -0.02161545       0.01247638       0.00171052
