31
Lattice="8.421641763931781 0.0 0.0 4.2108208819658905 7.293355709136913 0.0 0.0 0.0 44.584161137365626" Properties=species:S:1:pos:R:3:tags:I:1:forces:R:3 energy=-172.80535888671875 free_energy=-172.80535888671875 stress="0.010277402587234974 -2.1625501176458783e-05 5.5821819842094555e-05 -2.1625501176458783e-05 0.010302354581654072 3.222376108169556e-05 5.5821819842094555e-05 3.222376108169556e-05 -1.553869697090704e-05" pbc="T T T"
Pt       1.40360696       0.81037286      20.00000000        3       0.00013953       0.00325978       0.00135750
Pt       4.21082088       0.81037286      20.00000000        3       0.00048907       0.00027994      -0.00643066
Pt       7.01803480       0.81037286      20.00000000        3      -0.00221230      -0.00020381      -0.00832960
Pt       2.80721392       3.24149143      20.00000000        3      -0.00152384      -0.00298728       0.01605019
Pt       5.61442784       3.24149143      20.00000000        3      -0.00128185      -0.00181338      -0.00832924
Pt       8.42164176       3.24149143      20.00000000        3       0.00143810       0.00083007       0.02707842
Pt       4.21082088       5.67261000      20.00000000        3      -0.00220165      -0.00127076      -0.00996998
Pt       7.01803480       5.67261000      20.00000000        3       0.00289222      -0.00150847       0.00135642
Pt       9.82524872       5.67261000      20.00000000        3      -0.00335080       0.00017493       0.01604962
Pt      -0.00000000       1.62074571      22.29208057        2       0.14085799       0.10647342       0.02284963
Pt       2.80721392       1.62074571      22.29208057        2      -0.13346434       0.10136639       0.03627884
Pt       5.61442784       1.62074571      22.29208057        2       0.01162911       0.00671663      -0.10785496
Pt       1.40360696       4.05186428      22.29208057        2      -0.04051541      -0.02339299       0.07277421
Pt       4.21082088       4.05186428      22.29208057        2      -0.08324604       0.02111769      -0.03974964
Pt       7.01803480       4.05186428      22.29208057        2       0.16263282       0.06874813       0.02285249
Pt       2.80721392       6.48298285      22.29208057        2      -0.02333446      -0.08265536      -0.03975399
Pt       5.61442784       6.48298285      22.29208057        2       0.03546385       0.02047520      -0.07370767
Pt       8.42164176       6.48298285      22.29208057        2       0.02105340      -0.16626684       0.03627483
Pt       0.01761188      -0.00280121      24.56335339        1      -0.02948008       0.03632782       0.00770125
Pt       2.82723982       0.01156150      24.56370988        1      -0.01980246      -0.01142866      -0.00901099
Pt       5.63308076       0.01549581      24.57009011        1      -0.02177715       0.00510540      -0.00071569
Pt       1.42454899       2.41393280      24.62682795        1      -0.03056103       0.00001045      -0.00762537
Pt       4.23356796       2.43952469      24.57009081        1      -0.00646939      -0.02141307      -0.00072478
Pt       7.01752461       2.43082351      24.56808240        1      -0.00994924      -0.00574297      -0.00642873
Pt       2.83152611       4.87627383      24.59457024        1       0.01488440       0.00859303       0.04191765
Pt       5.62080752       4.87888986      24.56335386        1       0.01672023      -0.04369619       0.00769088
Pt       8.41722904       4.88896589      24.62682780        1      -0.01526730      -0.02647445      -0.00762079
N        9.56202279       3.89989145      26.93229962        0       0.00813951       0.00474304      -0.03409374
H        9.52428329       2.93176417      26.55474795        0      -0.01842805       0.01096183       0.01214242
H        8.70472881       4.35127233      26.55474915        0       0.00032866      -0.02146064       0.01215694
H       10.33141138       4.34409708      26.38941437        0       0.02619659       0.01513105       0.02581432
