31
Lattice="8.421641763931781 0.0 0.0 4.2108208819658905 7.293355709136913 0.0 0.0 0.0 44.584161137365626" Properties=species:S:1:pos:R:3:tags:I:1:forces:R:3 energy=-172.80886840820312 free_energy=-172.80886840820312 stress="0.010305313393473625 -2.1852049030712806e-05 4.2326934135417105e-07 -2.1852049030712806e-05 0.010330548509955406 2.4447660962323425e-07 4.2326934135417105e-07 2.4447660962323425e-07 8.446758329228032e-06" pbc="T T T"
Pt       1.40360696       0.81037286      20.00000000        3       0.00041465       0.00381787      -0.00013229
Pt       4.21082088       0.81037286      20.00000000        3       0.00130643       0.00075175      -0.00881174
Pt       7.01803480       0.81037286      20.00000000        3      -0.00152705       0.00026206      -0.00968161
Pt       2.80721392       3.24149143      20.00000000        3      -0.00092510      -0.00141598       0.01716670
Pt       5.61442784       3.24149143      20.00000000        3      -0.00053532      -0.00145234      -0.00968137
Pt       8.42164176       3.24149143      20.00000000        3       0.00160422       0.00092557       0.02362028
Pt       4.21082088       5.67261000      20.00000000        3      -0.00174407      -0.00100657      -0.00764826
Pt       7.01803480       5.67261000      20.00000000        3       0.00351346      -0.00154894      -0.00013381
Pt       9.82524872       5.67261000      20.00000000        3      -0.00169005      -0.00009208       0.01716727
Pt      -0.00000000       1.62074571      22.29208057        2       0.13441707       0.09835643       0.01990787
Pt       2.80721392       1.62074571      22.29208057        2      -0.14299847       0.09631620       0.02985761
Pt       5.61442784       1.62074571      22.29208057        2      -0.00349045      -0.00201550      -0.11544669
Pt       1.40360696       4.05186428      22.29208057        2      -0.03031342      -0.01750228       0.08498292
Pt       4.21082088       4.05186428      22.29208057        2      -0.10979101       0.02900438      -0.02290484
Pt       7.01803480       4.05186428      22.29208057        2       0.15238443       0.06722927       0.01991112
Pt       2.80721392       6.48298285      22.29208057        2      -0.02977794      -0.10958581      -0.02290668
Pt       5.61442784       6.48298285      22.29208057        2       0.01390103       0.00802630      -0.06294074
Pt       8.42164176       6.48298285      22.29208057        2       0.01191460      -0.17199831       0.02985751
Pt      -0.00008607      -0.00447397      24.56366443        1       0.00398261       0.01117164       0.00247949
Pt       2.80830312       0.00062841      24.56180386        1      -0.01167004      -0.00673766       0.00301509
Pt       5.61348938       0.00744543      24.56870376        1       0.00197358      -0.00027395       0.00528586
Pt       1.40519521       2.41065178      24.62482125        1      -0.00001621      -0.00105362      -0.00748767
Pt       4.21680005       2.42658292      24.56870375        1       0.00074602       0.00184405       0.00528631
Pt       7.00399322       2.42301165      24.56554145        1      -0.00258972      -0.00149614       0.01329695
Pt       2.82630032       4.87325611      24.60324856        1      -0.00105485      -0.00060725       0.01185721
Pt       5.61051057       4.86439893      24.56366550        1       0.01166624      -0.00213730       0.00246936
Pt       8.40471166       4.87384564      24.62482137        1      -0.00092242       0.00051122      -0.00748574
N        9.63083290       3.93961947      26.94624937        0      -0.02447613      -0.01413413       0.01649657
H       10.42217758       4.39650109      26.45243167        0       0.00707199       0.00409447      -0.02125671
H        9.60362892       2.97507055      26.56311403        0       0.01120696       0.00207832      -0.00306867
H        8.78190656       4.39833391      26.56311498        0       0.00741905       0.00866818      -0.00307098
