31
Lattice="8.421641763931781 0.0 0.0 4.2108208819658905 7.293355709136913 0.0 0.0 0.0 44.584161137365626" Properties=species:S:1:pos:R:3:tags:I:1:forces:R:3 energy=-172.793212890625 free_energy=-172.793212890625 stress="0.010255754925310612 2.026943501931555e-09 1.2341229371770623e-08 2.026943501931555e-09 0.010255754925310612 -3.2839206909329732e-09 1.2341229371770623e-08 -3.2839206909329732e-09 -4.66973397124093e-05" pbc="T T T"
Pt       1.40360696       0.81037286      20.00000000        3       0.00290688       0.00139561       0.00231457
Pt       4.21082088       0.81037286      20.00000000        3       0.00000147      -0.00000159      -0.00486055
Pt       7.01803480       0.81037286      20.00000000        3      -0.00228149       0.00266017       0.00166717
Pt       2.80721392       3.24149143      20.00000000        3      -0.00116509      -0.00330537       0.00166726
Pt       5.61442784       3.24149143      20.00000000        3      -0.00024366      -0.00321587       0.00231409
Pt       8.42164176       3.24149143      20.00000000        3       0.00000102       0.00000049       0.03026286
Pt       4.21082088       5.67261000      20.00000000        3       0.00000231       0.00000137      -0.01544437
Pt       7.01803480       5.67261000      20.00000000        3       0.00344345       0.00064488       0.00166672
Pt       9.82524872       5.67261000      20.00000000        3      -0.00266504       0.00182005       0.00231394
Pt      -0.00000000       1.62074571      22.29208057        2      -0.00400314       0.11404222       0.03495423
Pt       2.80721392       1.62074571      22.29208057        2      -0.13467976       0.06624936       0.03022234
Pt       5.61442784       1.62074571      22.29208057        2       0.12471173       0.08351081       0.03022214
Pt       1.40360696       4.05186428      22.29208057        2      -0.09675940      -0.06049006       0.03495609
Pt       4.21082088       4.05186428      22.29208057        2       0.00719811      -0.04540907      -0.07373315
Pt       7.01803480       4.05186428      22.29208057        2       0.10076484      -0.05355325       0.03495506
Pt       2.80721392       6.48298285      22.29208057        2      -0.04292456       0.01646962      -0.07373518
Pt       5.61442784       6.48298285      22.29208057        2       0.03572503       0.02894022      -0.07373792
Pt       8.42164176       6.48298285      22.29208057        2       0.00996766      -0.14975895       0.03022186
Pt      -0.01051005      -0.01354407      24.56854448        1       0.02910000       0.03360428      -0.00102212
Pt       2.81594384      -0.00866324      24.56865878        1      -0.01408805       0.02865348      -0.02491456
Pt       5.61756535       0.01189176      24.56865874        1      -0.01777121      -0.02652857      -0.02491449
Pt       1.42129143       2.40105373      24.60715599        1       0.01623198       0.01531250      -0.00093088
Pt       4.19895326       2.42788969      24.56865865        1       0.03186266      -0.00212399      -0.02491428
Pt       6.98315614       2.43083535      24.60715588        1       0.00514302      -0.02171081      -0.00092580
Pt       2.82419821       4.85990700      24.56854537        1      -0.04365069       0.00839743      -0.00103207
Pt       5.60795393       4.87811128      24.56854429        1       0.01454998      -0.04200637      -0.00102231
Pt       8.43883566       4.89258425      24.60715594        1      -0.02137671       0.00640296      -0.00092947
N        8.42164311       3.24149083      26.89807577        0      -0.00007056       0.00001360       0.02238196
H        9.09921982       2.58110533      26.46326823        0       0.01295780       0.02590801       0.02065031
H        7.51094142       2.98488548      26.46326776        0       0.01601718      -0.02417172       0.02068143
H        8.65476289       4.15848409      26.46326809        0      -0.02890573      -0.00175105       0.02066512
