31
Lattice="8.421641763931781 0.0 0.0 4.2108208819658905 7.293355709136913 0.0 0.0 0.0 44.584161137365626" Properties=species:S:1:pos:R:3:tags:I:1:forces:R:3 energy=-172.80653381347656 free_energy=-172.80653381347656 stress="0.010291804559528828 -4.9276178692991834e-09 -8.226577641323729e-09 -4.9276178692991834e-09 0.010291814804077148 3.0744244927660702e-09 -8.226577641323729e-09 3.0744244927660702e-09 2.575726648501586e-05" pbc="T T T"
Pt       1.40360696       0.81037286      20.00000000        3       0.00223444       0.00252548       0.00094783
Pt       4.21082088       0.81037286      20.00000000        3       0.00000137      -0.00000085      -0.00860572
Pt       7.01803480       0.81037286      20.00000000        3      -0.00223515       0.00252648       0.00094679
Pt       2.80721392       3.24149143      20.00000000        3      -0.00107171      -0.00319843       0.00094646
Pt       5.61442784       3.24149143      20.00000000        3       0.00107060      -0.00319792       0.00094703
Pt       8.42164176       3.24149143      20.00000000        3       0.00000147       0.00000029       0.03144330
Pt       4.21082088       5.67261000      20.00000000        3       0.00000228       0.00000099      -0.01521564
Pt       7.01803480       5.67261000      20.00000000        3       0.00330382       0.00067273       0.00094646
Pt       9.82524872       5.67261000      20.00000000        3      -0.00330720       0.00067240       0.00094664
Pt      -0.00000000       1.62074571      22.29208057        2       0.00000101       0.12209874       0.04594289
Pt       2.80721392       1.62074571      22.29208057        2      -0.13821107       0.07979527       0.02789540
Pt       5.61442784       1.62074571      22.29208057        2       0.13820963       0.07979496       0.02789464
Pt       1.40360696       4.05186428      22.29208057        2      -0.10574212      -0.06105042       0.04594355
Pt       4.21082088       4.05186428      22.29208057        2       0.00000193      -0.03577103      -0.07026606
Pt       7.01803480       4.05186428      22.29208057        2       0.10573975      -0.06105090       0.04594414
Pt       2.80721392       6.48298285      22.29208057        2      -0.03097828       0.01788669      -0.07026666
Pt       5.61442784       6.48298285      22.29208057        2       0.03097678       0.01788676      -0.07026777
Pt       8.42164176       6.48298285      22.29208057        2       0.00000143      -0.15958996       0.02789462
Pt       0.00000019      -0.01027238      24.56857305        1      -0.00000025       0.00925513      -0.00448485
Pt       2.80945426       0.00129342      24.56523478        1       0.00060941       0.00035112      -0.00526097
Pt       5.61218722       0.00129340      24.56523477        1      -0.00060932       0.00035138      -0.00526235
Pt       1.42909803       2.41640116      24.61131428        1      -0.01195456       0.00690263       0.00162602
Pt       4.21082090       2.42853145      24.56523439        1       0.00000179      -0.00070223      -0.00526124
Pt       6.99254350       2.41640115      24.61131474        1       0.01195345       0.00690226       0.00162407
Pt       2.81610994       4.86737315      24.56857293        1      -0.00801535      -0.00462727      -0.00448385
Pt       5.60553172       4.86737330      24.56857322        1       0.00801509      -0.00462978      -0.00448431
Pt       8.42164181       4.89167165      24.61131487        1       0.00000055      -0.01380443       0.00162487
N        8.42164174       3.24149152      26.92948808        0       0.00004150      -0.00001257       0.03307602
H        9.24561258       2.76577161      26.51547730        0       0.00877669      -0.00506672      -0.01089955
H        7.59767181       2.76577191      26.51547749        0      -0.00881329      -0.00508233      -0.01091778
H        8.42164228       4.19293038      26.51547759        0      -0.00000453       0.01016167      -0.01091372
