31
Lattice="8.421641763931781 0.0 0.0 4.2108208819658905 7.293355709136913 0.0 0.0 0.0 44.584161137365626" Properties=species:S:1:pos:R:3:tags:I:1:forces:R:3 energy=-172.8047332763672 free_energy=-172.8047332763672 stress="0.010282744653522968 -2.5398010805588456e-08 2.8464272716632877e-08 -2.5398010805588456e-08 0.010282774455845356 1.303229524296512e-09 2.8464272716632877e-08 1.303229524296512e-09 -4.629094109986909e-05" pbc="T T T"
Pt       1.40360696       0.81037286      20.00000000        3       0.00020764       0.00323064      -0.00449982
Pt       4.21082088       0.81037286      20.00000000        3       0.00132314       0.00095451      -0.01029393
Pt       7.01803480       0.81037286      20.00000000        3      -0.00149150       0.00066498      -0.01029438
Pt       2.80721392       3.24149143      20.00000000        3      -0.00040214       0.00062680       0.01847503
Pt       5.61442784       3.24149143      20.00000000        3       0.00016510      -0.00162302      -0.01029429
Pt       8.42164176       3.24149143      20.00000000        3       0.00074577       0.00003677       0.01847452
Pt       4.21082088       5.67261000      20.00000000        3      -0.00290109      -0.00143614      -0.00449935
Pt       7.01803480       5.67261000      20.00000000        3       0.00269439      -0.00179335      -0.00450152
Pt       9.82524872       5.67261000      20.00000000        3      -0.00034255      -0.00066043       0.01847449
Pt      -0.00000000       1.62074571      22.29208057        2       0.12130418       0.09924228      -0.00048830
Pt       2.80721392       1.62074571      22.29208057        2      -0.11667733       0.09295828       0.00298143
Pt       5.61442784       1.62074571      22.29208057        2       0.00000070      -0.00000059      -0.11598859
Pt       1.40360696       4.05186428      22.29208057        2       0.00000261       0.00000045       0.08546977
Pt       4.21082088       4.05186428      22.29208057        2      -0.14659965       0.05543183      -0.00048952
Pt       7.01803480       4.05186428      22.29208057        2       0.13883975       0.05456523       0.00298463
Pt       2.80721392       6.48298285      22.29208057        2      -0.02216353      -0.14752601       0.00298661
Pt       5.61442784       6.48298285      22.29208057        2      -0.00000432      -0.00000024      -0.07476303
Pt       8.42164176       6.48298285      22.29208057        2       0.02529918      -0.15467301      -0.00049414
Pt       0.00305073       0.00560400      24.55901169        1       0.00042561      -0.02661826       0.02279212
Pt       2.81054251      -0.00544443      24.55901007        1      -0.02326619       0.01294236       0.02280150
Pt       5.61430902       0.00949991      24.56703257        1       0.00333110       0.00717569       0.01080596
Pt       1.41036726       2.41007532      24.61569149        1      -0.01976815       0.00558069       0.00419411
Pt       4.21910815       2.42647150      24.56703265        1       0.00454904      -0.00647215       0.01080811
Pt       7.00986687       2.42626515      24.56703352        1      -0.00787871      -0.00070645       0.01079805
Pt       2.82205824       4.87861245      24.61569341        1       0.00504822      -0.01990817       0.00418470
Pt       5.60804917       4.86207649      24.55901100        1       0.02283845       0.01367863       0.02279319
Pt       8.40003751       4.86690423      24.61569124        1       0.01472043       0.01432780       0.00419822
N        9.82525028       4.05186386      26.95930767        0      -0.00019461      -0.00001010       0.01698297
H        9.03797467       4.58162326      26.53938244        0      -0.01312958      -0.00343277      -0.01449123
H       10.67766884       4.46878335      26.53938633        0       0.00377208       0.01317588      -0.01458183
H        9.76010166       3.10518567      26.53938206        0       0.00955212      -0.00973225      -0.01452562
