31
Lattice="8.421641763931781 0.0 0.0 4.2108208819658905 7.293355709136913 0.0 0.0 0.0 44.584161137365626" Properties=species:S:1:pos:R:3:tags:I:1:forces:R:3 energy=-173.71566772460938 free_energy=-173.71566772460938 stress="0.01073121652007103 3.6855682949976654e-09 -1.9352890401336253e-09 3.6855682949976654e-09 0.010731220245361328 -8.478473922934882e-09 -1.9352890401336253e-09 -8.478473922934882e-09 2.1072426534374245e-05" pbc="T T T"
Pt       1.40360696       0.81037286      20.00000000        3      -0.00180138      -0.00169887      -0.00491858
Pt       4.21082088       0.81037286      20.00000000        3       0.00013000       0.00453501       0.01195171
Pt       7.01803480       0.81037286      20.00000000        3       0.00236773      -0.00071572      -0.00491944
Pt       2.80721392       3.24149143      20.00000000        3       0.00386614      -0.00238002       0.01195097
Pt       5.61442784       3.24149143      20.00000000        3      -0.00399543      -0.00215719       0.01195124
Pt       8.42164176       3.24149143      20.00000000        3      -0.00072484      -0.00597949      -0.00801867
Pt       4.21082088       5.67261000      20.00000000        3      -0.00056515       0.00241071      -0.00491843
Pt       7.01803480       5.67261000      20.00000000        3      -0.00481796       0.00362196      -0.00801748
Pt       9.82524872       5.67261000      20.00000000        3       0.00554109       0.00236340      -0.00801790
Pt      -0.00000000       1.62074571      22.29208057        2      -0.00999653       0.00663556       0.01780247
Pt       2.80721392       1.62074571      22.29208057        2       0.05763533       0.03345720      -0.03198212
Pt       5.61442784       1.62074571      22.29208057        2      -0.05779564       0.03318417      -0.03198497
Pt       1.40360696       4.05186428      22.29208057        2       0.05195026      -0.02600421       0.04053051
Pt       4.21082088       4.05186428      22.29208057        2       0.00015983      -0.06664278      -0.03198338
Pt       7.01803480       4.05186428      22.29208057        2      -0.04849803      -0.03198705       0.04053048
Pt       2.80721392       6.48298285      22.29208057        2      -0.00074653      -0.01197813       0.01779974
Pt       5.61442784       6.48298285      22.29208057        2       0.01074540       0.00534106       0.01780084
Pt       8.42164176       6.48298285      22.29208057        2      -0.00345529       0.05799345       0.04052745
Pt       0.00000010      -0.00000050      24.59176525        1       0.00000049       0.00000086      -0.01549402
Pt       2.80876670       0.00498532      24.60838797        1      -0.02504843      -0.03913891      -0.01028453
Pt       5.62249436      -0.01412849      24.60009274        1       0.01576995      -0.01933281      -0.01380526
Pt       1.38733853       2.43119652      24.60009323        1      -0.02462921      -0.00399103      -0.01381323
Pt       4.21082045       2.43111786      24.65832760        1      -0.00000229      -0.00000097      -0.02947605
Pt       7.01294000       2.42997024      24.60838840        1       0.04642205      -0.00212316      -0.01028286
Pt       2.81075552       4.85839890      24.60838803        1      -0.02137217       0.04126208      -0.01028395
Pt       5.62262929       4.87628661      24.60009297        1       0.00885837       0.02332433      -0.01381449
Pt       8.42164165       4.86223687      24.59135682        1      -0.00000013      -0.00000098      -0.01072967
N        4.21082127       2.43111887      26.72026383        0       0.00000498      -0.00004004       0.04309732
H        3.72531677       1.58986639      27.04136563        0      -0.00768615      -0.01570835       0.00292295
H        3.72502750       3.27220464      27.04136347        0      -0.00977995       0.01454935       0.00294387
H        5.18212040       2.43128609      27.04136327        0       0.01746342       0.00120078       0.00293577
