31
Lattice="8.421641763931781 0.0 0.0 4.2108208819658905 7.293355709136913 0.0 0.0 0.0 44.584161137365626" Properties=species:S:1:pos:R:3:tags:I:1:forces:R:3 energy=-172.5789794921875 free_energy=-172.5789794921875 stress="0.010473083704710007 8.526086503479746e-10 -4.200806369425436e-09 8.526086503479746e-10 0.010473093949258327 2.0296642144757016e-09 -4.200806369425436e-09 2.0296642144757016e-09 -0.0002002438995987177" pbc="T T T"
Pt       1.40360696       0.81037286      20.00000000        3       0.00079662       0.00067869      -0.00219953
Pt       4.21082088       0.81037286      20.00000000        3       0.00000178      -0.00000157      -0.00540102
Pt       7.01803480       0.81037286      20.00000000        3      -0.00074894       0.00084606      -0.00204438
Pt       2.80721392       3.24149143      20.00000000        3      -0.00035969      -0.00107105      -0.00204590
Pt       5.61442784       3.24149143      20.00000000        3       0.00018972      -0.00103041      -0.00220051
Pt       8.42164176       3.24149143      20.00000000        3       0.00000102       0.00000025       0.00783655
Pt       4.21082088       5.67261000      20.00000000        3       0.00000242       0.00000147      -0.00681722
Pt       7.01803480       5.67261000      20.00000000        3       0.00110592       0.00022507      -0.00204614
Pt       9.82524872       5.67261000      20.00000000        3      -0.00098880       0.00035197      -0.00220057
Pt      -0.00000000       1.62074571      22.29208057        2      -0.00152501       0.04198137       0.02925926
Pt       2.80721392       1.62074571      22.29208057        2      -0.03240228       0.01846233      -0.02422201
Pt       5.61442784       1.62074571      22.29208057        2       0.03218938       0.01882819      -0.02422252
Pt       1.40360696       4.05186428      22.29208057        2      -0.03559476      -0.02231465       0.02925920
Pt       4.21082088       4.05186428      22.29208057        2      -0.00078271      -0.01329335      -0.03098020
Pt       7.01803480       4.05186428      22.29208057        2       0.03711968      -0.01966952       0.02925894
Pt       2.80721392       6.48298285      22.29208057        2      -0.01111894       0.00732786      -0.03097944
Pt       5.61442784       6.48298285      22.29208057        2       0.01190153       0.00596901      -0.03098063
Pt       8.42164176       6.48298285      22.29208057        2       0.00021275      -0.03729007      -0.02422262
Pt      -0.00056936      -0.00636835      24.57875336        1      -0.00299031       0.01932086      -0.00732404
Pt       2.80914030       0.00033109      24.57723238        1      -0.00364781      -0.00612835      -0.00424200
Pt       5.61317773       0.00150259      24.57723229        1       0.00713116      -0.00009605      -0.00424239
Pt       1.41585042       2.42122450      24.58945415        1      -0.02483274       0.00794631       0.00628319
Pt       4.21014466       2.42928473      24.57723227        1      -0.00348280       0.00622374      -0.00424254
Pt       7.00334449       2.42546257      24.58945422        1       0.01929922       0.01753097       0.00628398
Pt       2.81301389       4.86492804      24.57875333        1      -0.01523745      -0.01225086      -0.00732183
Pt       5.60919758       4.86591452      24.57875345        1       0.01822693      -0.00706978      -0.00732240
Pt       8.42408819       4.87778729      24.58945432        1       0.00553409      -0.02547875       0.00628443
N        8.42164179       3.24149165      27.59559754        0       0.00002797      -0.00000185       0.00371888
H        8.88961602       4.06216580      27.19906554        0      -0.03362140      -0.00873145       0.03569429
H        8.89837928       2.42587691      27.19906533        0       0.00924705       0.03347941       0.03569551
H        7.47693001       3.23643156      27.19906537        0       0.02434643      -0.02474587       0.03568355
