31
Lattice="8.421641763931781 0.0 0.0 4.2108208819658905 7.293355709136913 0.0 0.0 0.0 44.584161137365626" Properties=species:S:1:pos:R:3:tags:I:1:forces:R:3 energy=-172.5946807861328 free_energy=-172.5946807861328 stress="0.010531820356845856 1.2606125032732507e-09 -3.998516184822165e-09 1.2606125032732507e-09 0.010531816631555557 5.908064260040646e-09 -3.998516184822165e-09 5.908064260040646e-09 -0.00010164894047193229" pbc="T T T"
Pt       1.40360696       0.81037286      20.00000000        3       0.00000104       0.00081057      -0.00487405
Pt       4.21082088       0.81037286      20.00000000        3       0.00046637       0.00026661      -0.00698933
Pt       7.01803480       0.81037286      20.00000000        3      -0.00046739       0.00026565      -0.00699124
Pt       2.80721392       3.24149143      20.00000000        3      -0.00043390       0.00025052      -0.00006604
Pt       5.61442784       3.24149143      20.00000000        3      -0.00000219      -0.00053682      -0.00699091
Pt       8.42164176       3.24149143      20.00000000        3       0.00043667       0.00025145      -0.00006726
Pt       4.21082088       5.67261000      20.00000000        3      -0.00070249      -0.00040500      -0.00487506
Pt       7.01803480       5.67261000      20.00000000        3       0.00070260      -0.00040400      -0.00487620
Pt       9.82524872       5.67261000      20.00000000        3      -0.00000113      -0.00049959      -0.00006583
Pt      -0.00000000       1.62074571      22.29208057        2       0.02140900       0.02138674      -0.00027579
Pt       2.80721392       1.62074571      22.29208057        2      -0.02140711       0.02138713      -0.00027985
Pt       5.61442784       1.62074571      22.29208057        2       0.00000062      -0.00000011      -0.05402588
Pt       1.40360696       4.05186428      22.29208057        2       0.00000062      -0.00000042       0.04413290
Pt       4.21082088       4.05186428      22.29208057        2      -0.02922273       0.00784546      -0.00028034
Pt       7.01803480       4.05186428      22.29208057        2       0.02922222       0.00784441      -0.00027296
Pt       2.80721392       6.48298285      22.29208057        2      -0.00781782      -0.02923216      -0.00028096
Pt       5.61442784       6.48298285      22.29208057        2      -0.00000063      -0.00000040      -0.03138120
Pt       8.42164176       6.48298285      22.29208057        2       0.00781979      -0.02923168      -0.00028181
Pt       0.00240002      -0.00138657      24.57829461        1      -0.01535859       0.00887549       0.00745273
Pt       2.80481596      -0.00138553      24.57829542        1       0.01535208       0.00886906       0.00745204
Pt       5.61442790       0.00768690      24.57860534        1       0.00000197      -0.03944716       0.01256427
Pt       1.40360754       2.42801351      24.59073863        1      -0.00000041      -0.02196801       0.00539373
Pt       4.21747910       2.42727466      24.57860580        1      -0.03416712       0.01972220       0.01256594
Pt       7.01137721       2.42727419      24.57860661        1       0.03416695       0.01972662       0.01255485
Pt       2.80990383       4.86378976      24.59073843        1       0.01901670       0.01098103       0.00539516
Pt       5.61442696       4.86500705      24.57829590        1       0.00000899      -0.01773437       0.00744259
Pt       8.41895295       4.86379026      24.59073905        1      -0.01902484       0.01097633       0.00539513
N        9.82524778       4.05186437      27.96139584        0       0.00004780      -0.00006026       0.02141643
H       10.63908104       3.58199813      27.56270498        0       0.02235208      -0.01290857      -0.00627707
H        9.01141655       3.58199701      27.56270463        0      -0.02238522      -0.01291123      -0.00629982
H        9.82524937       4.99159641      27.56270533        0      -0.00001416       0.02588056      -0.00631400
