31
Lattice="8.421641763931781 0.0 0.0 4.2108208819658905 7.293355709136913 0.0 0.0 0.0 44.584161137365626" Properties=species:S:1:pos:R:3:tags:I:1:forces:R:3 energy=-173.7049102783203 free_energy=-173.7049102783203 stress="0.010700319893658161 3.9542246668133885e-05 5.548634362639859e-05 3.9542246668133885e-05 0.010719949379563332 -0.0001632624480407685 5.548634362639859e-05 -0.0001632624480407685 5.960003181826323e-05" pbc="T T T"
Pt       1.40360696       0.81037286      20.00000000        3       0.00489483       0.00418516      -0.01386142
Pt       4.21082088       0.81037286      20.00000000        3      -0.00020714       0.00486669      -0.00927117
Pt       7.01803480       0.81037286      20.00000000        3      -0.00609933       0.00584671      -0.00714409
Pt       2.80721392       3.24149143      20.00000000        3       0.00342347      -0.00022939      -0.00709760
Pt       5.61442784       3.24149143      20.00000000        3      -0.00215015      -0.00159218      -0.00450248
Pt       8.42164176       3.24149143      20.00000000        3      -0.00160614       0.00688321       0.01799434
Pt       4.21082088       5.67261000      20.00000000        3      -0.00150596      -0.00457406      -0.00809404
Pt       7.01803480       5.67261000      20.00000000        3       0.00499156      -0.00111983       0.01218724
Pt       9.82524872       5.67261000      20.00000000        3      -0.00548367      -0.00028492       0.01737905
Pt      -0.00000000       1.62074571      22.29208057        2      -0.01636425       0.05286336       0.02535821
Pt       2.80721392       1.62074571      22.29208057        2       0.00980891      -0.02044360      -0.02269121
Pt       5.61442784       1.62074571      22.29208057        2       0.03501159      -0.01360741       0.00798029
Pt       1.40360696       4.05186428      22.29208057        2      -0.05475134       0.02969632      -0.03483952
Pt       4.21082088       4.05186428      22.29208057        2      -0.00448973      -0.00475819       0.01368073
Pt       7.01803480       4.05186428      22.29208057        2       0.08166733       0.01833334      -0.01140394
Pt       2.80721392       6.48298285      22.29208057        2      -0.05499495      -0.06023216       0.03568764
Pt       5.61442784       6.48298285      22.29208057        2       0.05436548      -0.06170823       0.02389692
Pt       8.42164176       6.48298285      22.29208057        2       0.01621694      -0.13570927       0.00287406
Pt       0.00898840      -0.03784637      24.58677239        1      -0.01182184       0.02987861       0.00818905
Pt       2.81765929      -0.02945524      24.59703101        1      -0.01780503       0.02171261       0.01113091
Pt       5.62824147      -0.02014691      24.60040445        1       0.00182875       0.01043609      -0.01104340
Pt       1.42694483       2.37910328      24.58951914        1      -0.02014762       0.01996377       0.01406743
Pt       4.22269691       2.39839156      24.58712128        1       0.00627610       0.02692211       0.00632879
Pt       7.02744006       2.39472325      24.61141038        1       0.00218867       0.02314388      -0.00271852
Pt       2.81648672       4.82628385      24.61227787        1      -0.01003710       0.01197435      -0.00558944
Pt       5.61154111       4.83014603      24.60039841        1      -0.00314222       0.00585683      -0.00908090
Pt       8.42670920       4.83463625      24.67709676        1      -0.00316168       0.00362899      -0.02301848
N        8.58185134       4.54366719      26.72386805        0       0.00285751       0.00882460       0.01637715
H        8.14946432       3.64244392      26.94744551        0      -0.03808071       0.00530059      -0.00280592
H        8.11401103       5.30861458      27.21712867        0       0.00338568      -0.01390756      -0.04783683
H        9.57885343       4.51566836      26.95490068        0       0.02493197       0.02784945       0.00786704
