31
Lattice="8.421641763931781 0.0 0.0 4.2108208819658905 7.293355709136913 0.0 0.0 0.0 44.584161137365626" Properties=species:S:1:pos:R:3:tags:I:1:forces:R:3 energy=-172.6457061767578 free_energy=-172.6457061767578 stress="0.010564273223280907 4.2241206088533545e-09 7.21499215927679e-09 4.2241206088533545e-09 0.010564303025603294 -5.306783013026006e-09 7.21499215927679e-09 -5.306783013026006e-09 0.00012948330549988896" pbc="T T T"
Pt       1.40360696       0.81037286      20.00000000        3       0.00000095       0.00392914       0.00387108
Pt       4.21082088       0.81037286      20.00000000        3       0.00160891       0.00092646       0.00035828
Pt       7.01803480       0.81037286      20.00000000        3      -0.00160933       0.00092531       0.00035685
Pt       2.80721392       3.24149143      20.00000000        3      -0.00078703       0.00045441       0.03163329
Pt       5.61442784       3.24149143      20.00000000        3      -0.00000213      -0.00185590       0.00035635
Pt       8.42164176       3.24149143      20.00000000        3       0.00078943       0.00045526       0.03163180
Pt       4.21082088       5.67261000      20.00000000        3      -0.00340276      -0.00196465       0.00387105
Pt       7.01803480       5.67261000      20.00000000        3       0.00340294      -0.00196339       0.00386989
Pt       9.82524872       5.67261000      20.00000000        3      -0.00000098      -0.00090708       0.03163251
Pt      -0.00000000       1.62074571      22.29208057        2       0.08638813       0.08268631       0.00364078
Pt       2.80721392       1.62074571      22.29208057        2      -0.08638533       0.08268750       0.00364059
Pt       5.61442784       1.62074571      22.29208057        2      -0.00000295       0.00000125      -0.05205792
Pt       1.40360696       4.05186428      22.29208057        2       0.00000135      -0.00000045       0.03506765
Pt       4.21082088       4.05186428      22.29208057        2      -0.11480124       0.03346786       0.00364071
Pt       7.01803480       4.05186428      22.29208057        2       0.11479947       0.03346818       0.00364169
Pt       2.80721392       6.48298285      22.29208057        2      -0.02841422      -0.11615725       0.00363855
Pt       5.61442784       6.48298285      22.29208057        2      -0.00000171       0.00000174      -0.05438035
Pt       8.42164176       6.48298285      22.29208057        2       0.02841686      -0.11615503       0.00363762
Pt       0.00256114      -0.00147888      24.56614519        1      -0.00538181       0.00310657      -0.00713816
Pt       2.80465298      -0.00147897      24.56614508        1       0.00538428       0.00310902      -0.00713703
Pt       5.61442802       0.00400352      24.58141939        1      -0.00000239       0.01597885      -0.00493757
Pt       1.40360699       2.40793802      24.63180005        1      -0.00000057       0.01428795      -0.00863159
Pt       4.21428843       2.42911654      24.58142009        1       0.01383938      -0.00799016      -0.00494802
Pt       7.01456723       2.42911605      24.58142034        1      -0.01384006      -0.00798779      -0.00494738
Pt       2.82728898       4.87382721      24.63179983        1      -0.01237555      -0.00714245      -0.00863110
Pt       5.61442753       4.86519426      24.56614487        1       0.00000001      -0.00621798      -0.00713709
Pt       8.40156686       4.87382714      24.63180055        1       0.01237545      -0.00714315      -0.00863002
N        9.82524969       4.05186422      26.88131757        0      -0.00003558       0.00002563       0.03624050
H       10.62076262       3.59257323      26.36859348        0       0.00276063      -0.00158594      -0.01073214
H        9.02973450       3.59257366      26.36859331        0      -0.00272955      -0.00157348      -0.01071125
H        9.82524839       4.97044631      26.36859354        0       0.00000534       0.00313331      -0.01071000
