31
Lattice="8.421641763931781 0.0 0.0 4.2108208819658905 7.293355709136913 0.0 0.0 0.0 44.584161137365626" Properties=species:S:1:pos:R:3:tags:I:1:forces:R:3 energy=-173.70558166503906 free_energy=-173.70558166503906 stress="0.010634851641952991 4.387957596918568e-05 5.297855750541203e-05 4.387957596918568e-05 0.010644277557730675 -0.0001519930810900405 5.297855750541203e-05 -0.0001519930810900405 3.072422032346367e-06" pbc="T T T"
Pt       1.40360696       0.81037286      20.00000000        3       0.00461154       0.00450633      -0.01462090
Pt       4.21082088       0.81037286      20.00000000        3       0.00014646       0.00462797      -0.01003546
Pt       7.01803480       0.81037286      20.00000000        3      -0.00606114       0.00585897      -0.00735947
Pt       2.80721392       3.24149143      20.00000000        3       0.00308612      -0.00035708      -0.00639418
Pt       5.61442784       3.24149143      20.00000000        3      -0.00171128      -0.00160329      -0.00499797
Pt       8.42164176       3.24149143      20.00000000        3      -0.00120021       0.00608409       0.01735309
Pt       4.21082088       5.67261000      20.00000000        3      -0.00145813      -0.00505711      -0.00841153
Pt       7.01803480       5.67261000      20.00000000        3       0.00477683      -0.00165742       0.01103517
Pt       9.82524872       5.67261000      20.00000000        3      -0.00499056      -0.00058995       0.01672319
Pt      -0.00000000       1.62074571      22.29208057        2      -0.01640772       0.05689237       0.01101360
Pt       2.80721392       1.62074571      22.29208057        2       0.00570313      -0.01164457      -0.02974251
Pt       5.61442784       1.62074571      22.29208057        2       0.03561685      -0.01295603       0.00012765
Pt       1.40360696       4.05186428      22.29208057        2      -0.04938743       0.02877392      -0.04407678
Pt       4.21082088       4.05186428      22.29208057        2      -0.00886620      -0.00026916       0.00699663
Pt       7.01803480       4.05186428      22.29208057        2       0.07720098       0.02233127      -0.02222982
Pt       2.80721392       6.48298285      22.29208057        2      -0.05856741      -0.05951232       0.02938548
Pt       5.61442784       6.48298285      22.29208057        2       0.05147936      -0.06222405       0.02042497
Pt       8.42164176       6.48298285      22.29208057        2       0.01575861      -0.13302724       0.00208578
Pt       0.00453465      -0.02987893      24.58376710        1      -0.00221997       0.00069443       0.02139738
Pt       2.81349673      -0.02029797      24.59283076        1      -0.00591078      -0.01130672       0.02519554
Pt       5.62605785      -0.01547271      24.59967608        1      -0.00562019       0.00560511      -0.01157552
Pt       1.42332463       2.38211722      24.59099622        1       0.00315329       0.02944508       0.00449112
Pt       4.22293849       2.40312340      24.58400276        1      -0.00253515       0.02739811       0.02065057
Pt       7.02803218       2.40136501      24.60998775        1      -0.01894248       0.00914782       0.00427282
Pt       2.81336941       4.83135997      24.61089819        1      -0.00306083       0.00656582      -0.00075631
Pt       5.60853550       4.83360621      24.59871331        1      -0.00276337       0.02546505      -0.00508139
Pt       8.42393681       4.83571241      24.67111596        1       0.00360203       0.03360740       0.01124066
N        8.58620491       4.53849730      26.71861742        0      -0.00447933       0.02533019       0.00559312
H        9.58267833       4.51077070      26.95191687        0       0.03144144       0.01756812      -0.00305857
H        8.15122896       3.63834791      26.94027525        0      -0.03471228      -0.01067930       0.00109263
H        8.11894885       5.30227354      27.21346508        0      -0.00768210       0.00098208      -0.04073900
