31
Lattice="8.421641763931781 0.0 0.0 4.2108208819658905 7.293355709136913 0.0 0.0 0.0 44.584161137365626" Properties=species:S:1:pos:R:3:tags:I:1:forces:R:3 energy=-172.5792236328125 free_energy=-172.5792236328125 stress="0.010523728094995022 4.321076994528994e-05 -5.426236384664662e-05 4.321076994528994e-05 0.01047380268573761 -3.135010410915129e-05 -5.426236384664662e-05 -3.135010410915129e-05 -0.00013971897715236992" pbc="T T T"
Pt       1.40360696       0.81037286      20.00000000        3      -0.00004045       0.00199878      -0.00325865
Pt       4.21082088       0.81037286      20.00000000        3       0.00088149       0.00050630      -0.00977623
Pt       7.01803480       0.81037286      20.00000000        3      -0.00029815       0.00084178      -0.00785044
Pt       2.80721392       3.24149143      20.00000000        3      -0.00144613      -0.00047982       0.00436288
Pt       5.61442784       3.24149143      20.00000000        3       0.00058188      -0.00067791      -0.00784922
Pt       8.42164176       3.24149143      20.00000000        3       0.00241865       0.00139661       0.01129648
Pt       4.21082088       5.67261000      20.00000000        3      -0.00098182      -0.00056692      -0.00677073
Pt       7.01803480       5.67261000      20.00000000        3       0.00171012      -0.00103445      -0.00325856
Pt       9.82524872       5.67261000      20.00000000        3      -0.00113986      -0.00101131       0.00436419
Pt      -0.00000000       1.62074571      22.29208057        2       0.04503891       0.05127331       0.01217747
Pt       2.80721392       1.62074571      22.29208057        2      -0.05827958       0.04750855      -0.00507133
Pt       5.61442784       1.62074571      22.29208057        2       0.01190844       0.00687550      -0.04703847
Pt       1.40360696       4.05186428      22.29208057        2      -0.03911927      -0.02258583       0.05191262
Pt       4.21082088       4.05186428      22.29208057        2      -0.04462798      -0.00174958      -0.02778610
Pt       7.01803480       4.05186428      22.29208057        2       0.06691894       0.01336720       0.01218025
Pt       2.80721392       6.48298285      22.29208057        2      -0.02383103      -0.03777653      -0.02778785
Pt       5.61442784       6.48298285      22.29208057        2       0.00456667       0.00263622      -0.04579048
Pt       8.42164176       6.48298285      22.29208057        2       0.01200622      -0.07422514      -0.00507234
Pt      -0.00605018      -0.00963621      24.57148236        1       0.00189476      -0.01141391       0.02710721
Pt       2.80766188       0.00025810      24.56720362        1      -0.00665010      -0.00383790       0.03755173
Pt       5.61609618       0.00293609      24.57342347        1      -0.00923183       0.01790738       0.01954821
Pt       1.40518908       2.41301610      24.60530499        1       0.00087602      -0.00115002      -0.03416461
Pt       4.21419786       2.43109496      24.57342346        1       0.01089321      -0.01694890       0.01955020
Pt       7.01742269       2.43076489      24.57805216        1      -0.03718245      -0.02146504       0.01028974
Pt       2.79513690       4.85526437      24.58929127        1       0.03500105       0.02020938      -0.01082519
Pt       5.60305712       4.86181564      24.57148302        1      -0.00893396       0.00734733       0.02709728
Pt       8.40675561       4.87265839      24.60530533        1      -0.00055861       0.00133206      -0.03416198
N        9.12334310       3.64661786      27.60063844        0      -0.00162990      -0.00080484       0.01743710
H        9.95759025       4.12827147      27.25580824        0       0.00049362       0.00028433       0.03947799
H        9.13873340       2.70813120      27.19143447        0       0.01604328       0.01683719      -0.00897397
H        8.31828247       4.12919165      27.19143417        0       0.02271786       0.00540620      -0.00891704
