31
Lattice="8.421641763931781 0.0 0.0 4.2108208819658905 7.293355709136913 0.0 0.0 0.0 44.584161137365626" Properties=species:S:1:pos:R:3:tags:I:1:forces:R:3 energy=-172.80471801757812 free_energy=-172.80471801757812 stress="0.01028058584779501 2.0987707571862302e-08 -2.383359110069705e-08 2.0987707571862302e-08 0.010280600748956203 8.27101831468724e-10 -2.383359110069705e-08 8.27101831468724e-10 -4.893330333288759e-05" pbc="T T T"
Pt       1.40360696       0.81037286      20.00000000        3      -0.00020527       0.00324618      -0.00452778
Pt       4.21082088       0.81037286      20.00000000        3       0.00149968       0.00067098      -0.01032925
Pt       7.01803480       0.81037286      20.00000000        3      -0.00133429       0.00095803      -0.01033074
Pt       2.80721392       3.24149143      20.00000000        3      -0.00074863       0.00003608       0.01849753
Pt       5.61442784       3.24149143      20.00000000        3      -0.00016825      -0.00163371      -0.01033020
Pt       8.42164176       3.24149143      20.00000000        3       0.00040778       0.00063243       0.01849574
Pt       4.21082088       5.67261000      20.00000000        3      -0.00270822      -0.00180196      -0.00452766
Pt       7.01803480       5.67261000      20.00000000        3       0.00291503      -0.00144264      -0.00452924
Pt       9.82524872       5.67261000      20.00000000        3       0.00034237      -0.00066484       0.01849815
Pt      -0.00000000       1.62074571      22.29208057        2       0.11679949       0.09314223       0.00264521
Pt       2.80721392       1.62074571      22.29208057        2      -0.12142518       0.09946052      -0.00069776
Pt       5.61442784       1.62074571      22.29208057        2      -0.00000464      -0.00000071      -0.11653644
Pt       1.40360696       4.05186428      22.29208057        2       0.00000159      -0.00000101       0.08542503
Pt       4.21082088       4.05186428      22.29208057        2      -0.13906358       0.05457374       0.00264685
Pt       7.01803480       4.05186428      22.29208057        2       0.14684458       0.05542935      -0.00069932
Pt       2.80721392       6.48298285      22.29208057        2      -0.02542065      -0.15488896      -0.00070115
Pt       5.61442784       6.48298285      22.29208057        2      -0.00000184       0.00000105      -0.07504052
Pt       8.42164176       6.48298285      22.29208057        2       0.02226828      -0.14771843       0.00264324
Pt      -0.00337603      -0.00540680      24.55888452        1       0.02363632       0.01248077       0.02343497
Pt       2.80422005       0.00562665      24.55888426        1      -0.00100897      -0.02670866       0.02343543
Pt       5.61450683       0.00955176      24.56697916        1      -0.00304533       0.00660473       0.01111214
Pt       1.39679639       2.41008162      24.61570114        1       0.02008404       0.00547693       0.00405602
Pt       4.21905423       2.42627351      24.56697970        1       0.00723881      -0.00066605       0.01110250
Pt       7.00972281       2.42641028      24.56697915        1      -0.00419791      -0.00593724       0.01111355
Pt       2.82883667       4.86685689      24.61570229        1      -0.01478519       0.01465069       0.00406795
Pt       5.62079767       4.86201583      24.55888389        1      -0.02262773       0.01423032       0.02343538
Pt       8.40682833       4.87865335      24.61570112        1      -0.00529631      -0.02013040       0.00405268
N        9.82524727       4.05186373      26.95923604        0       0.00012628      -0.00002293       0.01837987
H       10.61242576       4.58174065      26.53935520        0       0.01394020      -0.00291810      -0.01491309
H        9.89054788       3.10521211      26.53934820        0      -0.00949956      -0.01066254      -0.01491893
H        8.97277604       4.46863850      26.53934916        0      -0.00456288       0.01360435      -0.01496001
