31
Lattice="8.421641763931781 0.0 0.0 4.2108208819658905 7.293355709136913 0.0 0.0 0.0 44.584161137365626" Properties=species:S:1:pos:R:3:tags:I:1:forces:R:3 energy=-172.80471801757812 free_energy=-172.80471801757812 stress="0.010280556045472622 2.6537996689057763e-08 -2.957433054007197e-08 2.6537996689057763e-08 0.010280586779117584 -1.5317708212947423e-09 -2.957433054007197e-08 -1.5317708212947423e-09 -4.894000448985025e-05" pbc="T T T"
Pt       1.40360696       0.81037286      20.00000000        3      -0.00020585       0.00324594      -0.00452644
Pt       4.21082088       0.81037286      20.00000000        3       0.00149935       0.00067164      -0.01032931
Pt       7.01803480       0.81037286      20.00000000        3      -0.00133348       0.00095825      -0.01032981
Pt       2.80721392       3.24149143      20.00000000        3      -0.00074826       0.00003560       0.01849723
Pt       5.61442784       3.24149143      20.00000000        3      -0.00016793      -0.00163295      -0.01032993
Pt       8.42164176       3.24149143      20.00000000        3       0.00040730       0.00063192       0.01849511
Pt       4.21082088       5.67261000      20.00000000        3      -0.00270761      -0.00180163      -0.00452635
Pt       7.01803480       5.67261000      20.00000000        3       0.00291461      -0.00144308      -0.00452828
Pt       9.82524872       5.67261000      20.00000000        3       0.00034260      -0.00066438       0.01849669
Pt      -0.00000000       1.62074571      22.29208057        2       0.11680155       0.09313584       0.00264665
Pt       2.80721392       1.62074571      22.29208057        2      -0.12142764       0.09945677      -0.00069781
Pt       5.61442784       1.62074571      22.29208057        2      -0.00000354      -0.00000093      -0.11655331
Pt       1.40360696       4.05186428      22.29208057        2       0.00000335      -0.00000201       0.08542445
Pt       4.21082088       4.05186428      22.29208057        2      -0.13906242       0.05457797       0.00264580
Pt       7.01803480       4.05186428      22.29208057        2       0.14684187       0.05543141      -0.00070367
Pt       2.80721392       6.48298285      22.29208057        2      -0.02541348      -0.15488654      -0.00069986
Pt       5.61442784       6.48298285      22.29208057        2      -0.00000491       0.00000253      -0.07501704
Pt       8.42164176       6.48298285      22.29208057        2       0.02226462      -0.14771602       0.00264329
Pt      -0.00337892      -0.00540481      24.55888712        1       0.02366788       0.01246310       0.02341065
Pt       2.80422316       0.00562836      24.55888607        1      -0.00103785      -0.02672800       0.02342127
Pt       5.61450669       0.00955527      24.56697878        1      -0.00304680       0.00657134       0.01111592
Pt       1.39679795       2.41007990      24.61569940        1       0.02007836       0.00548701       0.00405915
Pt       4.21905743       2.42627240      24.56697963        1       0.00721006      -0.00064982       0.01110590
Pt       7.00972041       2.42640866      24.56697935        1      -0.00416825      -0.00592441       0.01111761
Pt       2.82883740       4.86685898      24.61570051        1      -0.01478957       0.01464218       0.00406970
Pt       5.62079749       4.86201210      24.55888618        1      -0.02263193       0.01426794       0.02342284
Pt       8.40682608       4.87865345      24.61569849        1      -0.00528634      -0.02013014       0.00406281
N        9.82524612       4.05186272      26.95922898        0       0.00017148       0.00001351       0.01839960
H        8.97277595       4.46863304      26.53933757        0      -0.00461751       0.01360982      -0.01496725
H       10.61242013       4.58174452      26.53934344        0       0.01395500      -0.00292253      -0.01489645
H        9.89055359       3.10521334      26.53933925        0      -0.00950451      -0.01070024      -0.01492940
