31
Lattice="8.421641763931781 0.0 0.0 4.2108208819658905 7.293355709136913 0.0 0.0 0.0 44.584161137365626" Properties=species:S:1:pos:R:3:tags:I:1:forces:R:3 energy=-172.8055419921875 free_energy=-172.8055419921875 stress="0.010231138207018375 -2.0788937035831623e-05 9.824262815527618e-05 -2.0788937035831623e-05 0.01025511883199215 5.671936014550738e-05 9.824262815527618e-05 5.671936014550738e-05 -5.919385512243025e-05" pbc="T T T"
Pt       1.40360696       0.81037286      20.00000000        3       0.00072952       0.00307013       0.00427145
Pt       4.21082088       0.81037286      20.00000000        3      -0.00051477      -0.00029983      -0.00791076
Pt       7.01803480       0.81037286      20.00000000        3      -0.00367321       0.00022196      -0.00474936
Pt       2.80721392       3.24149143      20.00000000        3      -0.00297209      -0.00394586       0.00620326
Pt       5.61442784       3.24149143      20.00000000        3      -0.00164331      -0.00329130      -0.00474876
Pt       8.42164176       3.24149143      20.00000000        3       0.00016126       0.00009250       0.03383014
Pt       4.21082088       5.67261000      20.00000000        3      -0.00142943      -0.00082532      -0.01465926
Pt       7.01803480       5.67261000      20.00000000        3       0.00302258      -0.00090271       0.00427103
Pt       9.82524872       5.67261000      20.00000000        3      -0.00490456      -0.00059947       0.00620461
Pt      -0.00000000       1.62074571      22.29208057        2       0.06775004       0.13291076       0.02002383
Pt       2.80721392       1.62074571      22.29208057        2      -0.14976272       0.10424156       0.05780496
Pt       5.61442784       1.62074571      22.29208057        2       0.10110319       0.05837020      -0.04284262
Pt       1.40360696       4.05186428      22.29208057        2      -0.08819599      -0.05091937       0.06141495
Pt       4.21082088       4.05186428      22.29208057        2       0.00215983      -0.01868648      -0.08239794
Pt       7.01803480       4.05186428      22.29208057        2       0.14897591      -0.00778248       0.02002928
Pt       2.80721392       6.48298285      22.29208057        2      -0.01510763       0.01121317      -0.08239794
Pt       5.61442784       6.48298285      22.29208057        2       0.05875535       0.03392147      -0.07098345
Pt       8.42164176       6.48298285      22.29208057        2       0.01539801      -0.18181904       0.05781475
Pt       0.02783410       0.01203014      24.56748952        1      -0.00525532      -0.01786089       0.00481524
Pt       2.83632326       0.01680772      24.56492378        1      -0.01650057      -0.00954573      -0.01171394
Pt       5.64060937       0.01409799      24.56335035        1      -0.03699380       0.00792467       0.01108152
Pt       1.45097487       2.43371958      24.62335799        1       0.00758930      -0.01096615      -0.02258993
Pt       4.23611916       2.44674218      24.56334925        1      -0.01161405      -0.03599261       0.01109341
Pt       7.01179491       2.42751474      24.59225235        1      -0.00992710      -0.00572197       0.01751417
Pt       2.85409358       4.88930312      24.57053638        1      -0.03598898      -0.02077720      -0.01219797
Pt       5.63876296       4.88032685      24.56749172        1      -0.01809153       0.00437493       0.00480603
Pt       8.44757808       4.90195619      24.62335735        1      -0.00570521       0.01207470      -0.02259721
N        8.65416179       3.37573583      26.90603337        0      -0.01212204      -0.00699579       0.04635039
H        7.87705975       2.92707967      26.37849171        0       0.00045913       0.00023459       0.02804591
H        8.69247073       4.34700952      26.54188224        0      -0.00033320       0.01714298      -0.00788806
H        9.51446617       2.92327802      26.54188219        0       0.01463145      -0.00886154      -0.00789786
