31
Lattice="8.421641763931781 0.0 0.0 4.2108208819658905 7.293355709136913 0.0 0.0 0.0 44.584161137365626" Properties=species:S:1:pos:R:3:tags:I:1:forces:R:3 energy=-172.80076599121094 free_energy=-172.80076599121094 stress="0.010380464605987072 2.5899986155764054e-08 1.9971515996530798e-08 2.5899986155764054e-08 0.010380483232438564 2.432332335544629e-09 1.9971515996530798e-08 2.432332335544629e-09 0.00013817324361298233" pbc="T T T"
Pt       1.40360696       0.81037286      20.00000000        3       0.00208810       0.00282726       0.00179362
Pt       4.21082088       0.81037286      20.00000000        3       0.00000145      -0.00000156      -0.00917149
Pt       7.01803480       0.81037286      20.00000000        3      -0.00175998       0.00301121       0.00177842
Pt       2.80721392       3.24149143      20.00000000        3      -0.00172989      -0.00302930       0.00177765
Pt       5.61442784       3.24149143      20.00000000        3       0.00140529      -0.00322230       0.00179267
Pt       8.42164176       3.24149143      20.00000000        3       0.00000112       0.00000079       0.03522435
Pt       4.21082088       5.67261000      20.00000000        3       0.00000216       0.00000146      -0.01458380
Pt       7.01803480       5.67261000      20.00000000        3       0.00348614       0.00001768       0.00177750
Pt       9.82524872       5.67261000      20.00000000        3      -0.00349509       0.00039498       0.00179279
Pt      -0.00000000       1.62074571      22.29208057        2      -0.00084532       0.12742971       0.05054297
Pt       2.80721392       1.62074571      22.29208057        2      -0.14292230       0.07742912       0.03906196
Pt       5.61442784       1.62074571      22.29208057        2       0.13851649       0.08505850       0.03906052
Pt       1.40360696       4.05186428      22.29208057        2      -0.10993380      -0.06445023       0.05054166
Pt       4.21082088       4.05186428      22.29208057        2       0.00004675      -0.03188355      -0.06163491
Pt       7.01803480       4.05186428      22.29208057        2       0.11077909      -0.06298222       0.05054312
Pt       2.80721392       6.48298285      22.29208057        2      -0.02763294       0.01590362      -0.06163595
Pt       5.61442784       6.48298285      22.29208057        2       0.02758766       0.01598165      -0.06163736
Pt       8.42164176       6.48298285      22.29208057        2       0.00440499      -0.16248718       0.03905873
Pt       0.00145396      -0.00628291      24.56941787        1       0.00359881      -0.02451415      -0.00742857
Pt       2.81016568      -0.00332093      24.56545391        1       0.00254879       0.02801549      -0.00534031
Pt       5.61582693       0.00421543      24.56545443        1      -0.02553014      -0.01179416      -0.00534004
Pt       1.42639944       2.41475775      24.61814079        1       0.00373010       0.01514919      -0.00878166
Pt       4.20647020       2.43022257      24.56545497        1       0.02298268      -0.01621436      -0.00534105
Pt       6.99246944       2.41956004      24.61814139        1       0.01126004      -0.01080445      -0.00877427
Pt       2.81192831       4.86663672      24.56941822        1       0.01943296       0.01537705      -0.00742805
Pt       5.60826035       4.86412025      24.56941799        1      -0.02303179       0.00913486      -0.00742859
Pt       8.42441426       4.89015632      24.61814186        1      -0.01499004      -0.00434890      -0.00877658
N        8.42164273       3.24149222      26.94318111        0      -0.00012815      -0.00001588      -0.00909245
H        7.69067909       2.63569882      26.52136567        0      -0.00872038       0.02327839      -0.01075593
H        8.26249056       4.17741883      26.52136688        0       0.02450756      -0.00400147      -0.01078138
H        9.31175261       2.91135994      26.52136572        0      -0.01566038      -0.01926126      -0.01081367
