31
Lattice="8.421641763931781 0.0 0.0 4.2108208819658905 7.293355709136913 0.0 0.0 0.0 44.584161137365626" Properties=species:S:1:pos:R:3:tags:I:1:forces:R:3 energy=-172.5950164794922 free_energy=-172.5950164794922 stress="0.010540761053562164 -3.1030644720431155e-09 2.703588997121642e-08 -3.1030644720431155e-09 0.010540788993239403 4.932682706737523e-09 2.703588997121642e-08 4.932682706737523e-09 -0.00010159234807360917" pbc="T T T"
Pt       1.40360696       0.81037286      20.00000000        3       0.00033693       0.00056101      -0.00361955
Pt       4.21082088       0.81037286      20.00000000        3       0.00000170      -0.00000149      -0.00804222
Pt       7.01803480       0.81037286      20.00000000        3      -0.00033843       0.00056069      -0.00362104
Pt       2.80721392       3.24149143      20.00000000        3      -0.00031830      -0.00057266      -0.00362077
Pt       5.61442784       3.24149143      20.00000000        3       0.00031763      -0.00057247      -0.00361991
Pt       8.42164176       3.24149143      20.00000000        3       0.00000181       0.00000007       0.00279862
Pt       4.21082088       5.67261000      20.00000000        3       0.00000223       0.00000161      -0.00901881
Pt       7.01803480       5.67261000      20.00000000        3       0.00065378       0.00001138      -0.00362119
Pt       9.82524872       5.67261000      20.00000000        3      -0.00065708       0.00001194      -0.00362068
Pt      -0.00000000       1.62074571      22.29208057        2       0.00000133       0.02752639       0.02986723
Pt       2.80721392       1.62074571      22.29208057        2      -0.02764774       0.01596190      -0.01667975
Pt       5.61442784       1.62074571      22.29208057        2       0.02764731       0.01596165      -0.01667901
Pt       1.40360696       4.05186428      22.29208057        2      -0.02383933      -0.01376485       0.02986941
Pt       4.21082088       4.05186428      22.29208057        2       0.00000347      -0.01516528      -0.02844947
Pt       7.01803480       4.05186428      22.29208057        2       0.02383520      -0.01376362       0.02986851
Pt       2.80721392       6.48298285      22.29208057        2      -0.01313223       0.00758346      -0.02845252
Pt       5.61442784       6.48298285      22.29208057        2       0.01313165       0.00758114      -0.02845231
Pt       8.42164176       6.48298285      22.29208057        2       0.00000076      -0.03192348      -0.01667973
Pt       0.00000085      -0.00781518      24.57844185        1      -0.00000371       0.04039177       0.01040128
Pt       2.81157200       0.00251573      24.57790536        1      -0.02782667      -0.01606863       0.01101401
Pt       5.61006972       0.00251534      24.57790593        1       0.02782911      -0.01606520       0.01101327
Pt       1.40627427       2.42957763      24.59062830        1       0.02003444      -0.01156237       0.00457019
Pt       4.21082057       2.42608500      24.57790497        1       0.00000168       0.03213965       0.01101327
Pt       7.01536718       2.42957823      24.59062862        1      -0.02003388      -0.01157096       0.00457022
Pt       2.81398173       4.86614398      24.57844199        1      -0.03497982      -0.02019925       0.01040187
Pt       5.60766130       4.86614374      24.57844276        1       0.03497413      -0.02019664       0.01039177
Pt       8.42164095       4.86531688      24.59062765        1       0.00000392       0.02313425       0.00457110
N        8.42164527       3.24149232      27.94718823        0      -0.00018367      -0.00006206      -0.00694233
H        9.23663139       3.71202781      27.54979866        0      -0.00662638      -0.00384904       0.00353651
H        8.42163885       2.30042294      27.54979781        0       0.00005127       0.00777765       0.00360724
H        7.60665262       3.71202374      27.54979799        0       0.00675890      -0.00386631       0.00362484
