31
Lattice="8.421641763931781 0.0 0.0 4.2108208819658905 7.293355709136913 0.0 0.0 0.0 44.584161137365626" Properties=species:S:1:pos:R:3:tags:I:1:forces:R:3 energy=-172.76077270507812 free_energy=-172.76077270507812 stress="0.010433989576995373 5.5534765124320984e-05 -6.431745714507997e-05 5.5534765124320984e-05 0.010335435159504414 0.0001228934561368078 -6.431745714507997e-05 0.0001228934561368078 0.00011398283822927624" pbc="T T T"
Pt       1.40360696       0.81037286      20.00000000        3       0.00130169       0.00326474       0.00365883
Pt       4.21082088       0.81037286      20.00000000        3       0.00028255      -0.00058213      -0.00557789
Pt       7.01803480       0.81037286      20.00000000        3      -0.00184508       0.00191357       0.00243115
Pt       2.80721392       3.24149143      20.00000000        3      -0.00120330      -0.00307362       0.01904392
Pt       5.61442784       3.24149143      20.00000000        3       0.00101923      -0.00356236       0.00178814
Pt       8.42164176       3.24149143      20.00000000        3       0.00240614      -0.00058134       0.03803444
Pt       4.21082088       5.67261000      20.00000000        3      -0.00208950      -0.00238043      -0.00506452
Pt       7.01803480       5.67261000      20.00000000        3       0.00342369      -0.00187606       0.00241321
Pt       9.82524872       5.67261000      20.00000000        3      -0.00232453      -0.00032793       0.01665130
Pt      -0.00000000       1.62074571      22.29208057        2       0.08145556       0.11704601       0.03078996
Pt       2.80721392       1.62074571      22.29208057        2      -0.15735593       0.12324990       0.05175472
Pt       5.61442784       1.62074571      22.29208057        2       0.05290159       0.04726513      -0.06476802
Pt       1.40360696       4.05186428      22.29208057        2      -0.04699942      -0.05245863       0.03638098
Pt       4.21082088       4.05186428      22.29208057        2      -0.06485143      -0.00049289      -0.03371398
Pt       7.01803480       4.05186428      22.29208057        2       0.10645767       0.01139215      -0.00417287
Pt       2.80721392       6.48298285      22.29208057        2      -0.03644504      -0.02712629      -0.03811999
Pt       5.61442784       6.48298285      22.29208057        2       0.00854043       0.02035922      -0.05836790
Pt       8.42164176       6.48298285      22.29208057        2       0.01159563      -0.14118293       0.02495816
Pt      -0.00576064       0.00780901      24.56933731        1      -0.01226014       0.00011748      -0.00238413
Pt       2.80675339       0.01498212      24.55989966        1       0.01102573      -0.02585303       0.00330554
Pt       5.61602437       0.03238869      24.57077855        1       0.00283120       0.00790766      -0.00210655
Pt       1.42685789       2.41373680      24.62962562        1      -0.00356685       0.00262201       0.02443170
Pt       4.22009768       2.44510291      24.57114149        1       0.00707311       0.00574663      -0.00352505
Pt       7.01137676       2.45529838      24.60469571        1       0.01564932       0.01114181       0.00362025
Pt       2.79956359       4.88539770      24.60377359        1      -0.01487172      -0.00685539       0.00149924
Pt       5.59771766       4.88241410      24.56952151        1      -0.00627420      -0.00475101      -0.00144580
Pt       8.40722596       4.90950112      24.62028349        1       0.00666338      -0.01133932       0.01262096
N        9.10779735       3.66187917      26.89483331        0       0.01185698      -0.02335729      -0.01385307
H        8.21715291       3.56764671      26.35178471        0      -0.02693731      -0.01999526      -0.01948258
H        9.63451634       4.38596766      26.35085532        0       0.02916684       0.01384715      -0.01683876
H        9.60469765       2.80112319      26.58755602        0       0.02337372      -0.04007767      -0.00396151
