31
Lattice="8.421641763931781 0.0 0.0 4.2108208819658905 7.293355709136913 0.0 0.0 0.0 44.584161137365626" Properties=species:S:1:pos:R:3:tags:I:1:forces:R:3 energy=-172.65194702148438 free_energy=-172.65194702148438 stress="0.010527077130973339 -8.240231608169779e-09 7.090221298966526e-09 -8.240231608169779e-09 0.01052708551287651 -2.459539683030698e-09 7.090221298966526e-09 -2.459539683030698e-09 0.00012950069503858685" pbc="T T T"
Pt       1.40360696       0.81037286      20.00000000        3       0.00164732       0.00305632       0.01138982
Pt       4.21082088       0.81037286      20.00000000        3       0.00000156      -0.00000133      -0.00398442
Pt       7.01803480       0.81037286      20.00000000        3      -0.00164899       0.00305667       0.01138905
Pt       2.80721392       3.24149143      20.00000000        3      -0.00182415      -0.00295595       0.01138902
Pt       5.61442784       3.24149143      20.00000000        3       0.00182372      -0.00295516       0.01138946
Pt       8.42164176       3.24149143      20.00000000        3       0.00000118       0.00000006       0.04825661
Pt       4.21082088       5.67261000      20.00000000        3       0.00000258       0.00000136      -0.00338599
Pt       7.01803480       5.67261000      20.00000000        3       0.00347009      -0.00010103       0.01138890
Pt       9.82524872       5.67261000      20.00000000        3      -0.00347347      -0.00010103       0.01138857
Pt      -0.00000000       1.62074571      22.29208057        2       0.00000196       0.09583085      -0.00172511
Pt       2.80721392       1.62074571      22.29208057        2      -0.12620899       0.07286596       0.01768344
Pt       5.61442784       1.62074571      22.29208057        2       0.12620753       0.07286590       0.01768248
Pt       1.40360696       4.05186428      22.29208057        2      -0.08299439      -0.04791797      -0.00172675
Pt       4.21082088       4.05186428      22.29208057        2       0.00000320      -0.01846165      -0.03354826
Pt       7.01803480       4.05186428      22.29208057        2       0.08299072      -0.04791630      -0.00172527
Pt       2.80721392       6.48298285      22.29208057        2      -0.01598570       0.00923299      -0.03354936
Pt       5.61442784       6.48298285      22.29208057        2       0.01598550       0.00923188      -0.03354884
Pt       8.42164176       6.48298285      22.29208057        2       0.00000050      -0.14573152       0.01768314
Pt       0.00000029      -0.00257279      24.58162595        1      -0.00000029      -0.00447703      -0.00640236
Pt       2.81078989       0.00206446      24.56716953        1      -0.00151758      -0.00087590      -0.00905919
Pt       5.61085186       0.00206440      24.56716953        1       0.00151694      -0.00087732      -0.00906083
Pt       1.42971519       2.41604486      24.62651860        1      -0.00350934       0.00202716      -0.00716586
Pt       4.21082096       2.42698899      24.56716969        1      -0.00000120       0.00175574      -0.00906023
Pt       6.99192656       2.41604454      24.62651901        1       0.00351218       0.00202915      -0.00716262
Pt       2.80944155       4.86352328      24.58162592        1       0.00387954       0.00223649      -0.00639175
Pt       5.61220021       4.86352327      24.58162610        1      -0.00388020       0.00223598      -0.00640199
Pt       8.42164177       4.89238410      24.62651894        1       0.00000087      -0.00405400      -0.00716466
N        8.42164195       3.24149136      26.85798633        0      -0.00003524       0.00000898       0.01049399
H        9.21871121       3.70167954      26.34500374        0      -0.02188252      -0.01263475       0.00030157
H        8.42164241       2.32111503      26.34500375        0      -0.00000330       0.02528509       0.00030670
H        7.62457215       3.70168047      26.34500393        0       0.02192003      -0.01265948       0.00032055
