31
Lattice="8.421641763931781 0.0 0.0 4.2108208819658905 7.293355709136913 0.0 0.0 0.0 44.584161137365626" Properties=species:S:1:pos:R:3:tags:I:1:forces:R:3 energy=-172.57716369628906 free_energy=-172.57716369628906 stress="0.010478963144123554 1.6524180912469433e-09 -1.5317708212947423e-09 1.6524180912469433e-09 0.010478976182639599 -6.720202172516565e-10 -1.5317708212947423e-09 -6.720202172516565e-10 -0.00018221275240648538" pbc="T T T"
Pt       1.40360696       0.81037286      20.00000000        3       0.00008882       0.00047697      -0.00420704
Pt       4.21082088       0.81037286      20.00000000        3       0.00091465       0.00070288      -0.00487041
Pt       7.01803480       0.81037286      20.00000000        3      -0.00106857       0.00043611      -0.00487143
Pt       2.80721392       3.24149143      20.00000000        3      -0.00004014       0.00008940       0.00331873
Pt       5.61442784       3.24149143      20.00000000        3       0.00015153      -0.00114261      -0.00487140
Pt       8.42164176       3.24149143      20.00000000        3       0.00010025      -0.00000884       0.00331759
Pt       4.21082088       5.67261000      20.00000000        3      -0.00045702      -0.00016185      -0.00420764
Pt       7.01803480       5.67261000      20.00000000        3       0.00036941      -0.00031360      -0.00420919
Pt       9.82524872       5.67261000      20.00000000        3      -0.00005843      -0.00007839       0.00331888
Pt      -0.00000000       1.62074571      22.29208057        2       0.02727144       0.03339208      -0.00389048
Pt       2.80721392       1.62074571      22.29208057        2      -0.02598253       0.03246914      -0.00567582
Pt       5.61442784       1.62074571      22.29208057        2      -0.00000269      -0.00000163      -0.05327196
Pt       1.40360696       4.05186428      22.29208057        2       0.00000132      -0.00000020       0.05031872
Pt       4.21082088       4.05186428      22.29208057        2      -0.04255419       0.00691858      -0.00389027
Pt       7.01803480       4.05186428      22.29208057        2       0.04110866       0.00626671      -0.00567498
Pt       2.80721392       6.48298285      22.29208057        2      -0.01512764      -0.03873646      -0.00567563
Pt       5.61442784       6.48298285      22.29208057        2      -0.00000221       0.00000169      -0.03515529
Pt       8.42164176       6.48298285      22.29208057        2       0.01528637      -0.04031012      -0.00389159
Pt       0.00188962      -0.00020530      24.57707622        1      -0.00315326       0.00670953      -0.00708386
Pt       2.80609167      -0.00153371      24.57707621        1       0.00738636      -0.00062466      -0.00708407
Pt       5.61393247       0.00689229      24.57902253        1      -0.00323657      -0.01788781      -0.00410679
Pt       1.40619861       2.41651278      24.58942623        1       0.00550819       0.02318270       0.00538526
Pt       4.21703748       2.42810116      24.57902246        1      -0.01387280       0.01174822      -0.00410727
Pt       7.01231328       2.42724359      24.57902259        1       0.01710870       0.00613988      -0.00410590
Pt       2.81856716       4.87178423      24.58942630        1      -0.02283142      -0.00682199       0.00538537
Pt       5.61366073       4.86397602      24.57707626        1      -0.00423276      -0.00608520      -0.00708377
Pt       8.40769696       4.86729589      24.58942641        1       0.01732461      -0.01636061       0.00538588
N        9.82524836       4.05186426      27.59415645        0       0.00000016       0.00000635       0.00236711
H       10.29362309       3.23095318      27.19876093        0      -0.03266490       0.00886139       0.03304422
H        8.88013200       4.05669563      27.19876100        0       0.02401179       0.02385944       0.03304571
H       10.30199154       4.86794389      27.19876086        0       0.00865303      -0.03272718       0.03304739
