31
Lattice="8.421641763931781 0.0 0.0 4.2108208819658905 7.293355709136913 0.0 0.0 0.0 44.584161137365626" Properties=species:S:1:pos:R:3:tags:I:1:forces:R:3 energy=-172.80535888671875 free_energy=-172.80535888671875 stress="0.010277358815073967 -2.1628031390719116e-05 5.581221557804383e-05 -2.1628031390719116e-05 0.01030236016958952 3.222885061404668e-05 5.581221557804383e-05 3.222885061404668e-05 -1.5555597201455384e-05" pbc="T T T"
Pt       1.40360696       0.81037286      20.00000000        3       0.00013940       0.00325907       0.00135681
Pt       4.21082088       0.81037286      20.00000000        3       0.00048945       0.00028000      -0.00643092
Pt       7.01803480       0.81037286      20.00000000        3      -0.00221276      -0.00020374      -0.00832903
Pt       2.80721392       3.24149143      20.00000000        3      -0.00152373      -0.00298768       0.01604855
Pt       5.61442784       3.24149143      20.00000000        3      -0.00128108      -0.00181336      -0.00832933
Pt       8.42164176       3.24149143      20.00000000        3       0.00143757       0.00082998       0.02707812
Pt       4.21082088       5.67261000      20.00000000        3      -0.00220158      -0.00127086      -0.00997022
Pt       7.01803480       5.67261000      20.00000000        3       0.00289198      -0.00150866       0.00135645
Pt       9.82524872       5.67261000      20.00000000        3      -0.00335072       0.00017604       0.01604995
Pt      -0.00000000       1.62074571      22.29208057        2       0.14085342       0.10647067       0.02284748
Pt       2.80721392       1.62074571      22.29208057        2      -0.13346331       0.10136223       0.03627259
Pt       5.61442784       1.62074571      22.29208057        2       0.01163058       0.00671502      -0.10786514
Pt       1.40360696       4.05186428      22.29208057        2      -0.04051685      -0.02339138       0.07276922
Pt       4.21082088       4.05186428      22.29208057        2      -0.08324348       0.02111766      -0.03975633
Pt       7.01803480       4.05186428      22.29208057        2       0.16263126       0.06874673       0.02284981
Pt       2.80721392       6.48298285      22.29208057        2      -0.02333571      -0.08265118      -0.03975765
Pt       5.61442784       6.48298285      22.29208057        2       0.03546381       0.02047436      -0.07370868
Pt       8.42164176       6.48298285      22.29208057        2       0.02105279      -0.16626504       0.03627266
Pt       0.01761107      -0.00280220      24.56335340        1      -0.02948005       0.03633226       0.00770071
Pt       2.82723842       0.01155996      24.56370987        1      -0.01979981      -0.01142662      -0.00901254
Pt       5.63307941       0.01549727      24.57008949        1      -0.02177428       0.00508908      -0.00071418
Pt       1.42454812       2.41393219      24.62682364        1      -0.03056403       0.00001983      -0.00759694
Pt       4.23356836       2.43952329      24.57008953        1      -0.00648273      -0.02140588      -0.00071347
Pt       7.01752171       2.43082251      24.56808345        1      -0.00993235      -0.00573646      -0.00642766
Pt       2.83152614       4.87627380      24.59456842        1       0.01487164       0.00858715       0.04193557
Pt       5.62080655       4.87888896      24.56335367        1       0.01672509      -0.04369491       0.00769150
Pt       8.41722847       4.88896580      24.62682596        1      -0.01526595      -0.02647989      -0.00760888
N        9.56201763       3.89988807      26.93230363        0       0.00817556       0.00468604      -0.03411302
H       10.33140604       4.34409497      26.38941900        0       0.02622091       0.01513322       0.02581005
H        9.52428055       2.93175916      26.55475223        0      -0.01844303       0.01102668       0.01214997
H        8.70472621       4.35127174      26.55475183        0       0.00028791      -0.02147045       0.01214455
