31
Lattice="8.421641763931781 0.0 0.0 4.2108208819658905 7.293355709136913 0.0 0.0 0.0 44.584161137365626" Properties=species:S:1:pos:R:3:tags:I:1:forces:R:3 energy=-172.64517211914062 free_energy=-172.64517211914062 stress="0.010424388572573662 -1.0382279036491582e-08 -1.1802525179405166e-08 -1.0382279036491582e-08 0.01042439416050911 2.2582056224962344e-09 -1.1802525179405166e-08 2.2582056224962344e-09 -8.789518687990494e-06" pbc="T T T"
Pt       1.40360696       0.81037286      20.00000000        3       0.00000089       0.00398728       0.00066799
Pt       4.21082088       0.81037286      20.00000000        3       0.00203509       0.00117247       0.00089732
Pt       7.01803480       0.81037286      20.00000000        3      -0.00203595       0.00117135       0.00089630
Pt       2.80721392       3.24149143      20.00000000        3      -0.00027167       0.00015752       0.02934331
Pt       5.61442784       3.24149143      20.00000000        3      -0.00000189      -0.00234780       0.00089645
Pt       8.42164176       3.24149143      20.00000000        3       0.00027443       0.00015840       0.02934316
Pt       4.21082088       5.67261000      20.00000000        3      -0.00345313      -0.00199358       0.00066760
Pt       7.01803480       5.67261000      20.00000000        3       0.00345330      -0.00199256       0.00066715
Pt       9.82524872       5.67261000      20.00000000        3      -0.00000119      -0.00031314       0.02934378
Pt      -0.00000000       1.62074571      22.29208057        2       0.07618748       0.08602844      -0.01590217
Pt       2.80721392       1.62074571      22.29208057        2      -0.07618485       0.08602890      -0.01590304
Pt       5.61442784       1.62074571      22.29208057        2      -0.00000165      -0.00000154      -0.06579410
Pt       1.40360696       4.05186428      22.29208057        2      -0.00000084      -0.00000137       0.00991465
Pt       4.21082088       4.05186428      22.29208057        2      -0.11259430       0.02296191      -0.01590450
Pt       7.01803480       4.05186428      22.29208057        2       0.11259469       0.02296386      -0.01590100
Pt       2.80721392       6.48298285      22.29208057        2      -0.03641118      -0.10899074      -0.01590517
Pt       5.61442784       6.48298285      22.29208057        2      -0.00000094       0.00000159      -0.07842203
Pt       8.42164176       6.48298285      22.29208057        2       0.03641204      -0.10899080      -0.01590352
Pt       0.00172878      -0.00099813      24.55968871        1       0.00141839      -0.00081868       0.02566639
Pt       2.80548558      -0.00099807      24.55968868        1      -0.00141822      -0.00081980       0.02566761
Pt       5.61442791       0.00666458      24.58204401        1      -0.00000055      -0.00462370      -0.00813399
Pt       1.40360715       2.40933278      24.62282279        1       0.00000060       0.01740429       0.04149336
Pt       4.21659275       2.42778594      24.58204437        1      -0.00400607       0.00231450      -0.00813289
Pt       7.01226276       2.42778599      24.58204447        1       0.00400559       0.00231393      -0.00813276
Pt       2.82608083       4.87313009      24.62282276        1      -0.01507104      -0.00870424       0.04150209
Pt       5.61442778       4.86423292      24.55968883        1       0.00000188       0.00163645       0.02566729
Pt       8.40277435       4.87313013      24.62282289        1       0.01506953      -0.00870292       0.04149160
N        9.82524772       4.05186412      26.88201328        0       0.00006639      -0.00000244      -0.01728433
H        9.82524839       4.96904760      26.36755173        0      -0.00000207       0.01983640      -0.00760332
H       10.61955311       3.59327220      26.36755118        0       0.01714261      -0.00989972      -0.00758395
H        9.03094518       3.59327277      26.36755210        0      -0.01720738      -0.00993454      -0.00761938
