31
Lattice="8.421641763931781 0.0 0.0 4.2108208819658905 7.293355709136913 0.0 0.0 0.0 44.584161137365626" Properties=species:S:1:pos:R:3:tags:I:1:forces:R:3 energy=-172.80612182617188 free_energy=-172.80612182617188 stress="0.01021501049399376 -3.058559183699572e-09 8.90183426971447e-10 -3.058559183699572e-09 0.010215011425316334 4.559942645698811e-09 8.90183426971447e-10 4.559942645698811e-09 -7.903605001047254e-05" pbc="T T T"
Pt       1.40360696       0.81037286      20.00000000        3       0.00201218       0.00318901       0.00015014
Pt       4.21082088       0.81037286      20.00000000        3       0.00000177      -0.00000174      -0.01100338
Pt       7.01803480       0.81037286      20.00000000        3      -0.00201344       0.00318933       0.00014821
Pt       2.80721392       3.24149143      20.00000000        3      -0.00175733      -0.00333773       0.00014776
Pt       5.61442784       3.24149143      20.00000000        3       0.00175646      -0.00333724       0.00014833
Pt       8.42164176       3.24149143      20.00000000        3       0.00000139       0.00000076       0.03285715
Pt       4.21082088       5.67261000      20.00000000        3       0.00000200       0.00000138      -0.01574668
Pt       7.01803480       5.67261000      20.00000000        3       0.00376739       0.00014843       0.00014749
Pt       9.82524872       5.67261000      20.00000000        3      -0.00377043       0.00014809       0.00014842
Pt      -0.00000000       1.62074571      22.29208057        2       0.00000187       0.12772566       0.03249612
Pt       2.80721392       1.62074571      22.29208057        2      -0.14542349       0.08395915       0.01005589
Pt       5.61442784       1.62074571      22.29208057        2       0.14542235       0.08395908       0.01005491
Pt       1.40360696       4.05186428      22.29208057        2      -0.11061502      -0.06386440       0.03249566
Pt       4.21082088       4.05186428      22.29208057        2       0.00000144      -0.03007254      -0.07678654
Pt       7.01803480       4.05186428      22.29208057        2       0.11061262      -0.06386384       0.03249590
Pt       2.80721392       6.48298285      22.29208057        2      -0.02604259       0.01503700      -0.07678659
Pt       5.61442784       6.48298285      22.29208057        2       0.02604161       0.01503759      -0.07678626
Pt       8.42164176       6.48298285      22.29208057        2       0.00000097      -0.16791873       0.01005563
Pt       0.00000021      -0.00512095      24.56477937        1       0.00000102      -0.03940383       0.01025112
Pt       2.81114775       0.00227115      24.56060043        1      -0.01717296      -0.00991562       0.01757027
Pt       5.61049394       0.00227099      24.56060032        1       0.01717198      -0.00991607       0.01756926
Pt       1.42855961       2.41671211      24.61159970        1      -0.00751809       0.00433919       0.00178901
Pt       4.21082096       2.42657596      24.56060080        1      -0.00000037       0.01982943       0.01757012
Pt       6.99308201       2.41671205      24.61159985        1       0.00751840       0.00433918       0.00179010
Pt       2.81164869       4.86479735      24.56477925        1       0.03412427       0.01970372       0.01025273
Pt       5.60999309       4.86479733      24.56477950        1      -0.03412427       0.01970355       0.01025189
Pt       8.42164144       4.89105009      24.61159927        1       0.00000063      -0.00867886       0.00178852
N        8.42164229       3.24149180      26.93137775        0      -0.00001044      -0.00003079       0.00369021
H        9.24312196       2.76720964      26.50980563        0       0.02256304      -0.01302228       0.00106347
H        7.60016188       2.76720992      26.50980575        0      -0.02255926      -0.01302724       0.00106758
H        8.42164175       4.19005462      26.50980585        0       0.00000637       0.02608030       0.00105362
