31
Lattice="8.421641763931781 0.0 0.0 4.2108208819658905 7.293355709136913 0.0 0.0 0.0 44.584161137365626" Properties=species:S:1:pos:R:3:tags:I:1:forces:R:3 energy=-172.575439453125 free_energy=-172.575439453125 stress="0.010545244440436363 4.3564115912886336e-05 -5.507480636879336e-06 4.3564115912886336e-05 0.010495208203792572 1.1594241186685394e-05 -5.507480636879336e-06 1.1594241186685394e-05 -0.00012014026287943125" pbc="T T T"
Pt       1.40360696       0.81037286      20.00000000        3       0.00031122       0.00118228      -0.00138965
Pt       4.21082088       0.81037286      20.00000000        3       0.00068848       0.00036346      -0.00524107
Pt       7.01803480       0.81037286      20.00000000        3      -0.00111184       0.00043865      -0.00392681
Pt       2.80721392       3.24149143      20.00000000        3      -0.00061700      -0.00083732       0.00243363
Pt       5.61442784       3.24149143      20.00000000        3      -0.00004498      -0.00116460      -0.00410971
Pt       8.42164176       3.24149143      20.00000000        3       0.00089873      -0.00012313       0.00689480
Pt       4.21082088       5.67261000      20.00000000        3      -0.00032080      -0.00016061      -0.00612989
Pt       7.01803480       5.67261000      20.00000000        3       0.00062769      -0.00010281      -0.00393990
Pt       9.82524872       5.67261000      20.00000000        3      -0.00045476       0.00035091       0.00005820
Pt      -0.00000000       1.62074571      22.29208057        2       0.03564741       0.04295165       0.02674951
Pt       2.80721392       1.62074571      22.29208057        2      -0.04664319       0.03454409       0.00318369
Pt       5.61442784       1.62074571      22.29208057        2       0.01000415       0.00574982      -0.04594905
Pt       1.40360696       4.05186428      22.29208057        2      -0.02153911      -0.02878595       0.04391064
Pt       4.21082088       4.05186428      22.29208057        2      -0.02308243      -0.00963772      -0.02192612
Pt       7.01803480       4.05186428      22.29208057        2       0.04504557       0.00011350       0.01556637
Pt       2.80721392       6.48298285      22.29208057        2      -0.01601195      -0.01163046      -0.02391581
Pt       5.61442784       6.48298285      22.29208057        2       0.00853661       0.00961421      -0.02985744
Pt       8.42164176       6.48298285      22.29208057        2       0.00669460      -0.04164758      -0.00911170
Pt      -0.00116833      -0.00534735      24.57862971        1      -0.00284587       0.01129130      -0.00653645
Pt       2.80758255      -0.00055047      24.57622530        1      -0.00006924       0.00036720      -0.00779456
Pt       5.61530205       0.00640736      24.57873335        1       0.00308203      -0.00563028      -0.00410211
Pt       1.41168644       2.41812423      24.59781669        1      -0.00626874       0.01011910       0.02197285
Pt       4.21629446       2.42922033      24.57886116        1      -0.00716124       0.00706726      -0.00327286
Pt       7.00966905       2.42715497      24.58337350        1       0.02899593       0.01774963       0.00005066
Pt       2.81431837       4.86705172      24.58331971        1      -0.02939956      -0.01537329      -0.00194633
Pt       5.60873393       4.86450598      24.57851468        1       0.00427895      -0.00535019      -0.00741017
Pt       8.41480297       4.87495318      24.58785904        1       0.00773149      -0.01307024       0.00253722
N        9.12357718       3.64625142      27.58833491        0       0.01010330      -0.01807407      -0.00559735
H        9.59842863       4.46647593      27.20180023        0      -0.01919872      -0.01512100       0.03901522
H        9.59630310       2.82761532      27.19136920        0      -0.00953472       0.01681282      -0.00837602
H        8.17594719       3.64498014      27.20167753        0       0.02165790       0.00799308       0.03816028
