31
Lattice="8.421641763931781 0.0 0.0 4.2108208819658905 7.293355709136913 0.0 0.0 0.0 44.584161137365626" Properties=species:S:1:pos:R:3:tags:I:1:forces:R:3 energy=-172.59942626953125 free_energy=-172.59942626953125 stress="0.010525377467274666 -1.0579048748127207e-09 -2.214673999745287e-09 -1.0579048748127207e-09 0.010525388643145561 -5.074160647211556e-09 -2.214673999745287e-09 -5.074160647211556e-09 1.6098883861559443e-06" pbc="T T T"
Pt       1.40360696       0.81037286      20.00000000        3       0.00000104       0.00103689      -0.00327474
Pt       4.21082088       0.81037286      20.00000000        3       0.00089506       0.00051405      -0.00636670
Pt       7.01803480       0.81037286      20.00000000        3      -0.00089587       0.00051335      -0.00636831
Pt       2.80721392       3.24149143      20.00000000        3      -0.00061178       0.00035361       0.00581095
Pt       5.61442784       3.24149143      20.00000000        3      -0.00000198      -0.00103133      -0.00636774
Pt       8.42164176       3.24149143      20.00000000        3       0.00061416       0.00035475       0.00581014
Pt       4.21082088       5.67261000      20.00000000        3      -0.00089799      -0.00051800      -0.00327539
Pt       7.01803480       5.67261000      20.00000000        3       0.00089819      -0.00051759      -0.00327563
Pt       9.82524872       5.67261000      20.00000000        3      -0.00000165      -0.00070522       0.00581142
Pt      -0.00000000       1.62074571      22.29208057        2       0.03870327       0.04042481       0.00523384
Pt       2.80721392       1.62074571      22.29208057        2      -0.03870049       0.04042529       0.00523326
Pt       5.61442784       1.62074571      22.29208057        2      -0.00000222      -0.00000148      -0.05875733
Pt       1.40360696       4.05186428      22.29208057        2       0.00000074      -0.00000003       0.06418674
Pt       4.21082088       4.05186428      22.29208057        2      -0.05436022       0.01330262       0.00523252
Pt       7.01803480       4.05186428      22.29208057        2       0.05435903       0.01330321       0.00523363
Pt       2.80721392       6.48298285      22.29208057        2      -0.01565929      -0.05372877       0.00523341
Pt       5.61442784       6.48298285      22.29208057        2      -0.00000177       0.00000174      -0.03006234
Pt       8.42164176       6.48298285      22.29208057        2       0.01566117      -0.05372795       0.00523335
Pt       0.00139402      -0.00080488      24.57666907        1      -0.00477686       0.00275792      -0.00865608
Pt       2.80582005      -0.00080475      24.57666916        1       0.00477786       0.00275789      -0.00865602
Pt       5.61442779       0.00735057      24.57767262        1       0.00000015      -0.01971714      -0.00594833
Pt       1.40360710       2.41886769      24.59704352        1      -0.00000045       0.01958222       0.02003986
Pt       4.21718678       2.42744320      24.57767259        1      -0.01707571       0.00985845      -0.00594807
Pt       7.01166880       2.42744328      24.57767287        1       0.01707544       0.00985831      -0.00594744
Pt       2.81782347       4.86836258      24.59704352        1      -0.01695950      -0.00978993       0.02004109
Pt       5.61442776       4.86384672      24.57666922        1      -0.00000015      -0.00551747      -0.00865483
Pt       8.41103218       4.86836265      24.59704364        1       0.01695962      -0.00979038       0.02004083
N        9.82524865       4.05186376      27.59093186        0       0.00000051       0.00003511      -0.03130677
H        9.82524872       3.10653205      27.19264434        0       0.00000007       0.02905759       0.00656548
H        9.00656705       4.52453057      27.19264409        0       0.02518883      -0.01454628       0.00657959
H       10.64393042       4.52453055      27.19264405        0      -0.02518912      -0.01454621       0.00657959
