31
Lattice="8.421641763931781 0.0 0.0 4.2108208819658905 7.293355709136913 0.0 0.0 0.0 44.584161137365626" Properties=species:S:1:pos:R:3:tags:I:1:forces:R:3 energy=-172.80596923828125 free_energy=-172.80596923828125 stress="0.010263794101774693 -4.449184416444041e-05 -8.823224197840318e-05 -4.449184416444041e-05 0.010315192863345146 -5.093511572340503e-05 -8.823224197840318e-05 -5.093511572340503e-05 -2.5175741029670462e-05" pbc="T T T"
Pt       1.40360696       0.81037286      20.00000000        3       0.00177824       0.00456421       0.00073341
Pt       4.21082088       0.81037286      20.00000000        3       0.00236071       0.00136085      -0.00847048
Pt       7.01803480       0.81037286      20.00000000        3      -0.00119741       0.00088927      -0.00833583
Pt       2.80721392       3.24149143      20.00000000        3      -0.00033515      -0.00209250       0.01607448
Pt       5.61442784       3.24149143      20.00000000        3       0.00017268      -0.00148081      -0.00833523
Pt       8.42164176       3.24149143      20.00000000        3       0.00228224       0.00131732       0.02806559
Pt       4.21082088       5.67261000      20.00000000        3      -0.00046905      -0.00027010      -0.01008695
Pt       7.01803480       5.67261000      20.00000000        3       0.00484202      -0.00074153       0.00073135
Pt       9.82524872       5.67261000      20.00000000        3      -0.00198098       0.00075748       0.01607421
Pt      -0.00000000       1.62074571      22.29208057        2       0.11912272       0.10259792       0.02592039
Pt       2.80721392       1.62074571      22.29208057        2      -0.16236837       0.08812812       0.02518894
Pt       5.61442784       1.62074571      22.29208057        2      -0.01718006      -0.00991711      -0.12072688
Pt       1.40360696       4.05186428      22.29208057        2      -0.05769326      -0.03331065       0.08368732
Pt       4.21082088       4.05186428      22.29208057        2      -0.10971993       0.01323695      -0.04019749
Pt       7.01803480       4.05186428      22.29208057        2       0.14841184       0.05186071       0.02591943
Pt       2.80721392       6.48298285      22.29208057        2      -0.04339408      -0.10164051      -0.04019929
Pt       5.61442784       6.48298285      22.29208057        2       0.00831294       0.00480197      -0.06137845
Pt       8.42164176       6.48298285      22.29208057        2      -0.00486244      -0.18467876       0.02518617
Pt      -0.01517067      -0.01109124      24.56280199        1       0.01351694      -0.00445094       0.00657463
Pt       2.79524260      -0.00691212      24.56256344        1      -0.01721090      -0.00993463      -0.00169361
Pt       5.59570995      -0.00619265      24.56863170        1       0.01606666       0.01267591       0.00780128
Pt       1.38697586       2.39675946      24.62805766        1       0.00597008       0.03318830      -0.00592131
Pt       4.19609909       2.41800441      24.56863434        1       0.01901112       0.00757379       0.00779153
Pt       6.97798864       2.40799758      24.56969663        1       0.03841987       0.02217935      -0.00401005
Pt       2.81351237       4.86587296      24.59392405        1      -0.00277540      -0.00159972       0.02679124
Pt       5.59723825       4.85464366      24.56280078        1       0.00289959       0.01393282       0.00657463
Pt       8.38356974       4.86501280      24.62805809        1       0.03173430      -0.01142343      -0.00591808
N        9.57409132       3.90685988      26.93106614        0      -0.02165417      -0.01255776      -0.01033247
H       10.34456760       4.35169347      26.38979997        0      -0.00636304      -0.00366411       0.02859158
H        9.53150500       2.93583318      26.56361202        0       0.01472324       0.01183973      -0.00303796
H        8.71186460       4.35549129      26.56361326        0       0.01757899       0.00685792      -0.00306182
