31
Lattice="8.421641763931781 0.0 0.0 4.2108208819658905 7.293355709136913 0.0 0.0 0.0 44.584161137365626" Properties=species:S:1:pos:R:3:tags:I:1:forces:R:3 energy=-172.5946807861328 free_energy=-172.5946807861328 stress="0.010531810112297535 7.927982714761583e-09 8.31999091843727e-09 7.927982714761583e-09 0.010531817562878132 8.08736855262282e-10 8.31999091843727e-09 8.08736855262282e-10 -0.00010164644481847063" pbc="T T T"
Pt       1.40360696       0.81037286      20.00000000        3       0.00000053       0.00081067      -0.00487405
Pt       4.21082088       0.81037286      20.00000000        3       0.00046649       0.00026668      -0.00698939
Pt       7.01803480       0.81037286      20.00000000        3      -0.00046720       0.00026584      -0.00699112
Pt       2.80721392       3.24149143      20.00000000        3      -0.00043395       0.00025077      -0.00006667
Pt       5.61442784       3.24149143      20.00000000        3      -0.00000179      -0.00053645      -0.00699031
Pt       8.42164176       3.24149143      20.00000000        3       0.00043696       0.00025183      -0.00006714
Pt       4.21082088       5.67261000      20.00000000        3      -0.00070130      -0.00040499      -0.00487497
Pt       7.01803480       5.67261000      20.00000000        3       0.00070175      -0.00040442      -0.00487593
Pt       9.82524872       5.67261000      20.00000000        3      -0.00000157      -0.00049999      -0.00006604
Pt      -0.00000000       1.62074571      22.29208057        2       0.02141179       0.02138640      -0.00027574
Pt       2.80721392       1.62074571      22.29208057        2      -0.02140980       0.02138722      -0.00027695
Pt       5.61442784       1.62074571      22.29208057        2      -0.00000171      -0.00000151      -0.05402761
Pt       1.40360696       4.05186428      22.29208057        2       0.00000139      -0.00000317       0.04413415
Pt       4.21082088       4.05186428      22.29208057        2      -0.02922304       0.00784584      -0.00027894
Pt       7.01803480       4.05186428      22.29208057        2       0.02922145       0.00784586      -0.00027686
Pt       2.80721392       6.48298285      22.29208057        2      -0.00781694      -0.02923243      -0.00028100
Pt       5.61442784       6.48298285      22.29208057        2      -0.00000174      -0.00000019      -0.03138025
Pt       8.42164176       6.48298285      22.29208057        2       0.00781952      -0.02923098      -0.00028385
Pt       0.00239970      -0.00138624      24.57829515        1      -0.01535717       0.00887294       0.00745162
Pt       2.80481599      -0.00138613      24.57829511        1       0.01535032       0.00887187       0.00745276
Pt       5.61442758       0.00768589      24.57860595        1       0.00000280      -0.03944062       0.01256377
Pt       1.40360707       2.42801349      24.59073941        1      -0.00000090      -0.02196946       0.00538561
Pt       4.21747850       2.42727466      24.57860570        1      -0.03416365       0.01972071       0.01256505
Pt       7.01137706       2.42727425      24.57860619        1       0.03416619       0.01972245       0.01256549
Pt       2.80990350       4.86378951      24.59073894        1       0.01902100       0.01098061       0.00539571
Pt       5.61442741       4.86500662      24.57829618        1       0.00000135      -0.01773209       0.00744107
Pt       8.41895205       4.86378945      24.59073902        1      -0.01902082       0.01097724       0.00539640
N        9.82524837       4.05186460      27.96139885        0      -0.00005113      -0.00001720       0.02140623
H        9.01141669       3.58199855      27.56270674        0      -0.02235553      -0.01290623      -0.00627883
H        9.82524825       4.99159660      27.56270755        0       0.00000336       0.02585296      -0.00629832
H       10.63907986       3.58199823      27.56270805        0       0.02240331      -0.01293014      -0.00630386
