31
Lattice="8.421641763931781 0.0 0.0 4.2108208819658905 7.293355709136913 0.0 0.0 0.0 44.584161137365626" Properties=species:S:1:pos:R:3:tags:I:1:forces:R:3 energy=-172.8036651611328 free_energy=-172.8036651611328 stress="0.010243738070130348 -4.373534829937853e-05 -6.095149365137331e-05 -4.373534829937853e-05 0.010294247418642044 -3.519242090987973e-05 -6.095149365137331e-05 -3.519242090987973e-05 -1.093636456062086e-05" pbc="T T T"
Pt       1.40360696       0.81037286      20.00000000        3       0.00197150       0.00391095       0.00331160
Pt       4.21082088       0.81037286      20.00000000        3       0.00083795       0.00048119      -0.00621045
Pt       7.01803480       0.81037286      20.00000000        3      -0.00232246       0.00122404      -0.00127292
Pt       2.80721392       3.24149143      20.00000000        3      -0.00048083      -0.00361407       0.00617626
Pt       5.61442784       3.24149143      20.00000000        3      -0.00009995      -0.00262192      -0.00127152
Pt       8.42164176       3.24149143      20.00000000        3       0.00266126       0.00153647       0.03510499
Pt       4.21082088       5.67261000      20.00000000        3       0.00064186       0.00037031      -0.01569179
Pt       7.01803480       5.67261000      20.00000000        3       0.00437238      -0.00024744       0.00331160
Pt       9.82524872       5.67261000      20.00000000        3      -0.00337195       0.00139185       0.00617680
Pt      -0.00000000       1.62074571      22.29208057        2       0.04753591       0.11496349       0.03033762
Pt       2.80721392       1.62074571      22.29208057        2      -0.16864727       0.08359461       0.05839748
Pt       5.61442784       1.62074571      22.29208057        2       0.07065734       0.04079713      -0.03735300
Pt       1.40360696       4.05186428      22.29208057        2      -0.12040370      -0.06951620       0.04898348
Pt       4.21082088       4.05186428      22.29208057        2      -0.01789253      -0.05014097      -0.08589166
Pt       7.01803480       4.05186428      22.29208057        2       0.12332352      -0.01631618       0.03034084
Pt       2.80721392       6.48298285      22.29208057        2      -0.05236954       0.00957149      -0.08589880
Pt       5.61442784       6.48298285      22.29208057        2       0.02277672       0.01314938      -0.07215913
Pt       8.42164176       6.48298285      22.29208057        2      -0.01192948      -0.18784985       0.05839811
Pt      -0.01818443      -0.01401509      24.56862721        1       0.04336409       0.02348523       0.00072777
Pt       2.78803265      -0.01107412      24.56182907        1       0.04228855       0.02441011       0.00093254
Pt       5.60211349       0.00197500      24.56839070        1      -0.00625871       0.01059705      -0.01237789
Pt       1.42114967       2.40594947      24.62284267        1       0.00361840       0.01725900      -0.00583622
Pt       4.20637348       2.41946536      24.56839086        1       0.00605581      -0.01070921      -0.01238585
Pt       6.99164809       2.41588372      24.59719517        1      -0.00689965      -0.00398019       0.01624275
Pt       2.81349030       4.86586149      24.56439327        1      -0.00973906      -0.00562784       0.01068601
Pt       5.59319766       4.85349620      24.56862881        1       0.04201986       0.02580784       0.00071804
Pt       8.40861518       4.89001391      24.62284341        1       0.01675668      -0.00548973      -0.00583993
N        8.71544407       3.41111800      26.90726062        0       0.00597061       0.00347879      -0.04223484
H        7.94741021       2.96769451      26.35831125        0       0.02267116       0.01308072       0.04146861
H        8.76084668       4.38342602      26.53904996        0      -0.01642463      -0.03751262       0.01656354
H        9.58018842       2.96428469      26.53905022        0      -0.04068384       0.00451644       0.01654638
