31
Lattice="8.421641763931781 0.0 0.0 4.2108208819658905 7.293355709136913 0.0 0.0 0.0 44.584161137365626" Properties=species:S:1:pos:R:3:tags:I:1:forces:R:3 energy=-172.76077270507812 free_energy=-172.76077270507812 stress="0.010408131405711174 7.045145321171731e-05 7.42897973395884e-05 7.045145321171731e-05 0.010361263528466225 -0.00011713814456015825 7.42897973395884e-05 -0.00011713814456015825 0.00011395772889954969" pbc="T T T"
Pt       1.40360696       0.81037286      20.00000000        3       0.00008727       0.00390282       0.00241452
Pt       4.21082088       0.81037286      20.00000000        3      -0.00036107       0.00053176      -0.00557789
Pt       7.01803480       0.81037286      20.00000000        3      -0.00257671       0.00266311       0.00178838
Pt       2.80721392       3.24149143      20.00000000        3      -0.00144658      -0.00184679       0.01665154
Pt       5.61442784       3.24149143      20.00000000        3       0.00073599      -0.00255371       0.00243106
Pt       8.42164176       3.24149143      20.00000000        3       0.00069999       0.00237391       0.03803420
Pt       4.21082088       5.67261000      20.00000000        3      -0.00310667      -0.00061876      -0.00506470
Pt       7.01803480       5.67261000      20.00000000        3       0.00347831      -0.00050417       0.00365672
Pt       9.82524872       5.67261000      20.00000000        3      -0.00326495       0.00049641       0.01904264
Pt      -0.00000000       1.62074571      22.29208057        2       0.06309839       0.08649883      -0.00417439
Pt       2.80721392       1.62074571      22.29208057        2      -0.11647362       0.08063331       0.02495755
Pt       5.61442784       1.62074571      22.29208057        2       0.06738468       0.02218352      -0.06477207
Pt       1.40360696       4.05186428      22.29208057        2      -0.06892861      -0.01447676       0.03637849
Pt       4.21082088       4.05186428      22.29208057        2      -0.04171672      -0.01800095      -0.03812278
Pt       7.01803480       4.05186428      22.29208057        2       0.14209136       0.01201449       0.03078583
Pt       2.80721392       6.48298285      22.29208057        2      -0.03284960      -0.05591694      -0.03371748
Pt       5.61442784       6.48298285      22.29208057        2       0.02189896      -0.00277660      -0.05837037
Pt       8.42164176       6.48298285      22.29208057        2       0.02805908      -0.19789530       0.05174791
Pt       0.00911898      -0.02455977      24.56952099        1      -0.00725138      -0.00305954      -0.00144669
Pt       2.81995868      -0.00788974      24.55990001        1      -0.01687966       0.02247509       0.00330564
Pt       5.63117670       0.00104160      24.57114104        1       0.00851656       0.00325418      -0.00351334
Pt       1.43733115       2.39500189      24.62028231        1      -0.00648852       0.01144032       0.01261969
Pt       4.23966881       2.41630712      24.57077794        1       0.00826364      -0.00150171      -0.00210670
Pt       7.03564622       2.41326287      24.60469641        1       0.01747385       0.00798151       0.00362022
Pt       2.82344590       4.84403138      24.60377300        1      -0.01336939      -0.00945190       0.00149764
Pt       5.61831004       4.85334340      24.56933654        1      -0.00602986      -0.01067512      -0.00237328
Pt       8.41821355       4.89106453      24.62962321        1       0.00048739      -0.00440509       0.02444143
N        9.12878756       3.62552505      26.89483138        0      -0.01440689       0.02193225      -0.01387826
H       10.01922516       3.71963295      26.35085322        0       0.02662040       0.01834132      -0.01686251
H        8.60185648       2.90131961      26.35178162        0      -0.03074754      -0.01328352      -0.01944429
H        8.63180031       4.48623130      26.58755367        0      -0.02299817       0.04024400      -0.00394880
