31
Lattice="8.421641763931781 0.0 0.0 4.2108208819658905 7.293355709136913 0.0 0.0 0.0 44.584161137365626" Properties=species:S:1:pos:R:3:tags:I:1:forces:R:3 energy=-173.71633911132812 free_energy=-173.71633911132812 stress="0.010683992877602577 7.634027632263951e-09 1.7711949684695583e-09 7.634027632263951e-09 0.010683986358344555 -7.121510048335722e-10 1.7711949684695583e-09 -7.121510048335722e-10 -3.7029819850431522e-06" pbc="T T T"
Pt       1.40360696       0.81037286      20.00000000        3      -0.00294263      -0.00089531      -0.00605920
Pt       4.21082088       0.81037286      20.00000000        3       0.00052093       0.00464545       0.01214224
Pt       7.01803480       0.81037286      20.00000000        3       0.00224279      -0.00210477      -0.00605839
Pt       2.80721392       3.24149143      20.00000000        3       0.00376579      -0.00277380       0.01214087
Pt       5.61442784       3.24149143      20.00000000        3      -0.00428576      -0.00187429       0.01214221
Pt       8.42164176       3.24149143      20.00000000        3       0.00075719      -0.00624256      -0.00914082
Pt       4.21082088       5.67261000      20.00000000        3       0.00070117       0.00299736      -0.00605959
Pt       7.01803480       5.67261000      20.00000000        3      -0.00578663       0.00246973      -0.00913867
Pt       9.82524872       5.67261000      20.00000000        3       0.00502759       0.00377819      -0.00913954
Pt      -0.00000000       1.62074571      22.29208057        2       0.00916217       0.00726001      -0.00003508
Pt       2.80721392       1.62074571      22.29208057        2       0.06358936       0.04179183      -0.02867992
Pt       5.61442784       1.62074571      22.29208057        2      -0.06798683       0.03417448      -0.02867913
Pt       1.40360696       4.05186428      22.29208057        2       0.05040523      -0.03656513       0.03262750
Pt       4.21082088       4.05186428      22.29208057        2       0.00440082      -0.07596697      -0.02867934
Pt       7.01803480       4.05186428      22.29208057        2      -0.05687105      -0.02537094       0.03263658
Pt       2.80721392       6.48298285      22.29208057        2      -0.01086755       0.00430678      -0.00003942
Pt       5.61442784       6.48298285      22.29208057        2       0.00170705      -0.01156299      -0.00003832
Pt       8.42164176       6.48298285      22.29208057        2       0.00646248       0.06193586       0.03262634
Pt       0.00000104      -0.00000021      24.58918510        1      -0.00000187       0.00000311      -0.00129849
Pt       2.79998915      -0.01017886      24.59564062        1       0.00151483      -0.00764351       0.00773297
Pt       5.61871281      -0.00402191      24.60743332        1      -0.00992072       0.00607438      -0.00826326
Pt       1.39798255       2.42941927      24.60743419        1       0.01021955       0.00555492      -0.00826369
Pt       4.21082292       2.43111801      24.65956362        1       0.00000071       0.00000299       0.00566640
Pt       7.03046533       2.42995054      24.59564173        1       0.00585133       0.00514221       0.00772487
Pt       2.80200934       4.87358505      24.59564094        1      -0.00736349       0.00250129       0.00773434
Pt       5.61576606       4.86796024      24.60743374        1      -0.00027928      -0.01163831      -0.00826408
Pt       8.42164344       4.86223775      24.58945642        1      -0.00001790      -0.00000425      -0.00312081
N        4.21082151       2.43111676      26.72619243        0      -0.00005202       0.00001115      -0.00115889
H        3.23872279       2.43367799      27.04595804        0      -0.00115553       0.00121269      -0.00035699
H        4.69908703       3.27169700      27.04596129        0       0.00163231       0.00042519      -0.00034686
H        4.69464842       1.58797583      27.04596463        0      -0.00043024      -0.00164469      -0.00035384
