31
Lattice="8.421641763931781 0.0 0.0 4.2108208819658905 7.293355709136913 0.0 0.0 0.0 44.584161137365626" Properties=species:S:1:pos:R:3:tags:I:1:forces:R:3 energy=-173.71255493164062 free_energy=-173.71255493164062 stress="0.010737726464867592 4.673909259622633e-09 1.4417661509114055e-09 4.673909259622633e-09 0.010737706907093525 9.917059173858433e-09 1.4417661509114055e-09 9.917059173858433e-09 1.2303318726480938e-05" pbc="T T T"
Pt       1.40360696       0.81037286      20.00000000        3      -0.00309253      -0.00178862      -0.00688502
Pt       4.21082088       0.81037286      20.00000000        3       0.00000228       0.00538838       0.01373175
Pt       7.01803480       0.81037286      20.00000000        3       0.00309044      -0.00178809      -0.00688490
Pt       2.80721392       3.24149143      20.00000000        3       0.00466916      -0.00269540       0.01373002
Pt       5.61442784       3.24149143      20.00000000        3      -0.00466944      -0.00269537       0.01373038
Pt       8.42164176       3.24149143      20.00000000        3       0.00000156      -0.00631331      -0.01009586
Pt       4.21082088       5.67261000      20.00000000        3       0.00000225       0.00357314      -0.00688466
Pt       7.01803480       5.67261000      20.00000000        3      -0.00547034       0.00315943      -0.01009518
Pt       9.82524872       5.67261000      20.00000000        3       0.00546682       0.00315972      -0.01009387
Pt      -0.00000000       1.62074571      22.29208057        2       0.00000108       0.00557435       0.00163977
Pt       2.80721392       1.62074571      22.29208057        2       0.07609884       0.04393565      -0.02060258
Pt       5.61442784       1.62074571      22.29208057        2      -0.07609957       0.04393385      -0.02060063
Pt       1.40360696       4.05186428      22.29208057        2       0.05734685      -0.03310869       0.03225464
Pt       4.21082088       4.05186428      22.29208057        2       0.00000192      -0.08787023      -0.02059994
Pt       7.01803480       4.05186428      22.29208057        2      -0.05734925      -0.03310919       0.03225416
Pt       2.80721392       6.48298285      22.29208057        2      -0.00482852      -0.00278737       0.00163976
Pt       5.61442784       6.48298285      22.29208057        2       0.00482550      -0.00278819       0.00163744
Pt       8.42164176       6.48298285      22.29208057        2       0.00000326       0.06621930       0.03225091
Pt       0.00000043      -0.00000024      24.59054653        1      -0.00000045       0.00000022      -0.00889587
Pt       2.80082105      -0.00692759      24.60083865        1       0.00585404       0.00239074       0.00068481
Pt       5.62082108      -0.00692786      24.60083871        1      -0.00585435       0.00239348       0.00067501
Pt       1.39441137       2.42904553      24.60083941        1       0.00499745       0.00387454       0.00067605
Pt       4.21082071       2.43111835      24.67001251        1      -0.00000015       0.00000069      -0.03264019
Pt       7.02723059       2.42904548      24.60083943        1      -0.00499922       0.00387387       0.00067680
Pt       2.80441126       4.87123720      24.60083920        1      -0.00085481      -0.00626658       0.00067659
Pt       5.61723069       4.87123740      24.60083903        1       0.00085323      -0.00626705       0.00067589
Pt       8.42164158       4.86223699      24.58858472        1       0.00000149      -0.00000032       0.00282198
N        4.21082024       2.43111759      26.73726693        0       0.00003355       0.00009945      -0.01460207
H        3.36755017       2.91798130      27.05381909        0       0.04245550      -0.02451809       0.00636794
H        5.05409212       2.91798131      27.05381693        0      -0.04248442      -0.02453224       0.00636095
H        4.21082101       1.45739385      27.05381729        0      -0.00000212       0.04895185       0.00639611
