31
Lattice="8.421641763931781 0.0 0.0 4.2108208819658905 7.293355709136913 0.0 0.0 0.0 44.584161137365626" Properties=species:S:1:pos:R:3:tags:I:1:forces:R:3 energy=-172.57716369628906 free_energy=-172.57716369628906 stress="0.010478966869413853 -5.061067120948337e-09 5.3326298932177e-10 -5.061067120948337e-09 0.010478971526026726 -3.066262355133631e-09 5.3326298932177e-10 -3.066262355133631e-09 -0.00018221150094177574" pbc="T T T"
Pt       1.40360696       0.81037286      20.00000000        3      -0.00008689       0.00047729      -0.00420770
Pt       4.21082088       0.81037286      20.00000000        3       0.00106856       0.00043703      -0.00487033
Pt       7.01803480       0.81037286      20.00000000        3      -0.00091545       0.00070192      -0.00487164
Pt       2.80721392       3.24149143      20.00000000        3      -0.00009756      -0.00000947       0.00331903
Pt       5.61442784       3.24149143      20.00000000        3      -0.00015598      -0.00114296      -0.00487179
Pt       8.42164176       3.24149143      20.00000000        3       0.00004298       0.00009063       0.00331777
Pt       4.21082088       5.67261000      20.00000000        3      -0.00036924      -0.00031502      -0.00420782
Pt       7.01803480       5.67261000      20.00000000        3       0.00045740      -0.00016122      -0.00420934
Pt       9.82524872       5.67261000      20.00000000        3       0.00005615      -0.00007861       0.00331870
Pt      -0.00000000       1.62074571      22.29208057        2       0.02598519       0.03246762      -0.00567400
Pt       2.80721392       1.62074571      22.29208057        2      -0.02726816       0.03339279      -0.00389049
Pt       5.61442784       1.62074571      22.29208057        2      -0.00000272      -0.00000158      -0.05327216
Pt       1.40360696       4.05186428      22.29208057        2       0.00000115      -0.00000028       0.05031725
Pt       4.21082088       4.05186428      22.29208057        2      -0.04111116       0.00626671      -0.00567420
Pt       7.01803480       4.05186428      22.29208057        2       0.04255198       0.00691931      -0.00388967
Pt       2.80721392       6.48298285      22.29208057        2      -0.01528422      -0.04031134      -0.00389116
Pt       5.61442784       6.48298285      22.29208057        2      -0.00000202       0.00000184      -0.03515411
Pt       8.42164176       6.48298285      22.29208057        2       0.01512959      -0.03873350      -0.00567620
Pt       0.00112251      -0.00153373      24.57707639        1      -0.00738504      -0.00062407      -0.00708452
Pt       2.80532470      -0.00020524      24.57707641        1       0.00315143       0.00670870      -0.00708413
Pt       5.61492281       0.00689218      24.57902264        1       0.00323754      -0.01788658      -0.00410694
Pt       1.40101575       2.41651315      24.58942608        1      -0.00550852       0.02317970       0.00538439
Pt       4.21654232       2.42724351      24.57902274        1      -0.01710949       0.00614037      -0.00410691
Pt       7.01181807       2.42810122      24.57902271        1       0.01387337       0.01174642      -0.00410601
Pt       2.82115826       4.86729566      24.58942613        1      -0.01731966      -0.01636041       0.00538506
Pt       5.61519478       4.86397595      24.57707642        1       0.00423275      -0.00608430      -0.00708327
Pt       8.41028877       4.87178421      24.58942631        1       0.02282799      -0.00682062       0.00538544
N        9.82524861       4.05186424      27.59415636        0      -0.00000207       0.00002598       0.00236571
H        9.34850612       4.86794423      27.19876078        0      -0.00864634      -0.03274003       0.03305277
H       10.77036549       4.05669546      27.19876068        0      -0.02401197       0.02385942       0.03304584
H        9.35687456       3.23095336      27.19876075        0       0.03266034       0.00885434       0.03304036
