31
Lattice="8.421641763931781 0.0 0.0 4.2108208819658905 7.293355709136913 0.0 0.0 0.0 44.584161137365626" Properties=species:S:1:pos:R:3:tags:I:1:forces:R:3 energy=-172.80612182617188 free_energy=-172.80612182617188 stress="0.010215009562671185 2.164425749739962e-09 3.098911127707993e-09 2.164425749739962e-09 0.01021502073854208 1.4365452161158032e-09 3.098911127707993e-09 1.4365452161158032e-09 -7.90300327935256e-05" pbc="T T T"
Pt       1.40360696       0.81037286      20.00000000        3       0.00201184       0.00318918       0.00014910
Pt       4.21082088       0.81037286      20.00000000        3       0.00000194      -0.00000139      -0.01100251
Pt       7.01803480       0.81037286      20.00000000        3      -0.00201365       0.00318967       0.00014895
Pt       2.80721392       3.24149143      20.00000000        3      -0.00175760      -0.00333782       0.00014845
Pt       5.61442784       3.24149143      20.00000000        3       0.00175687      -0.00333771       0.00014889
Pt       8.42164176       3.24149143      20.00000000        3       0.00000091       0.00000059       0.03285760
Pt       4.21082088       5.67261000      20.00000000        3       0.00000228       0.00000133      -0.01574722
Pt       7.01803480       5.67261000      20.00000000        3       0.00376774       0.00014759       0.00014809
Pt       9.82524872       5.67261000      20.00000000        3      -0.00377055       0.00014826       0.00014892
Pt      -0.00000000       1.62074571      22.29208057        2       0.00000197       0.12772623       0.03249578
Pt       2.80721392       1.62074571      22.29208057        2      -0.14542416       0.08395992       0.01005644
Pt       5.61442784       1.62074571      22.29208057        2       0.14542267       0.08395994       0.01005608
Pt       1.40360696       4.05186428      22.29208057        2      -0.11061490      -0.06386423       0.03249569
Pt       4.21082088       4.05186428      22.29208057        2       0.00000145      -0.03007245      -0.07678508
Pt       7.01803480       4.05186428      22.29208057        2       0.11061227      -0.06386408       0.03249532
Pt       2.80721392       6.48298285      22.29208057        2      -0.02604302       0.01503735      -0.07678558
Pt       5.61442784       6.48298285      22.29208057        2       0.02604187       0.01503761      -0.07678615
Pt       8.42164176       6.48298285      22.29208057        2       0.00000070      -0.16791940       0.01005493
Pt       0.00000023      -0.00512058      24.56477917        1       0.00000019      -0.03940667       0.01025103
Pt       2.81114790       0.00227100      24.56060074        1      -0.01717538      -0.00991497       0.01756926
Pt       5.61049385       0.00227099      24.56060019        1       0.01717546      -0.00991428       0.01756980
Pt       1.42855928       2.41671224      24.61159954        1      -0.00751415       0.00433766       0.00178518
Pt       4.21082088       2.42657592      24.56060073        1       0.00000241       0.01983125       0.01756971
Pt       6.99308230       2.41671218      24.61159963        1       0.00751398       0.00433812       0.00179001
Pt       2.81164836       4.86479734      24.56477952        1       0.03412628       0.01970360       0.01025209
Pt       5.60999334       4.86479727      24.56477945        1      -0.03412725       0.01970368       0.01025096
Pt       8.42164176       4.89104969      24.61159973        1       0.00000095      -0.00867841       0.00178789
N        8.42164195       3.24149156      26.93137732        0      -0.00002248      -0.00000332       0.00367430
H        7.60016173       2.76720966      26.50980485        0      -0.02255163      -0.01302211       0.00107039
H        8.42164178       4.19005457      26.50980472        0       0.00000233       0.02605508       0.00106745
H        9.24312140       2.76720984      26.50980467        0       0.02257057      -0.01303032       0.00106455
