31
Lattice="8.421641763931781 0.0 0.0 4.2108208819658905 7.293355709136913 0.0 0.0 0.0 44.584161137365626" Properties=species:S:1:pos:R:3:tags:I:1:forces:R:3 energy=-172.80076599121094 free_energy=-172.80076599121094 stress="0.01038046833127737 -4.931322572510055e-10 1.7548705821823773e-09 -4.931322572510055e-10 0.01038045808672905 6.442687716656792e-09 1.7548705821823773e-09 6.442687716656792e-09 0.000138134797452949" pbc="T T T"
Pt       1.40360696       0.81037286      20.00000000        3       0.00175870       0.00301137       0.00177938
Pt       4.21082088       0.81037286      20.00000000        3       0.00000159      -0.00000161      -0.00917187
Pt       7.01803480       0.81037286      20.00000000        3      -0.00208892       0.00282752       0.00179240
Pt       2.80721392       3.24149143      20.00000000        3      -0.00140693      -0.00322252       0.00179231
Pt       5.61442784       3.24149143      20.00000000        3       0.00172920      -0.00302898       0.00177789
Pt       8.42164176       3.24149143      20.00000000        3       0.00000192       0.00000061       0.03522655
Pt       4.21082088       5.67261000      20.00000000        3       0.00000203       0.00000144      -0.01458362
Pt       7.01803480       5.67261000      20.00000000        3       0.00349279       0.00039441       0.00179169
Pt       9.82524872       5.67261000      20.00000000        3      -0.00348994       0.00001735       0.00177908
Pt      -0.00000000       1.62074571      22.29208057        2       0.00085156       0.12743312       0.05054322
Pt       2.80721392       1.62074571      22.29208057        2      -0.13852176       0.08505725       0.03906485
Pt       5.61442784       1.62074571      22.29208057        2       0.14292321       0.07742905       0.03906544
Pt       1.40360696       4.05186428      22.29208057        2      -0.11078584      -0.06298235       0.05054331
Pt       4.21082088       4.05186428      22.29208057        2      -0.00004330      -0.03188267      -0.06164247
Pt       7.01803480       4.05186428      22.29208057        2       0.10993714      -0.06445602       0.05053961
Pt       2.80721392       6.48298285      22.29208057        2      -0.02759090       0.01597952      -0.06163715
Pt       5.61442784       6.48298285      22.29208057        2       0.02762746       0.01590919      -0.06164325
Pt       8.42164176       6.48298285      22.29208057        2      -0.00439758      -0.16248886       0.03906281
Pt      -0.00145504      -0.00628230      24.56941710        1      -0.00358855      -0.02452073      -0.00742897
Pt       2.80581336       0.00421293      24.56545293        1       0.02554173      -0.01176840      -0.00533232
Pt       5.61147823      -0.00332125      24.56545370        1      -0.00256819       0.02801533      -0.00534248
Pt       1.42917304       2.41956197      24.61814266        1      -0.01125042      -0.01082830      -0.00879857
Pt       4.21517111       2.43022469      24.56545307        1      -0.02297352      -0.01623656      -0.00533193
Pt       6.99524386       2.41475568      24.61814285        1      -0.00375152       0.01515567      -0.00879692
Pt       2.81338199       4.86411708      24.56941737        1       0.02302881       0.00915559      -0.00742765
Pt       5.60971532       4.86663798      24.56941639        1      -0.01944545       0.01536647      -0.00741675
Pt       8.41886637       4.89015618      24.61814226        1       0.01500694      -0.00433689      -0.00879462
N        8.42164182       3.24149168      26.94317159        0      -0.00000825      -0.00005304      -0.00900558
H        7.53152222       2.91137245      26.52136048        0       0.01573023      -0.01923116      -0.01079350
H        8.58080849       4.17741599      26.52136138        0      -0.02450833      -0.00394222      -0.01081778
H        9.15259405       2.63568721      26.52136027        0       0.00878611       0.02322635      -0.01079298
