31
Lattice="8.421641763931781 0.0 0.0 4.2108208819658905 7.293355709136913 0.0 0.0 0.0 44.584161137365626" Properties=species:S:1:pos:R:3:tags:I:1:forces:R:3 energy=-173.7161865234375 free_energy=-173.7161865234375 stress="0.010666719637811184 -4.701420586172844e-09 -2.032384927019848e-09 -4.701420586172844e-09 0.010666726157069206 3.4566869366869923e-09 -2.032384927019848e-09 3.4566869366869923e-09 -1.7629688500164775e-06" pbc="T T T"
Pt       1.40360696       0.81037286      20.00000000        3      -0.00237140      -0.00214324      -0.00628492
Pt       4.21082088       0.81037286      20.00000000        3      -0.00053714       0.00469169       0.01202217
Pt       7.01803480       0.81037286      20.00000000        3       0.00303728      -0.00098598      -0.00628421
Pt       2.80721392       3.24149143      20.00000000        3       0.00433491      -0.00187950       0.01202083
Pt       5.61442784       3.24149143      20.00000000        3      -0.00379632      -0.00281386       0.01202083
Pt       8.42164176       3.24149143      20.00000000        3      -0.00067132      -0.00618639      -0.00957558
Pt       4.21082088       5.67261000      20.00000000        3      -0.00066660       0.00312560      -0.00628406
Pt       7.01803480       5.67261000      20.00000000        3      -0.00502385       0.00367799      -0.00957546
Pt       9.82524872       5.67261000      20.00000000        3       0.00569337       0.00251413      -0.00957432
Pt      -0.00000000       1.62074571      22.29208057        2      -0.00845841       0.00598669      -0.00398024
Pt       2.80721392       1.62074571      22.29208057        2       0.07003956       0.03508683      -0.02902671
Pt       5.61442784       1.62074571      22.29208057        2      -0.06540859       0.04310941      -0.02902607
Pt       1.40360696       4.05186428      22.29208057        2       0.05740296      -0.02607531       0.02847349
Pt       4.21082088       4.05186428      22.29208057        2      -0.00463171      -0.07819780      -0.02902430
Pt       7.01803480       4.05186428      22.29208057        2      -0.05128663      -0.03667084       0.02847276
Pt       2.80721392       6.48298285      22.29208057        2      -0.00095605      -0.01032205      -0.00398002
Pt       5.61442784       6.48298285      22.29208057        2       0.00941574       0.00433275      -0.00398056
Pt       8.42164176       6.48298285      22.29208057        2      -0.00611437       0.06275109       0.02847126
Pt       0.00000058       0.00000003      24.58900253        1       0.00000169      -0.00000154      -0.00093907
Pt       2.80275882      -0.00565735      24.60592543        1       0.01109173       0.01446770      -0.00246690
Pt       5.62155142      -0.00947772      24.59462690        1      -0.00212937      -0.00500314       0.01184337
Pt       1.39183760       2.42968897      24.59462723        1      -0.00327090       0.00434242       0.01184469
Pt       4.21081940       2.43111816      24.65974771        1       0.00000404      -0.00000142       0.03703114
Pt       7.02516171       2.43008882      24.60592543        1      -0.01808127       0.00237209      -0.00246578
Pt       2.80454319       4.86892466      24.60592629        1       0.00698290      -0.01684216      -0.00247401
Pt       5.61907496       4.87314425      24.59462666        1       0.00539401       0.00066261       0.01184346
Pt       8.42164212       4.86223764      24.58874980        1       0.00000079      -0.00000074      -0.00018451
N        4.21081930       2.43111719      26.72997095        0       0.00001536       0.00004172      -0.04325897
H        5.18355876       2.43439792      27.04813236        0      -0.00649197       0.00116175       0.00145067
H        3.72729173       1.58706196      27.04813822        0       0.00423726       0.00501324       0.00144998
H        3.72161072       3.27189477      27.04813610        0       0.00224427      -0.00621374       0.00144077
