31
Lattice="8.421641763931781 0.0 0.0 4.2108208819658905 7.293355709136913 0.0 0.0 0.0 44.584161137365626" Properties=species:S:1:pos:R:3:tags:I:1:forces:R:3 energy=-173.710693359375 free_energy=-173.710693359375 stress="0.010916201397776604 1.5312514589638226e-09 -4.778788920134502e-09 1.5312514589638226e-09 0.010916185565292835 4.472879400196916e-09 -4.778788920134502e-09 4.472879400196916e-09 0.000226447285967879" pbc="T T T"
Pt       1.40360696       0.81037286      20.00000000        3      -0.00238330      -0.00137839      -0.00229064
Pt       4.21082088       0.81037286      20.00000000        3       0.00000216       0.00388539       0.01204622
Pt       7.01803480       0.81037286      20.00000000        3       0.00238124      -0.00137816      -0.00229016
Pt       2.80721392       3.24149143      20.00000000        3       0.00336701      -0.00194380       0.01204455
Pt       5.61442784       3.24149143      20.00000000        3      -0.00336741      -0.00194335       0.01204577
Pt       8.42164176       3.24149143      20.00000000        3       0.00000102      -0.00614457      -0.00583825
Pt       4.21082088       5.67261000      20.00000000        3       0.00000238       0.00275368      -0.00228935
Pt       7.01803480       5.67261000      20.00000000        3      -0.00532405       0.00307501      -0.00583833
Pt       9.82524872       5.67261000      20.00000000        3       0.00532075       0.00307510      -0.00583711
Pt      -0.00000000       1.62074571      22.29208057        2       0.00000025       0.00391571       0.04122207
Pt       2.80721392       1.62074571      22.29208057        2       0.05054219       0.02917876      -0.00924505
Pt       5.61442784       1.62074571      22.29208057        2      -0.05054107       0.02917988      -0.00924221
Pt       1.40360696       4.05186428      22.29208057        2       0.04815837      -0.02780384       0.06554303
Pt       4.21082088       4.05186428      22.29208057        2       0.00000305      -0.05835961      -0.00924353
Pt       7.01803480       4.05186428      22.29208057        2      -0.04816125      -0.02780690       0.06554601
Pt       2.80721392       6.48298285      22.29208057        2      -0.00339176      -0.00195682       0.04122028
Pt       5.61442784       6.48298285      22.29208057        2       0.00338982      -0.00195658       0.04121912
Pt       8.42164176       6.48298285      22.29208057        2       0.00000250       0.05561114       0.06554019
Pt       0.00000035      -0.00000003      24.60033348        1       0.00000033      -0.00000128      -0.04961628
Pt       2.80203370      -0.00740674      24.61112768        1      -0.01068784      -0.00518128      -0.04276478
Pt       5.61960850      -0.00740731      24.61112870        1       0.01068966      -0.00518037      -0.04276475
Pt       1.39460303       2.43033546      24.61112705        1      -0.00983281      -0.00666174      -0.04276361
Pt       4.21082156       2.43111898      24.65481071        1      -0.00000318      -0.00000401      -0.00593361
Pt       7.02704139       2.43033489      24.61112957        1       0.00982472      -0.00666054      -0.04277298
Pt       2.80339005       4.87042770      24.61112711        1       0.00085489       0.01184507      -0.04276480
Pt       5.61825269       4.87042803      24.61112868        1      -0.00085725       0.01184083      -0.04276425
Pt       8.42164180       4.86223774      24.60026184        1       0.00000274      -0.00000499      -0.04450995
N        4.21081896       2.43111670      26.71808899        0      -0.00000306       0.00005284       0.04766977
H        3.36898722       2.91714967      27.03901990        0       0.02518772      -0.01453944       0.00154581
H        5.05265194       2.91714991      27.03901434        0      -0.02518232      -0.01454139       0.00156454
H        4.21081941       1.45905429      27.03902030        0       0.00000446       0.02903357       0.00156216
