31
Lattice="8.421641763931781 0.0 0.0 4.2108208819658905 7.293355709136913 0.0 0.0 0.0 44.584161137365626" Properties=species:S:1:pos:R:3:tags:I:1:forces:R:3 energy=-172.80653381347656 free_energy=-172.80653381347656 stress="0.010291830636560917 -2.300610812966397e-09 -4.96533170135649e-09 -2.300610812966397e-09 0.010291838087141514 -4.053887225907715e-10 -4.96533170135649e-09 -4.053887225907715e-10 2.576993574621156e-05" pbc="T T T"
Pt       1.40360696       0.81037286      20.00000000        3       0.00223436       0.00252606       0.00094739
Pt       4.21082088       0.81037286      20.00000000        3       0.00000160      -0.00000135      -0.00860575
Pt       7.01803480       0.81037286      20.00000000        3      -0.00223593       0.00252624       0.00094649
Pt       2.80721392       3.24149143      20.00000000        3      -0.00107135      -0.00319854       0.00094658
Pt       5.61442784       3.24149143      20.00000000        3       0.00107088      -0.00319835       0.00094691
Pt       8.42164176       3.24149143      20.00000000        3       0.00000157       0.00000017       0.03144374
Pt       4.21082088       5.67261000      20.00000000        3       0.00000183       0.00000130      -0.01521546
Pt       7.01803480       5.67261000      20.00000000        3       0.00330402       0.00067247       0.00094649
Pt       9.82524872       5.67261000      20.00000000        3      -0.00330743       0.00067259       0.00094634
Pt      -0.00000000       1.62074571      22.29208057        2       0.00000175       0.12209845       0.04594374
Pt       2.80721392       1.62074571      22.29208057        2      -0.13821146       0.07979532       0.02789483
Pt       5.61442784       1.62074571      22.29208057        2       0.13821012       0.07979555       0.02789508
Pt       1.40360696       4.05186428      22.29208057        2      -0.10574180      -0.06105073       0.04594383
Pt       4.21082088       4.05186428      22.29208057        2       0.00000139      -0.03577099      -0.07026497
Pt       7.01803480       4.05186428      22.29208057        2       0.10573986      -0.06105048       0.04594389
Pt       2.80721392       6.48298285      22.29208057        2      -0.03097739       0.01788684      -0.07026429
Pt       5.61442784       6.48298285      22.29208057        2       0.03097601       0.01788689      -0.07026549
Pt       8.42164176       6.48298285      22.29208057        2       0.00000088      -0.15959099       0.02789512
Pt       0.00000022      -0.01027204      24.56857338        1       0.00000088       0.00925104      -0.00448658
Pt       2.80945474       0.00129349      24.56523450        1       0.00060600       0.00035061      -0.00526196
Pt       5.61218695       0.00129346      24.56523440        1      -0.00060577       0.00034998      -0.00526306
Pt       1.42909826       2.41640110      24.61131470        1      -0.01195443       0.00690202       0.00162454
Pt       4.21082089       2.42853117      24.56523456        1       0.00000116      -0.00070062      -0.00526267
Pt       6.99254353       2.41640113      24.61131531        1       0.01195343       0.00690169       0.00162367
Pt       2.81610957       4.86737306      24.56857317        1      -0.00801256      -0.00462551      -0.00448497
Pt       5.60553211       4.86737299      24.56857327        1       0.00801145      -0.00462626      -0.00448497
Pt       8.42164181       4.89167182      24.61131556        1       0.00000088      -0.01380369       0.00162516
N        8.42164169       3.24149143      26.92948701        0       0.00002700       0.00000149       0.03304866
H        7.59767153       2.76577180      26.51547595        0      -0.00878960      -0.00507226      -0.01090698
H        8.42164183       4.19293023      26.51547640        0      -0.00000603       0.01013851      -0.01090092
H        9.24561189       2.76577215      26.51547603        0       0.00876857      -0.00506730      -0.01089457
