31
Lattice="8.421641763931781 0.0 0.0 4.2108208819658905 7.293355709136913 0.0 0.0 0.0 44.584161137365626" Properties=species:S:1:pos:R:3:tags:I:1:forces:R:3 energy=-172.80076599121094 free_energy=-172.80076599121094 stress="0.01038045808672905 -2.2928949849898572e-09 4.815691401205413e-09 -2.2928949849898572e-09 0.010380501858890057 -1.2675879013102076e-08 4.815691401205413e-09 -1.2675879013102076e-08 0.000138165894895792" pbc="T T T"
Pt       1.40360696       0.81037286      20.00000000        3       0.00208747       0.00282815       0.00179377
Pt       4.21082088       0.81037286      20.00000000        3       0.00000177      -0.00000162      -0.00916988
Pt       7.01803480       0.81037286      20.00000000        3      -0.00176029       0.00301167       0.00177956
Pt       2.80721392       3.24149143      20.00000000        3      -0.00172981      -0.00302991       0.00177920
Pt       5.61442784       3.24149143      20.00000000        3       0.00140620      -0.00322289       0.00179318
Pt       8.42164176       3.24149143      20.00000000        3       0.00000119       0.00000050       0.03522864
Pt       4.21082088       5.67261000      20.00000000        3       0.00000196       0.00000195      -0.01458251
Pt       7.01803480       5.67261000      20.00000000        3       0.00348675       0.00001764       0.00177920
Pt       9.82524872       5.67261000      20.00000000        3      -0.00349581       0.00039475       0.00179225
Pt      -0.00000000       1.62074571      22.29208057        2      -0.00084895       0.12743653       0.05055313
Pt       2.80721392       1.62074571      22.29208057        2      -0.14292413       0.07743336       0.03908366
Pt       5.61442784       1.62074571      22.29208057        2       0.13851941       0.08505995       0.03907870
Pt       1.40360696       4.05186428      22.29208057        2      -0.10993826      -0.06445760       0.05055278
Pt       4.21082088       4.05186428      22.29208057        2       0.00004258      -0.03188256      -0.06162622
Pt       7.01803480       4.05186428      22.29208057        2       0.11078827      -0.06298228       0.05055344
Pt       2.80721392       6.48298285      22.29208057        2      -0.02762911       0.01590540      -0.06162972
Pt       5.61442784       6.48298285      22.29208057        2       0.02758801       0.01597850      -0.06162859
Pt       8.42164176       6.48298285      22.29208057        2       0.00440221      -0.16249160       0.03908041
Pt       0.00145515      -0.00628103      24.56942002        1       0.00358576      -0.02453319      -0.00743827
Pt       2.81016265      -0.00332214      24.56545561        1       0.00258158       0.02801548      -0.00535163
Pt       5.61583002       0.00421413      24.56545515        1      -0.02555174      -0.01177252      -0.00534257
Pt       1.42639672       2.41475183      24.61814759        1       0.00377288       0.01516177      -0.00883656
Pt       4.20647068       2.43022511      24.56545602        1       0.02296589      -0.01624053      -0.00535300
Pt       6.99246572       2.41956447      24.61814761        1       0.01124823      -0.01084580      -0.00883423
Pt       2.81192531       4.86663751      24.56941984        1       0.01945639       0.01536854      -0.00743708
Pt       5.60826143       4.86411722      24.56941979        1      -0.02304219       0.00916119      -0.00743711
Pt       8.42441993       4.89015658      24.61814716        1      -0.01501606      -0.00431588      -0.00883211
N        8.42164207       3.24149092      26.94315549        0      -0.00004073       0.00007936      -0.00871783
H        9.31176089       2.91136727      26.52136359        0      -0.01555604      -0.01928938      -0.01089332
H        7.69068662       2.63568646      26.52136379        0      -0.00890607       0.02314679      -0.01088248
H        8.26247798       4.17742168      26.52136476        0       0.02450271      -0.00393581      -0.01085471
