31
Lattice="8.421641763931781 0.0 0.0 4.2108208819658905 7.293355709136913 0.0 0.0 0.0 44.584161137365626" Properties=species:S:1:pos:R:3:tags:I:1:forces:R:3 energy=-173.71566772460938 free_energy=-173.71566772460938 stress="0.010731188580393791 -6.971869748184645e-10 -1.3930135267514743e-08 -6.971869748184645e-10 0.010731162503361702 -2.8458830847455374e-09 -1.3930135267514743e-08 -2.8458830847455374e-09 2.1058134734630585e-05" pbc="T T T"
Pt       1.40360696       0.81037286      20.00000000        3      -0.00236948      -0.00071578      -0.00491807
Pt       4.21082088       0.81037286      20.00000000        3      -0.00012661       0.00453561       0.01195145
Pt       7.01803480       0.81037286      20.00000000        3       0.00180021      -0.00169839      -0.00492024
Pt       2.80721392       3.24149143      20.00000000        3       0.00399436      -0.00215800       0.01195049
Pt       5.61442784       3.24149143      20.00000000        3      -0.00386698      -0.00237994       0.01195142
Pt       8.42164176       3.24149143      20.00000000        3       0.00072811      -0.00597969      -0.00801885
Pt       4.21082088       5.67261000      20.00000000        3       0.00056998       0.00241055      -0.00491863
Pt       7.01803480       5.67261000      20.00000000        3      -0.00554409       0.00236295      -0.00801834
Pt       9.82524872       5.67261000      20.00000000        3       0.00481449       0.00362180      -0.00801829
Pt      -0.00000000       1.62074571      22.29208057        2       0.01000206       0.00663196       0.01779632
Pt       2.80721392       1.62074571      22.29208057        2       0.05779495       0.03318489      -0.03198893
Pt       5.61442784       1.62074571      22.29208057        2      -0.05764021       0.03345878      -0.03198997
Pt       1.40360696       4.05186428      22.29208057        2       0.04849470      -0.03198953       0.04052182
Pt       4.21082088       4.05186428      22.29208057        2      -0.00015490      -0.06664535      -0.03198911
Pt       7.01803480       4.05186428      22.29208057        2      -0.05195355      -0.02600241       0.04052299
Pt       2.80721392       6.48298285      22.29208057        2      -0.01074305       0.00534361       0.01779329
Pt       5.61442784       6.48298285      22.29208057        2       0.00074439      -0.01197614       0.01779452
Pt       8.42164176       6.48298285      22.29208057        2       0.00345472       0.05799391       0.04051810
Pt       0.00000036      -0.00000034      24.59176396        1      -0.00000198       0.00000131      -0.01549605
Pt       2.79914838      -0.01412692      24.60009014        1      -0.01577581      -0.01933828      -0.01379912
Pt       5.61287470       0.00498509      24.60838599        1       0.02505374      -0.03913771      -0.01026955
Pt       1.40870095       2.42997036      24.60838645        1      -0.04642369      -0.00212353      -0.01027702
Pt       4.21082037       2.43111849      24.65832758        1       0.00000285      -0.00000035      -0.02942055
Pt       7.03430135       2.43119641      24.60009017        1       0.02463512      -0.00399039      -0.01379715
Pt       2.79901278       4.87628555      24.60008933        1      -0.00886095       0.02332975      -0.01379764
Pt       5.61088620       4.85839940      24.60838622        1       0.02137411       0.04126508      -0.01027769
Pt       8.42164159       4.86223736      24.59135502        1      -0.00000200      -0.00000355      -0.01072401
N        4.21082191       2.43111879      26.72026976        0      -0.00010467      -0.00000918       0.04302329
H        3.23952115       2.43128546      27.04136938        0      -0.01739673       0.00119905       0.00291583
H        4.69661569       3.27220472      27.04136733        0       0.00978914       0.01455513       0.00295146
H        4.69632638       1.58986528      27.04136687        0       0.00771188      -0.01574604       0.00294877
