31
Lattice="8.421641763931781 0.0 0.0 4.2108208819658905 7.293355709136913 0.0 0.0 0.0 44.584161137365626" Properties=species:S:1:pos:R:3:tags:I:1:forces:R:3 energy=-173.7161865234375 free_energy=-173.7161865234375 stress="0.010666676796972752 5.230602617700697e-10 1.3678808308270618e-08 5.230602617700697e-10 0.01066673919558525 -1.8786638911194586e-09 1.3678808308270618e-08 -1.8786638911194586e-09 -1.8315761280973675e-06" pbc="T T T"
Pt       1.40360696       0.81037286      20.00000000        3      -0.00303926      -0.00098653      -0.00628436
Pt       4.21082088       0.81037286      20.00000000        3       0.00054147       0.00469171       0.01202166
Pt       7.01803480       0.81037286      20.00000000        3       0.00236902      -0.00214350      -0.00628552
Pt       2.80721392       3.24149143      20.00000000        3       0.00379653      -0.00281453       0.01202056
Pt       5.61442784       3.24149143      20.00000000        3      -0.00433662      -0.00187906       0.01202089
Pt       8.42164176       3.24149143      20.00000000        3       0.00067368      -0.00618670      -0.00957730
Pt       4.21082088       5.67261000      20.00000000        3       0.00067043       0.00312582      -0.00628453
Pt       7.01803480       5.67261000      20.00000000        3      -0.00569633       0.00251403      -0.00957391
Pt       9.82524872       5.67261000      20.00000000        3       0.00502111       0.00367869      -0.00957552
Pt      -0.00000000       1.62074571      22.29208057        2       0.00846357       0.00598542      -0.00398406
Pt       2.80721392       1.62074571      22.29208057        2       0.06540719       0.04310970      -0.02903194
Pt       5.61442784       1.62074571      22.29208057        2      -0.07004161       0.03508660      -0.02903042
Pt       1.40360696       4.05186428      22.29208057        2       0.05128340      -0.03667097       0.02846806
Pt       4.21082088       4.05186428      22.29208057        2       0.00463742      -0.07819812      -0.02902908
Pt       7.01803480       4.05186428      22.29208057        2      -0.05740402      -0.02607319       0.02847235
Pt       2.80721392       6.48298285      22.29208057        2      -0.00941506       0.00433478      -0.00398432
Pt       5.61442784       6.48298285      22.29208057        2       0.00095397      -0.01032413      -0.00398221
Pt       8.42164176       6.48298285      22.29208057        2       0.00611835       0.06274958       0.02846799
Pt       0.00000087       0.00000026      24.58900172        1       0.00000055      -0.00000432      -0.00094020
Pt       2.80009119      -0.00947875      24.59462637        1       0.00212689      -0.00500618       0.01185369
Pt       5.61888401      -0.00565635      24.60592552        1      -0.01109546       0.01446561      -0.00246599
Pt       1.39648113       2.43008861      24.60592539        1       0.01807658       0.00237076      -0.00246367
Pt       4.21082026       2.43111751      24.65974755        1      -0.00000141       0.00000121       0.03697988
Pt       7.02980524       2.42968873      24.59462593        1       0.00326529       0.00434581       0.01185597
Pt       2.80256764       4.87314534      24.59462634        1      -0.00539273       0.00066017       0.01185556
Pt       5.61709908       4.86892308      24.60592576        1      -0.00698251      -0.01683933      -0.00247470
Pt       8.42164294       4.86223718      24.58874903        1      -0.00000774       0.00000277      -0.00018489
N        4.21081736       2.43111795      26.72996609        0       0.00014962       0.00000644      -0.04313225
H        4.69434794       1.58706266      27.04813607        0      -0.00428075       0.00509083       0.00140908
H        3.23808310       2.43439821      27.04813783        0       0.00641152       0.00116516       0.00144522
H        4.70002902       3.27189484      27.04813278        0      -0.00227308      -0.00625878       0.00141401
