31
Lattice="8.421641763931781 0.0 0.0 4.2108208819658905 7.293355709136913 0.0 0.0 0.0 44.584161137365626" Properties=species:S:1:pos:R:3:tags:I:1:forces:R:3 energy=-172.5789794921875 free_energy=-172.5789794921875 stress="0.010473125614225864 1.1488280327043299e-09 -2.3082669997620542e-08 1.1488280327043299e-09 0.010473091155290604 5.381603163101545e-09 -2.3082669997620542e-08 5.381603163101545e-09 -0.00020022987155243754" pbc="T T T"
Pt       1.40360696       0.81037286      20.00000000        3       0.00074793       0.00084589      -0.00204435
Pt       4.21082088       0.81037286      20.00000000        3       0.00000170      -0.00000132      -0.00540119
Pt       7.01803480       0.81037286      20.00000000        3      -0.00079848       0.00067874      -0.00220060
Pt       2.80721392       3.24149143      20.00000000        3      -0.00019042      -0.00103060      -0.00220114
Pt       5.61442784       3.24149143      20.00000000        3       0.00036009      -0.00107052      -0.00204542
Pt       8.42164176       3.24149143      20.00000000        3       0.00000104      -0.00000002       0.00783604
Pt       4.21082088       5.67261000      20.00000000        3       0.00000233       0.00000135      -0.00681636
Pt       7.01803480       5.67261000      20.00000000        3       0.00098542       0.00035137      -0.00220042
Pt       9.82524872       5.67261000      20.00000000        3      -0.00110887       0.00022522      -0.00204542
Pt      -0.00000000       1.62074571      22.29208057        2       0.00152882       0.04198096       0.02925958
Pt       2.80721392       1.62074571      22.29208057        2      -0.03219025       0.01882915      -0.02422131
Pt       5.61442784       1.62074571      22.29208057        2       0.03240037       0.01846287      -0.02422193
Pt       1.40360696       4.05186428      22.29208057        2      -0.03711867      -0.01966889       0.02925977
Pt       4.21082088       4.05186428      22.29208057        2       0.00078626      -0.01329022      -0.03097490
Pt       7.01803480       4.05186428      22.29208057        2       0.03558984      -0.02231311       0.02926163
Pt       2.80721392       6.48298285      22.29208057        2      -0.01190214       0.00596583      -0.03097653
Pt       5.61442784       6.48298285      22.29208057        2       0.01111655       0.00732505      -0.03097724
Pt       8.42164176       6.48298285      22.29208057        2      -0.00021090      -0.03729054      -0.02422259
Pt       0.00056978      -0.00636837      24.57875343        1       0.00298940       0.01932149      -0.00732347
Pt       2.80846394       0.00150253      24.57723242        1      -0.00713322      -0.00009458      -0.00424272
Pt       5.61250134       0.00033107      24.57723238        1       0.00365184      -0.00612873      -0.00424275
Pt       1.41829701       2.42546245      24.58945434        1      -0.01929778       0.01753035       0.00628489
Pt       4.21149725       2.42928475      24.57723248        1       0.00348236       0.00622447      -0.00424260
Pt       7.00579136       2.42122474      24.58945445        1       0.02483247       0.00794535       0.00628440
Pt       2.81244426       4.86591456      24.57875367        1      -0.01822622      -0.00706901      -0.00733191
Pt       5.60862802       4.86492805      24.57875351        1       0.01523741      -0.01225209      -0.00733179
Pt       8.41919500       4.87778726      24.58945455        1      -0.00553684      -0.02547866       0.00628580
N        8.42164077       3.24149172      27.59559744        0       0.00015912      -0.00002672       0.00369921
H        9.36635459       3.23643182      27.19906503        0      -0.02447835      -0.02474538       0.03574114
H        7.94490423       2.42587690      27.19906530        0      -0.00926776       0.03346142       0.03568231
H        7.95366766       4.06216530      27.19906542        0       0.03358715      -0.00868921       0.03567000
