31
Lattice="8.421641763931781 0.0 0.0 4.2108208819658905 7.293355709136913 0.0 0.0 0.0 44.584161137365626" Properties=species:S:1:pos:R:3:tags:I:1:forces:R:3 energy=-173.7161865234375 free_energy=-173.7161865234375 stress="0.010666733607649803 -9.710284132324887e-09 8.448886035239411e-09 -9.710284132324887e-09 0.010666712187230587 5.033349737004755e-09 8.448886035239411e-09 5.033349737004755e-09 -1.7642666989559075e-06" pbc="T T T"
Pt       1.40360696       0.81037286      20.00000000        3      -0.00237116      -0.00214353      -0.00628427
Pt       4.21082088       0.81037286      20.00000000        3      -0.00053702       0.00469132       0.01202288
Pt       7.01803480       0.81037286      20.00000000        3       0.00303687      -0.00098555      -0.00628489
Pt       2.80721392       3.24149143      20.00000000        3       0.00433544      -0.00187929       0.01202157
Pt       5.61442784       3.24149143      20.00000000        3      -0.00379698      -0.00281391       0.01202112
Pt       8.42164176       3.24149143      20.00000000        3      -0.00067112      -0.00618650      -0.00957558
Pt       4.21082088       5.67261000      20.00000000        3      -0.00066654       0.00312563      -0.00628421
Pt       7.01803480       5.67261000      20.00000000        3      -0.00502372       0.00367799      -0.00957590
Pt       9.82524872       5.67261000      20.00000000        3       0.00569341       0.00251377      -0.00957409
Pt      -0.00000000       1.62074571      22.29208057        2      -0.00845843       0.00598732      -0.00397989
Pt       2.80721392       1.62074571      22.29208057        2       0.07003902       0.03508719      -0.02902793
Pt       5.61442784       1.62074571      22.29208057        2      -0.06540850       0.04310889      -0.02902643
Pt       1.40360696       4.05186428      22.29208057        2       0.05740254      -0.02607540       0.02847364
Pt       4.21082088       4.05186428      22.29208057        2      -0.00463343      -0.07819966      -0.02902698
Pt       7.01803480       4.05186428      22.29208057        2      -0.05128406      -0.03667169       0.02847263
Pt       2.80721392       6.48298285      22.29208057        2      -0.00095710      -0.01032197      -0.00397987
Pt       5.61442784       6.48298285      22.29208057        2       0.00941573       0.00433559      -0.00398388
Pt       8.42164176       6.48298285      22.29208057        2      -0.00611356       0.06275126       0.02847097
Pt       0.00000077       0.00000001      24.58900229        1      -0.00000110       0.00000152      -0.00093919
Pt       2.80275890      -0.00565713      24.60592540        1       0.01109201       0.01446821      -0.00246628
Pt       5.62155156      -0.00947775      24.59462652        1      -0.00212654      -0.00500433       0.01184356
Pt       1.39183777       2.42968913      24.59462646        1      -0.00327048       0.00434228       0.01184386
Pt       4.21082004       2.43111745      24.65974728        1      -0.00000094      -0.00000030       0.03703168
Pt       7.02516158       2.43008866      24.60592549        1      -0.01807832       0.00237317      -0.00246575
Pt       2.80454358       4.86892417      24.60592562        1       0.00698202      -0.01684162      -0.00247437
Pt       5.61907457       4.87314483      24.59462632        1       0.00539741       0.00065742       0.01185226
Pt       8.42164233       4.86223776      24.58874879        1      -0.00000042      -0.00000268      -0.00018623
N        4.21081824       2.43111670      26.72997069        0       0.00009556       0.00007033      -0.04324108
H        3.72161092       3.27189467      27.04813568        0       0.00223680      -0.00620781       0.00143924
H        5.18355884       2.43439819      27.04813452        0      -0.00654711       0.00115905       0.00142815
H        3.72729138       1.58706291      27.04813895        0       0.00421961       0.00498335       0.00145502
