31
Lattice="8.421641763931781 0.0 0.0 4.2108208819658905 7.293355709136913 0.0 0.0 0.0 44.584161137365626" Properties=species:S:1:pos:R:3:tags:I:1:forces:R:3 energy=-172.64517211914062 free_energy=-172.64517211914062 stress="0.010424398817121983 -1.2882893640764337e-09 -8.597505485319346e-10 -1.2882893640764337e-09 0.010424398817121983 4.96533170135649e-09 -8.597505485319346e-10 4.96533170135649e-09 -8.784963938524015e-06" pbc="T T T"
Pt       1.40360696       0.81037286      20.00000000        3       0.00000119       0.00398758       0.00066850
Pt       4.21082088       0.81037286      20.00000000        3       0.00203480       0.00117254       0.00089771
Pt       7.01803480       0.81037286      20.00000000        3      -0.00203554       0.00117167       0.00089625
Pt       2.80721392       3.24149143      20.00000000        3      -0.00027224       0.00015755       0.02934349
Pt       5.61442784       3.24149143      20.00000000        3      -0.00000238      -0.00234784       0.00089619
Pt       8.42164176       3.24149143      20.00000000        3       0.00027496       0.00015828       0.02934277
Pt       4.21082088       5.67261000      20.00000000        3      -0.00345300      -0.00199372       0.00066820
Pt       7.01803480       5.67261000      20.00000000        3       0.00345308      -0.00199226       0.00066698
Pt       9.82524872       5.67261000      20.00000000        3      -0.00000106      -0.00031308       0.02934328
Pt      -0.00000000       1.62074571      22.29208057        2       0.07618725       0.08602807      -0.01590226
Pt       2.80721392       1.62074571      22.29208057        2      -0.07618512       0.08602903      -0.01590336
Pt       5.61442784       1.62074571      22.29208057        2      -0.00000153      -0.00000131      -0.06579401
Pt       1.40360696       4.05186428      22.29208057        2       0.00000109      -0.00000017       0.00991599
Pt       4.21082088       4.05186428      22.29208057        2      -0.11259624       0.02296324      -0.01590232
Pt       7.01803480       4.05186428      22.29208057        2       0.11259424       0.02296344      -0.01590112
Pt       2.80721392       6.48298285      22.29208057        2      -0.03641061      -0.10899295      -0.01590234
Pt       5.61442784       6.48298285      22.29208057        2      -0.00000177       0.00000138      -0.07842177
Pt       8.42164176       6.48298285      22.29208057        2       0.03641237      -0.10899135      -0.01590396
Pt       0.00172879      -0.00099797      24.55968855        1       0.00141750      -0.00081952       0.02566653
Pt       2.80548560      -0.00099807      24.55968909        1      -0.00141954      -0.00082021       0.02566743
Pt       5.61442780       0.00666442      24.58204421        1       0.00000173      -0.00462525      -0.00813200
Pt       1.40360706       2.40933293      24.62282297        1       0.00000075       0.01740157       0.04149212
Pt       4.21659278       2.42778597      24.58204456        1      -0.00400688       0.00231298      -0.00813283
Pt       7.01226283       2.42778610      24.58204451        1       0.00400632       0.00231206      -0.00813256
Pt       2.82608092       4.87312986      24.62282316        1      -0.01507100      -0.00870071       0.04149143
Pt       5.61442774       4.86423275      24.55968877        1       0.00000166       0.00163966       0.02566721
Pt       8.40277453       4.87312984      24.62282300        1       0.01506964      -0.00870086       0.04149146
N        9.82524830       4.05186455      26.88201409        0       0.00000353      -0.00002422      -0.01730563
H        9.03094487       3.59327291      26.36755073        0      -0.01716915      -0.00991264      -0.00759071
H        9.82524835       4.96904707      26.36755065        0       0.00000095       0.01984634      -0.00760162
H       10.61955288       3.59327263      26.36755032        0       0.01716495      -0.00990921      -0.00758886
