31
Lattice="8.421641763931781 0.0 0.0 4.2108208819658905 7.293355709136913 0.0 0.0 0.0 44.584161137365626" Properties=species:S:1:pos:R:3:tags:I:1:forces:R:3 energy=-172.5950164794922 free_energy=-172.5950164794922 stress="0.010540777817368507 3.833547257414693e-09 -2.7726212437073627e-08 3.833547257414693e-09 0.010540790855884552 -1.229769841515349e-09 -2.7726212437073627e-08 -1.229769841515349e-09 -0.00010158486111322418" pbc="T T T"
Pt       1.40360696       0.81037286      20.00000000        3       0.00033679       0.00056091      -0.00361872
Pt       4.21082088       0.81037286      20.00000000        3       0.00000137      -0.00000186      -0.00804219
Pt       7.01803480       0.81037286      20.00000000        3      -0.00033823       0.00056081      -0.00362042
Pt       2.80721392       3.24149143      20.00000000        3      -0.00031860      -0.00057299      -0.00362068
Pt       5.61442784       3.24149143      20.00000000        3       0.00031777      -0.00057260      -0.00362000
Pt       8.42164176       3.24149143      20.00000000        3       0.00000146       0.00000089       0.00279877
Pt       4.21082088       5.67261000      20.00000000        3       0.00000236       0.00000177      -0.00901800
Pt       7.01803480       5.67261000      20.00000000        3       0.00065377       0.00001220      -0.00362080
Pt       9.82524872       5.67261000      20.00000000        3      -0.00065715       0.00001182      -0.00362039
Pt      -0.00000000       1.62074571      22.29208057        2       0.00000206       0.02752329       0.02986915
Pt       2.80721392       1.62074571      22.29208057        2      -0.02764844       0.01596132      -0.01667952
Pt       5.61442784       1.62074571      22.29208057        2       0.02764628       0.01596101      -0.01667865
Pt       1.40360696       4.05186428      22.29208057        2      -0.02383842      -0.01376464       0.02986705
Pt       4.21082088       4.05186428      22.29208057        2       0.00000073      -0.01516553      -0.02844993
Pt       7.01803480       4.05186428      22.29208057        2       0.02383768      -0.01376448       0.02986831
Pt       2.80721392       6.48298285      22.29208057        2      -0.01313033       0.00758406      -0.02845069
Pt       5.61442784       6.48298285      22.29208057        2       0.01312902       0.00758486      -0.02845098
Pt       8.42164176       6.48298285      22.29208057        2       0.00000079      -0.03192271      -0.01668002
Pt       0.00000026      -0.00781511      24.57844270        1       0.00000071       0.04039139       0.01039022
Pt       2.81157231       0.00251583      24.57790552        1      -0.02782947      -0.01606726       0.01101342
Pt       5.61006972       0.00251539      24.57790491        1       0.02782903      -0.01606442       0.01101318
Pt       1.40627413       2.42957796      24.59062854        1       0.02003612      -0.01156737       0.00457050
Pt       4.21082045       2.42608515      24.57790561        1       0.00000084       0.03213751       0.01101252
Pt       7.01536718       2.42957818      24.59062819        1      -0.02003368      -0.01156920       0.00457083
Pt       2.81398101       4.86614440      24.57844195        1      -0.03497557      -0.02019832       0.01040074
Pt       5.60766148       4.86614390      24.57844235        1       0.03497322      -0.02019503       0.01039973
Pt       8.42164140       4.86531677      24.59062791        1       0.00000102       0.02313464       0.00457053
N        8.42163847       3.24149186      27.94718807        0       0.00018220      -0.00001030      -0.00694352
H        7.60665212       3.71202815      27.54979949        0       0.00664303      -0.00386555       0.00354441
H        9.23663092       3.71202340      27.54979786        0      -0.00677255      -0.00387859       0.00363231
H        8.42164562       2.30042236      27.54979864        0      -0.00005364       0.00775467       0.00359289
