31
Lattice="8.421641763931781 0.0 0.0 4.2108208819658905 7.293355709136913 0.0 0.0 0.0 44.584161137365626" Properties=species:S:1:pos:R:3:tags:I:1:forces:R:3 energy=-172.57716369628906 free_energy=-172.57716369628906 stress="0.010478967800736427 3.6856533380813516e-09 -4.298752742659673e-10 3.6856533380813516e-09 0.010478978976607323 -1.145427197535298e-09 -4.298752742659673e-10 -1.145427197535298e-09 -0.0001822078338591382" pbc="T T T"
Pt       1.40360696       0.81037286      20.00000000        3       0.00008896       0.00047736      -0.00420764
Pt       4.21082088       0.81037286      20.00000000        3       0.00091455       0.00070305      -0.00487056
Pt       7.01803480       0.81037286      20.00000000        3      -0.00106861       0.00043593      -0.00487158
Pt       2.80721392       3.24149143      20.00000000        3      -0.00004029       0.00008995       0.00331858
Pt       5.61442784       3.24149143      20.00000000        3       0.00015097      -0.00114277      -0.00487110
Pt       8.42164176       3.24149143      20.00000000        3       0.00010078      -0.00000861       0.00331795
Pt       4.21082088       5.67261000      20.00000000        3      -0.00045772      -0.00016245      -0.00420797
Pt       7.01803480       5.67261000      20.00000000        3       0.00036940      -0.00031335      -0.00420952
Pt       9.82524872       5.67261000      20.00000000        3      -0.00005832      -0.00007847       0.00331914
Pt      -0.00000000       1.62074571      22.29208057        2       0.02727104       0.03339130      -0.00388933
Pt       2.80721392       1.62074571      22.29208057        2      -0.02598225       0.03246849      -0.00567508
Pt       5.61442784       1.62074571      22.29208057        2      -0.00000222      -0.00000159      -0.05327027
Pt       1.40360696       4.05186428      22.29208057        2       0.00000114      -0.00000012       0.05031646
Pt       4.21082088       4.05186428      22.29208057        2      -0.04255349       0.00691893      -0.00389012
Pt       7.01803480       4.05186428      22.29208057        2       0.04110885       0.00626678      -0.00567433
Pt       2.80721392       6.48298285      22.29208057        2      -0.01512751      -0.03873588      -0.00567493
Pt       5.61442784       6.48298285      22.29208057        2      -0.00000208       0.00000200      -0.03515423
Pt       8.42164176       6.48298285      22.29208057        2       0.01528597      -0.04030924      -0.00389122
Pt       0.00188948      -0.00020526      24.57707681        1      -0.00315317       0.00670818      -0.00708479
Pt       2.80609171      -0.00153363      24.57707679        1       0.00738587      -0.00062437      -0.00708389
Pt       5.61393253       0.00689208      24.57902285        1      -0.00323578      -0.01788405      -0.00410765
Pt       1.40619852       2.41651355      24.58942594        1       0.00550721       0.02317783       0.00538442
Pt       4.21703722       2.42810133      24.57902262        1      -0.01386964       0.01174474      -0.00410786
Pt       7.01231340       2.42724384      24.57902276        1       0.01710720       0.00613606      -0.00410619
Pt       2.81856666       4.87178369      24.58942599        1      -0.02282487      -0.00681647       0.00538500
Pt       5.61366082       4.86397587      24.57707687        1      -0.00423424      -0.00608415      -0.00708356
Pt       8.40769754       4.86729553      24.58942609        1       0.01731810      -0.01635920       0.00538521
N        9.82524848       4.05186414      27.59415607        0       0.00000165       0.00002597       0.00236514
H        8.88013197       4.05669550      27.19876074        0       0.02401230       0.02385940       0.03304618
H       10.30199103       4.86794410      27.19876054        0       0.00864652      -0.03273967       0.03305281
H       10.29362322       3.23095337      27.19876061        0      -0.03266040       0.00885424       0.03304069
