31
Lattice="8.421641763931781 0.0 0.0 4.2108208819658905 7.293355709136913 0.0 0.0 0.0 44.584161137365626" Properties=species:S:1:pos:R:3:tags:I:1:forces:R:3 energy=-172.80897521972656 free_energy=-172.80897521972656 stress="0.01030085887759924 -2.4298545397982707e-09 -8.571445775373832e-09 -2.4298545397982707e-09 0.010232995264232159 -1.3947493471277994e-06 -8.571445775373832e-09 -1.3947493471277994e-06 -5.052770575275645e-06" pbc="T T T"
Pt       1.40360696       0.81037286      20.00000000        3       0.00000108      -0.00011777      -0.00896913
Pt       4.21082088       0.81037286      20.00000000        3      -0.00242951       0.00340407       0.00406545
Pt       7.01803480       0.81037286      20.00000000        3       0.00242861       0.00340299       0.00406381
Pt       2.80721392       3.24149143      20.00000000        3       0.00232783      -0.00312675       0.00241080
Pt       5.61442784       3.24149143      20.00000000        3      -0.00000182      -0.00120912       0.03430647
Pt       8.42164176       3.24149143      20.00000000        3      -0.00232511      -0.00312546       0.00240907
Pt       4.21082088       5.67261000      20.00000000        3       0.00266595       0.00147570      -0.00206819
Pt       7.01803480       5.67261000      20.00000000        3      -0.00266605       0.00147716      -0.00206855
Pt       9.82524872       5.67261000      20.00000000        3      -0.00000167       0.00015094      -0.01603529
Pt      -0.00000000       1.62074571      22.29208057        2      -0.15952633       0.09021662       0.05009443
Pt       2.80721392       1.62074571      22.29208057        2       0.15953137       0.09021864       0.05009444
Pt       5.61442784       1.62074571      22.29208057        2      -0.00000400       0.12730452       0.05075221
Pt       1.40360696       4.05186428      22.29208057        2       0.00000136      -0.04128045      -0.07620168
Pt       4.21082088       4.05186428      22.29208057        2       0.08928485      -0.09925331       0.03362886
Pt       7.01803480       4.05186428      22.29208057        2      -0.08928701      -0.09925076       0.03362983
Pt       2.80721392       6.48298285      22.29208057        2       0.02881793       0.02122442      -0.07853766
Pt       5.61442784       6.48298285      22.29208057        2      -0.00000144      -0.11913221      -0.02880628
Pt       8.42164176       6.48298285      22.29208057        2      -0.02881702       0.02122675      -0.07853800
Pt       0.00585413      -0.00609571      24.56456159        1      -0.00775059       0.01023153       0.00390619
Pt       2.80136007      -0.00609537      24.56456187        1       0.00774976       0.01022811       0.00390571
Pt       5.61442767      -0.02053408      24.56471747        1       0.00000070      -0.00120079       0.01160870
Pt       1.40360723       2.42880343      24.56195687        1      -0.00000239      -0.01936001       0.00477600
Pt       4.18664779       2.41146293      24.62122070        1       0.00103781       0.00137027      -0.00541007
Pt       7.04220715       2.41146311      24.62122031        1      -0.00103588       0.00136976      -0.00539982
Pt       2.80251073       4.86074972      24.56711387        1      -0.00144635       0.00196044       0.00480635
Pt       5.61442757       4.88459618      24.60123050        1       0.00000142      -0.00238330       0.01020764
Pt       8.42634494       4.86074980      24.56711331        1       0.00144635       0.00196018       0.00480568
N        5.61442767       3.01417800      26.92569224        0       0.00005036      -0.02260521       0.02498782
H        5.61442953       3.93030556      26.43662432        0      -0.00001480       0.01225770      -0.02104701
H        6.43827999       2.50773348      26.54854042        0       0.00002700       0.00628582      -0.00567921
H        4.79057751       2.50773217      26.54854046        0      -0.00006241       0.00627976      -0.00569877
