31
Lattice="8.421641763931781 0.0 0.0 4.2108208819658905 7.293355709136913 0.0 0.0 0.0 44.584161137365626" Properties=species:S:1:pos:R:3:tags:I:1:forces:R:3 energy=-173.710693359375 free_energy=-173.710693359375 stress="0.010916241444647312 6.978341904329e-09 -1.4460678210426181e-09 6.978341904329e-09 0.010916206054389477 1.4985777951892487e-08 -1.4460678210426181e-09 1.4985777951892487e-08 0.00022648378217127174" pbc="T T T"
Pt       1.40360696       0.81037286      20.00000000        3      -0.00238362      -0.00137970      -0.00228941
Pt       4.21082088       0.81037286      20.00000000        3       0.00000192       0.00388470       0.01204747
Pt       7.01803480       0.81037286      20.00000000        3       0.00238176      -0.00137928      -0.00228941
Pt       2.80721392       3.24149143      20.00000000        3       0.00336699      -0.00194355       0.01204559
Pt       5.61442784       3.24149143      20.00000000        3      -0.00336745      -0.00194286       0.01204684
Pt       8.42164176       3.24149143      20.00000000        3       0.00000100      -0.00614453      -0.00583896
Pt       4.21082088       5.67261000      20.00000000        3       0.00000249       0.00275468      -0.00229010
Pt       7.01803480       5.67261000      20.00000000        3      -0.00532399       0.00307490      -0.00583684
Pt       9.82524872       5.67261000      20.00000000        3       0.00532085       0.00307541      -0.00583711
Pt      -0.00000000       1.62074571      22.29208057        2       0.00000222       0.00391567       0.04122549
Pt       2.80721392       1.62074571      22.29208057        2       0.05054823       0.02917796      -0.00922997
Pt       5.61442784       1.62074571      22.29208057        2      -0.05054845       0.02917998      -0.00922845
Pt       1.40360696       4.05186428      22.29208057        2       0.04816123      -0.02780440       0.06554846
Pt       4.21082088       4.05186428      22.29208057        2       0.00000289      -0.05836609      -0.00923024
Pt       7.01803480       4.05186428      22.29208057        2      -0.04816322      -0.02780445       0.06554961
Pt       2.80721392       6.48298285      22.29208057        2      -0.00339504      -0.00195747       0.04122563
Pt       5.61442784       6.48298285      22.29208057        2       0.00339436      -0.00195571       0.04122449
Pt       8.42164176       6.48298285      22.29208057        2       0.00000168       0.05561603       0.06555028
Pt       0.00000013      -0.00000031      24.60033448        1       0.00000188       0.00000002      -0.04961431
Pt       2.80203331      -0.00740835      24.61113105        1      -0.01068076      -0.00516616      -0.04277939
Pt       5.61960934      -0.00740883      24.61113074        1       0.01068193      -0.00516619      -0.04277878
Pt       1.39460203       2.43033571      24.61112957        1      -0.00981797      -0.00666819      -0.04276989
Pt       4.21082240       2.43111866      24.65481693        1      -0.00001078      -0.00000443      -0.00601295
Pt       7.02704289       2.43033607      24.61113019        1       0.00981102      -0.00666752      -0.04277068
Pt       2.80338932       4.87042781      24.61113057        1       0.00086671       0.01183687      -0.04277098
Pt       5.61825420       4.87042931      24.61113031        1      -0.00086829       0.01182847      -0.04277053
Pt       8.42164192       4.86223756      24.60026345        1       0.00000076       0.00000018      -0.04451686
N        4.21081693       2.43111579      26.71808970        0       0.00004673       0.00015864       0.04769599
H        4.21081919       1.45905751      27.03902422        0       0.00000033       0.02890180       0.00159366
H        3.36898930       2.91714889      27.03902737        0       0.02513142      -0.01451702       0.00154340
H        5.05264923       2.91714918      27.03901904        0      -0.02516679      -0.01453780       0.00155760
