31
Lattice="8.421641763931781 0.0 0.0 4.2108208819658905 7.293355709136913 0.0 0.0 0.0 44.584161137365626" Properties=species:S:1:pos:R:3:tags:I:1:forces:R:3 energy=-172.65139770507812 free_energy=-172.65139770507812 stress="0.010359590873122215 2.648921915149316e-10 -4.3951309258716265e-09 2.648921915149316e-10 0.010359599255025387 -3.3682632238907217e-09 -4.3951309258716265e-09 -3.3682632238907217e-09 -4.089008871233091e-05" pbc="T T T"
Pt       1.40360696       0.81037286      20.00000000        3       0.00129194       0.00270149       0.00972703
Pt       4.21082088       0.81037286      20.00000000        3       0.00000133      -0.00000157      -0.00685394
Pt       7.01803480       0.81037286      20.00000000        3      -0.00129314       0.00270193       0.00972581
Pt       2.80721392       3.24149143      20.00000000        3      -0.00169537      -0.00247086       0.00972551
Pt       5.61442784       3.24149143      20.00000000        3       0.00169431      -0.00247048       0.00972557
Pt       8.42164176       3.24149143      20.00000000        3       0.00000118       0.00000012       0.04421684
Pt       4.21082088       5.67261000      20.00000000        3       0.00000254       0.00000174      -0.00171134
Pt       7.01803480       5.67261000      20.00000000        3       0.00298549      -0.00023125       0.00972566
Pt       9.82524872       5.67261000      20.00000000        3      -0.00298843      -0.00023113       0.00972566
Pt      -0.00000000       1.62074571      22.29208057        2       0.00000293       0.08691545      -0.02148104
Pt       2.80721392       1.62074571      22.29208057        2      -0.12750320       0.07361028      -0.01448387
Pt       5.61442784       1.62074571      22.29208057        2       0.12750095       0.07361315      -0.01448673
Pt       1.40360696       4.05186428      22.29208057        2      -0.07527278      -0.04345951      -0.02148064
Pt       4.21082088       4.05186428      22.29208057        2       0.00000146      -0.00805935      -0.05044039
Pt       7.01803480       4.05186428      22.29208057        2       0.07527059      -0.04345840      -0.02148051
Pt       2.80721392       6.48298285      22.29208057        2      -0.00697854       0.00403058      -0.05044070
Pt       5.61442784       6.48298285      22.29208057        2       0.00697989       0.00403250      -0.05043907
Pt       8.42164176       6.48298285      22.29208057        2      -0.00000144      -0.14722459      -0.01448447
Pt       0.00000018      -0.00376779      24.58110112        1       0.00000105       0.00321543      -0.00503205
Pt       2.81067495       0.00199814      24.56004474        1      -0.00292336      -0.00168824       0.02771060
Pt       5.61096690       0.00199809      24.56004419        1       0.00292250      -0.00168792       0.02772126
Pt       1.42969075       2.41605890      24.61787433        1      -0.01592482       0.00919431       0.04070061
Pt       4.21082089       2.42712214      24.56004426        1       0.00000093       0.00337541       0.02772041
Pt       6.99195083       2.41605894      24.61787455        1       0.01592398       0.00919417       0.04069981
Pt       2.81047669       4.86412088      24.58110113        1      -0.00278489      -0.00160809      -0.00503126
Pt       5.61116500       4.86412084      24.58110135        1       0.00278395      -0.00160772      -0.00503145
Pt       8.42164170       4.89235603      24.61787438        1       0.00000127      -0.01838757       0.04070082
N        8.42164159       3.24149119      26.85605791        0       0.00002645       0.00002006      -0.01855627
H        7.62665362       3.70047787      26.34043865        0      -0.01131226       0.00652757      -0.00213489
H        9.21663030       3.70047860      26.34043819        0       0.01128763       0.00651643      -0.00211975
H        8.42164201       2.32351828      26.34043843        0      -0.00000226      -0.01306401      -0.00213736
