31
Lattice="8.421641763931781 0.0 0.0 4.2108208819658905 7.293355709136913 0.0 0.0 0.0 44.584161137365626" Properties=species:S:1:pos:R:3:tags:I:1:forces:R:3 energy=-172.80886840820312 free_energy=-172.80886840820312 stress="0.010305318981409073 -2.1834863218828104e-05 4.1987388499364897e-07 -2.1834863218828104e-05 0.01033051684498787 2.408017394373019e-07 4.1987388499364897e-07 2.408017394373019e-07 8.431366950389929e-06" pbc="T T T"
Pt       1.40360696       0.81037286      20.00000000        3       0.00041476       0.00381803      -0.00013128
Pt       4.21082088       0.81037286      20.00000000        3       0.00130556       0.00075147      -0.00881180
Pt       7.01803480       0.81037286      20.00000000        3      -0.00152668       0.00026197      -0.00968245
Pt       2.80721392       3.24149143      20.00000000        3      -0.00092545      -0.00141680       0.01716664
Pt       5.61442784       3.24149143      20.00000000        3      -0.00053561      -0.00145221      -0.00968269
Pt       8.42164176       3.24149143      20.00000000        3       0.00160412       0.00092593       0.02361977
Pt       4.21082088       5.67261000      20.00000000        3      -0.00174413      -0.00100684      -0.00764760
Pt       7.01803480       5.67261000      20.00000000        3       0.00351389      -0.00154931      -0.00013396
Pt       9.82524872       5.67261000      20.00000000        3      -0.00169065      -0.00009237       0.01716635
Pt      -0.00000000       1.62074571      22.29208057        2       0.13442315       0.09835243       0.01990775
Pt       2.80721392       1.62074571      22.29208057        2      -0.14300151       0.09631592       0.02985846
Pt       5.61442784       1.62074571      22.29208057        2      -0.00348709      -0.00201367      -0.11545324
Pt       1.40360696       4.05186428      22.29208057        2      -0.03031310      -0.01750319       0.08498047
Pt       4.21082088       4.05186428      22.29208057        2      -0.10978866       0.02900825      -0.02290765
Pt       7.01803480       4.05186428      22.29208057        2       0.15238595       0.06723405       0.01990686
Pt       2.80721392       6.48298285      22.29208057        2      -0.02977185      -0.10958393      -0.02290778
Pt       5.61442784       6.48298285      22.29208057        2       0.01390125       0.00802957      -0.06293897
Pt       8.42164176       6.48298285      22.29208057        2       0.01191415      -0.17199898       0.02985637
Pt      -0.00008390      -0.00447356      24.56366474        1       0.00398191       0.01117231       0.00246969
Pt       2.80830633       0.00062920      24.56180297        1      -0.01167678      -0.00673239       0.00301428
Pt       5.61349242       0.00744753      24.56870256        1       0.00197005      -0.00027811       0.00529635
Pt       1.40519814       2.41065347      24.62482076        1      -0.00001359      -0.00106756      -0.00750325
Pt       4.21680324       2.42658468      24.56870295        1       0.00074282       0.00184088       0.00529572
Pt       7.00399669       2.42301398      24.56554124        1      -0.00259747      -0.00150254       0.01330566
Pt       2.82630019       4.87325642      24.60324861        1      -0.00105419      -0.00060660       0.01187642
Pt       5.61051230       4.86440056      24.56366444        1       0.01166178      -0.00213724       0.00247014
Pt       8.40471377       4.87384760      24.62482042        1      -0.00092328       0.00051748      -0.00749554
N        9.63082041       3.93961296      26.94624837        0      -0.02442451      -0.01410388       0.01649529
H        8.78189743       4.39832918      26.56310839        0       0.00741459       0.00869065      -0.00306746
H       10.42217281       4.39649725      26.45244351        0       0.00702685       0.00408099      -0.02126289
H        9.60361973       2.97506729      26.56310673        0       0.01121378       0.00204562      -0.00305987
