31
Lattice="8.421641763931781 0.0 0.0 4.2108208819658905 7.293355709136913 0.0 0.0 0.0 44.584161137365626" Properties=species:S:1:pos:R:3:tags:I:1:forces:R:3 energy=-173.70989990234375 free_energy=-173.70989990234375 stress="0.01081392727792263 1.9666663853001864e-09 -2.191923753613878e-09 1.9666663853001864e-09 0.010813950560986996 9.002213974262929e-10 -2.191923753613878e-09 9.002213974262929e-10 0.00012008281919406727" pbc="T T T"
Pt       1.40360696       0.81037286      20.00000000        3      -0.00296128      -0.00171273      -0.00427189
Pt       4.21082088       0.81037286      20.00000000        3       0.00000181       0.00447928       0.01262966
Pt       7.01803480       0.81037286      20.00000000        3       0.00295938      -0.00171231      -0.00427219
Pt       2.80721392       3.24149143      20.00000000        3       0.00388255      -0.00224054       0.01262787
Pt       5.61442784       3.24149143      20.00000000        3      -0.00388295      -0.00224051       0.01262772
Pt       8.42164176       3.24149143      20.00000000        3       0.00000156      -0.00572871      -0.00772512
Pt       4.21082088       5.67261000      20.00000000        3       0.00000210       0.00342123      -0.00427228
Pt       7.01803480       5.67261000      20.00000000        3      -0.00496381       0.00286682      -0.00772423
Pt       9.82524872       5.67261000      20.00000000        3       0.00496055       0.00286759      -0.00772378
Pt      -0.00000000       1.62074571      22.29208057        2       0.00000155       0.00215696       0.02037201
Pt       2.80721392       1.62074571      22.29208057        2       0.06378047       0.03682203      -0.01406535
Pt       5.61442784       1.62074571      22.29208057        2      -0.06378175       0.03682206      -0.01406572
Pt       1.40360696       4.05186428      22.29208057        2       0.04977855      -0.02873871       0.04723085
Pt       4.21082088       4.05186428      22.29208057        2       0.00000136      -0.07364681      -0.01406520
Pt       7.01803480       4.05186428      22.29208057        2      -0.04978037      -0.02873871       0.04723059
Pt       2.80721392       6.48298285      22.29208057        2      -0.00186937      -0.00107881       0.02037201
Pt       5.61442784       6.48298285      22.29208057        2       0.00186837      -0.00107871       0.02037057
Pt       8.42164176       6.48298285      22.29208057        2       0.00000082       0.05748068       0.04722897
Pt       0.00000024      -0.00000020      24.59749800        1      -0.00000117      -0.00000194      -0.03699434
Pt       2.80279339      -0.00784107      24.60512663        1      -0.00181531       0.00154623      -0.01533286
Pt       5.61884846      -0.00784111      24.60512660        1       0.00181656       0.00154543      -0.01533319
Pt       1.39460663       2.43121029      24.60512737        1       0.00043076      -0.00234396      -0.01533322
Pt       4.21082085       2.43111810      24.66416221        1      -0.00000016       0.00000081      -0.02246305
Pt       7.02703531       2.43121028      24.60512760        1      -0.00043134      -0.00234557      -0.01533158
Pt       2.80263426       4.86998574      24.60512699        1       0.00224577       0.00079953      -0.01533315
Pt       5.61900760       4.86998580      24.60512681        1      -0.00224718       0.00079923      -0.01533285
Pt       8.42164125       4.86223711      24.59664148        1       0.00000201      -0.00000010      -0.03495359
N        4.21082062       2.43111841      26.72911308        0      -0.00000188       0.00001240       0.01968122
H        5.05177828       1.94559189      27.05108263        0      -0.00082321       0.00047520       0.00141034
H        3.36986371       1.94559177      27.05108448        0       0.00082624       0.00047736       0.00140610
H        4.21082106       3.40217281      27.05108235        0      -0.00000051      -0.00096463       0.00140578
