31
Lattice="8.421641763931781 0.0 0.0 4.2108208819658905 7.293355709136913 0.0 0.0 0.0 44.584161137365626" Properties=species:S:1:pos:R:3:tags:I:1:forces:R:3 energy=-172.57989501953125 free_energy=-172.57989501953125 stress="0.010525928810238838 4.703353624790907e-05 5.855141716892831e-05 4.703353624790907e-05 0.010471643880009651 3.379789995960891e-05 5.855141716892831e-05 3.379789995960891e-05 -0.00013547763228416443" pbc="T T T"
Pt       1.40360696       0.81037286      20.00000000        3      -0.00061345       0.00213002      -0.00299227
Pt       4.21082088       0.81037286      20.00000000        3       0.00014502       0.00008108      -0.00903231
Pt       7.01803480       0.81037286      20.00000000        3      -0.00100495       0.00141521      -0.00500444
Pt       2.80721392       3.24149143      20.00000000        3      -0.00164450      -0.00120221       0.00114819
Pt       5.61442784       3.24149143      20.00000000        3       0.00072410      -0.00157761      -0.00500432
Pt       8.42164176       3.24149143      20.00000000        3       0.00143662       0.00082901       0.01389819
Pt       4.21082088       5.67261000      20.00000000        3      -0.00060112      -0.00034665      -0.00966072
Pt       7.01803480       5.67261000      20.00000000        3       0.00153792      -0.00159571      -0.00299323
Pt       9.82524872       5.67261000      20.00000000        3      -0.00186482      -0.00082173       0.00114897
Pt      -0.00000000       1.62074571      22.29208057        2       0.03827970       0.06413457       0.02288171
Pt       2.80721392       1.62074571      22.29208057        2      -0.05150458       0.04289693      -0.00485830
Pt       5.61442784       1.62074571      22.29208057        2       0.03183892       0.01838204      -0.03857368
Pt       1.40360696       4.05186428      22.29208057        2      -0.04868861      -0.02811159       0.04124944
Pt       4.21082088       4.05186428      22.29208057        2      -0.01980648      -0.01047406      -0.03542180
Pt       7.01803480       4.05186428      22.29208057        2       0.07467993       0.00108185       0.02288303
Pt       2.80721392       6.48298285      22.29208057        2      -0.01897348      -0.01191580      -0.03542190
Pt       5.61442784       6.48298285      22.29208057        2       0.01025402       0.00592221      -0.04683221
Pt       8.42164176       6.48298285      22.29208057        2       0.01139923      -0.06605118      -0.00485866
Pt      -0.00154404      -0.00184396      24.57164947        1       0.00867180      -0.01877788       0.02614495
Pt       2.80719706      -0.00001000      24.56783199        1       0.00796875       0.00460079       0.03424075
Pt       5.62024810       0.01092626      24.57383887        1      -0.00109607       0.00844337       0.01765141
Pt       1.41977811       2.42112040      24.60467252        1       0.00120104      -0.00040411      -0.03185968
Pt       4.22319367       2.43069548      24.57383907        1       0.00676478      -0.00516956       0.01765177
Pt       7.02910953       2.43751245      24.59023769        1      -0.03295794      -0.01902599      -0.01324178
Pt       2.80728681       4.86227917      24.57686692        1       0.03598335       0.02077433       0.01433825
Pt       5.61205866       4.86182172      24.57164981        1      -0.01192343       0.01689753       0.02614555
Pt       8.42106868       4.88124086      24.60467339        1       0.00024724       0.00124051      -0.03185892
N        9.12246250       3.64611004      27.59995567        0       0.00035173       0.00024232       0.01547164
H        8.28916238       3.16500430      27.25214928        0      -0.00111380      -0.00064186       0.03855076
H        9.10809598       4.58521687      27.19199387        0      -0.01610807      -0.01797199      -0.00788693
H        9.92856856       3.16411583      27.19199423        0      -0.02358280      -0.00498369      -0.00790348
