31
Lattice="8.421641763931781 0.0 0.0 4.2108208819658905 7.293355709136913 0.0 0.0 0.0 44.584161137365626" Properties=species:S:1:pos:R:3:tags:I:1:forces:R:3 energy=-172.80453491210938 free_energy=-172.80453491210938 stress="0.010308956727385521 1.2357554091124712e-08 -1.213989531123616e-08 1.2357554091124712e-08 0.010308967903256416 -8.556694797157149e-10 -1.213989531123616e-08 -8.556694797157149e-10 -2.4744425900280476e-05" pbc="T T T"
Pt       1.40360696       0.81037286      20.00000000        3       0.00024571       0.00310497      -0.00555575
Pt       4.21082088       0.81037286      20.00000000        3       0.00189982       0.00057263      -0.00842443
Pt       7.01803480       0.81037286      20.00000000        3      -0.00144829       0.00135472      -0.00842571
Pt       2.80721392       3.24149143      20.00000000        3      -0.00007416      -0.00009924       0.01854774
Pt       5.61442784       3.24149143      20.00000000        3      -0.00045363      -0.00193040      -0.00842479
Pt       8.42164176       3.24149143      20.00000000        3      -0.00004679       0.00011518       0.01854640
Pt       4.21082088       5.67261000      20.00000000        3      -0.00281111      -0.00134061      -0.00555441
Pt       7.01803480       5.67261000      20.00000000        3       0.00256630      -0.00176372      -0.00555554
Pt       9.82524872       5.67261000      20.00000000        3       0.00012238      -0.00001330       0.01854649
Pt      -0.00000000       1.62074571      22.29208057        2       0.10751771       0.10099678       0.00855020
Pt       2.80721392       1.62074571      22.29208057        2      -0.11438869       0.09612116       0.00601291
Pt       5.61442784       1.62074571      22.29208057        2      -0.00000221       0.00000152      -0.10865885
Pt       1.40360696       4.05186428      22.29208057        2       0.00000310      -0.00000143       0.08440197
Pt       4.21082088       4.05186428      22.29208057        2      -0.14122230       0.04261375       0.00855234
Pt       7.01803480       4.05186428      22.29208057        2       0.14043121       0.05100470       0.00601802
Pt       2.80721392       6.48298285      22.29208057        2      -0.02604411      -0.14712639       0.00601131
Pt       5.61442784       6.48298285      22.29208057        2      -0.00000237      -0.00000249      -0.08293086
Pt       8.42164176       6.48298285      22.29208057        2       0.03370779      -0.14360788       0.00854627
Pt       0.00295027       0.00121310      24.55878871        1      -0.01111175      -0.00658562       0.02386515
Pt       2.80678913      -0.00316105      24.55878849        1      -0.00014462       0.01290988       0.02386594
Pt       5.62399164       0.01234796      24.57145962        1      -0.02427090      -0.01658935      -0.01094031
Pt       1.39730773       2.40983421      24.61358899        1       0.01066398       0.00375976       0.00524362
Pt       4.21673325       2.41666173      24.57146138        1      -0.00223476       0.02931400      -0.01094948
Pt       7.00255854       2.43322607      24.57146071        1       0.02650388      -0.01271809      -0.01094899
Pt       2.82879550       4.86742353      24.61358826        1      -0.00858232       0.00735858       0.00523902
Pt       5.61190109       4.86418501      24.55878978        1       0.01126281      -0.00633032       0.02385327
Pt       8.40635942       4.87833432      24.61358598        1      -0.00208486      -0.01111771       0.00525198
N        9.82524822       4.05186455      26.95089482        0       0.00009396       0.00000843      -0.01167411
H        9.04544120       4.59230955      26.52764229        0       0.00603543      -0.01644440       0.00230645
H       10.68319138       4.45697497      26.52764009        0      -0.01733829       0.00294855       0.00236016
H        9.74711322       3.10630905      26.52764234        0       0.01120695       0.01348640       0.00232414
