31
Lattice="8.421641763931781 0.0 0.0 4.2108208819658905 7.293355709136913 0.0 0.0 0.0 44.584161137365626" Properties=species:S:1:pos:R:3:tags:I:1:forces:R:3 energy=-172.80471801757812 free_energy=-172.80471801757812 stress="0.010280515067279339 -5.621027199254058e-09 5.509477318810241e-09 -5.621027199254058e-09 0.010280517861247063 -4.86874585092778e-09 5.509477318810241e-09 -4.86874585092778e-09 -4.9000984290614724e-05" pbc="T T T"
Pt       1.40360696       0.81037286      20.00000000        3       0.00020759       0.00324677      -0.00452831
Pt       4.21082088       0.81037286      20.00000000        3       0.00133320       0.00095959      -0.01032984
Pt       7.01803480       0.81037286      20.00000000        3      -0.00149988       0.00066993      -0.01033130
Pt       2.80721392       3.24149143      20.00000000        3      -0.00040490       0.00063143       0.01849774
Pt       5.61442784       3.24149143      20.00000000        3       0.00016371      -0.00163319      -0.01033169
Pt       8.42164176       3.24149143      20.00000000        3       0.00075171       0.00003695       0.01849639
Pt       4.21082088       5.67261000      20.00000000        3      -0.00291510      -0.00144403      -0.00452778
Pt       7.01803480       5.67261000      20.00000000        3       0.00270820      -0.00180127      -0.00452915
Pt       9.82524872       5.67261000      20.00000000        3      -0.00034495      -0.00066531       0.01849845
Pt      -0.00000000       1.62074571      22.29208057        2       0.12143470       0.09946053      -0.00070284
Pt       2.80721392       1.62074571      22.29208057        2      -0.11679894       0.09314702       0.00264054
Pt       5.61442784       1.62074571      22.29208057        2      -0.00000520      -0.00000323      -0.11655442
Pt       1.40360696       4.05186428      22.29208057        2       0.00000191       0.00000181       0.08542676
Pt       4.21082088       4.05186428      22.29208057        2      -0.14685459       0.05543119      -0.00070021
Pt       7.01803480       4.05186428      22.29208057        2       0.13906775       0.05458112       0.00264134
Pt       2.80721392       6.48298285      22.29208057        2      -0.02226881      -0.14772750       0.00264237
Pt       5.61442784       6.48298285      22.29208057        2      -0.00000184       0.00000100      -0.07503874
Pt       8.42164176       6.48298285      22.29208057        2       0.02542527      -0.15489382      -0.00070154
Pt       0.00299251       0.00562773      24.55888157        1       0.00102868      -0.02671721       0.02344352
Pt       2.81059265      -0.00540576      24.55888131        1      -0.02365515       0.01246868       0.02344446
Pt       5.61434975       0.00955449      24.56697824        1       0.00304012       0.00657772       0.01111478
Pt       1.41041934       2.41008199      24.61570126        1      -0.02009239       0.00546636       0.00404592
Pt       4.21913431       2.42640858      24.56697811        1       0.00417933      -0.00591981       0.01111482
Pt       7.00979894       2.42627312      24.56697704        1      -0.00721408      -0.00065777       0.01112695
Pt       2.82202573       4.87865404      24.61570306        1       0.00530911      -0.02013138       0.00404582
Pt       5.60805807       4.86201399      24.55888124        1       0.02262141       0.01424997       0.02344486
Pt       8.40001752       4.86685607      24.61570305        1       0.01478170       0.01466205       0.00404266
N        9.82524883       4.05186273      26.95923070        0      -0.00004030       0.00002535       0.01854262
H        9.75993835       3.10521447      26.53934883        0       0.00950013      -0.01079279      -0.01498119
H        9.03808080       4.58174932      26.53935118        0      -0.01406212      -0.00284367      -0.01496378
H       10.67772679       4.46862878      26.53935457        0       0.00460353       0.01361334      -0.01498916
