31
Lattice="8.421641763931781 0.0 0.0 4.2108208819658905 7.293355709136913 0.0 0.0 0.0 44.584161137365626" Properties=species:S:1:pos:R:3:tags:I:1:forces:R:3 energy=-172.76148986816406 free_energy=-172.76148986816406 stress="0.010429923422634602 6.29681526334025e-05 -7.342481694649905e-05 6.29681526334025e-05 0.010315786115825176 0.00012294098269194365 -7.342481694649905e-05 0.00012294098269194365 3.079737871303223e-05" pbc="T T T"
Pt       1.40360696       0.81037286      20.00000000        3       0.00091122       0.00282682       0.00399941
Pt       4.21082088       0.81037286      20.00000000        3       0.00047841      -0.00076829      -0.00353691
Pt       7.01803480       0.81037286      20.00000000        3      -0.00163202       0.00158399       0.00321808
Pt       2.80721392       3.24149143      20.00000000        3      -0.00094405      -0.00318478       0.01940903
Pt       5.61442784       3.24149143      20.00000000        3       0.00117326      -0.00337220       0.00237992
Pt       8.42164176       3.24149143      20.00000000        3       0.00306153      -0.00048807       0.03659654
Pt       4.21082088       5.67261000      20.00000000        3      -0.00203989      -0.00214610      -0.00485498
Pt       7.01803480       5.67261000      20.00000000        3       0.00310661      -0.00222729       0.00172216
Pt       9.82524872       5.67261000      20.00000000        3      -0.00232186       0.00035369       0.01590496
Pt      -0.00000000       1.62074571      22.29208057        2       0.08331019       0.10966067       0.02739647
Pt       2.80721392       1.62074571      22.29208057        2      -0.15306467       0.12236153       0.06493125
Pt       5.61442784       1.62074571      22.29208057        2       0.04896300       0.04778614      -0.05669826
Pt       1.40360696       4.05186428      22.29208057        2      -0.04417649      -0.05819605       0.02687239
Pt       4.21082088       4.05186428      22.29208057        2      -0.06685949      -0.00514653      -0.03392065
Pt       7.01803480       4.05186428      22.29208057        2       0.09624254       0.01339601      -0.01966595
Pt       2.80721392       6.48298285      22.29208057        2      -0.03806220      -0.02117116      -0.04282033
Pt       5.61442784       6.48298285      22.29208057        2       0.00248515       0.02219687      -0.05894005
Pt       8.42164176       6.48298285      22.29208057        2       0.01367208      -0.12854984       0.01836764
Pt      -0.01068736       0.00596952      24.57091274        1      -0.00031411       0.00412097      -0.01212889
Pt       2.80590217       0.00987562      24.55895410        1       0.01008076       0.01002861       0.00540528
Pt       5.61705542       0.03571865      24.57289308        1      -0.00850580       0.02079165      -0.01404586
Pt       1.42697064       2.40806972      24.62803560        1       0.02204305      -0.00868721      -0.01595049
Pt       4.22287615       2.44797581      24.57390699        1      -0.00773202      -0.01387606      -0.02148597
Pt       7.01755280       2.46369081      24.60179948        1      -0.02623801      -0.03252150       0.00962490
Pt       2.78892117       4.88484999      24.60072306        1       0.01981179      -0.00962392       0.01102287
Pt       5.59107298       4.88317385      24.57063980        1      -0.00721427      -0.00116152      -0.00686893
Pt       8.40247770       4.91211445      24.61623003        1       0.01561954       0.00423865       0.00466551
N        9.10528135       3.65243733      26.87165558        0       0.01582811      -0.02778272       0.02696994
H        9.60785218       2.79163245      26.56866986        0       0.00441822      -0.00253442       0.01815518
H        8.21403730       3.55236072      26.32759841        0       0.02337854      -0.01027416       0.00019452
H        9.63308477       4.38029782      26.33079323        0      -0.00547915      -0.02763399      -0.00591865
