31
Lattice="8.421641763931781 0.0 0.0 4.2108208819658905 7.293355709136913 0.0 0.0 0.0 44.584161137365626" Properties=species:S:1:pos:R:3:tags:I:1:forces:R:3 energy=-172.793212890625 free_energy=-172.793212890625 stress="0.010255726985633373 -1.0080303258774848e-09 -1.0066699696054116e-09 -1.0080303258774848e-09 0.010255729779601097 -1.050201592356359e-09 -1.0066699696054116e-09 -1.050201592356359e-09 -4.6723416744498536e-05" pbc="T T T"
Pt       1.40360696       0.81037286      20.00000000        3       0.00290665       0.00139602       0.00231481
Pt       4.21082088       0.81037286      20.00000000        3       0.00000155      -0.00000144      -0.00485983
Pt       7.01803480       0.81037286      20.00000000        3      -0.00228113       0.00265995       0.00166661
Pt       2.80721392       3.24149143      20.00000000        3      -0.00116485      -0.00330491       0.00166622
Pt       5.61442784       3.24149143      20.00000000        3      -0.00024372      -0.00321579       0.00231314
Pt       8.42164176       3.24149143      20.00000000        3       0.00000160       0.00000016       0.03026173
Pt       4.21082088       5.67261000      20.00000000        3       0.00000248       0.00000091      -0.01544431
Pt       7.01803480       5.67261000      20.00000000        3       0.00344247       0.00064513       0.00166643
Pt       9.82524872       5.67261000      20.00000000        3      -0.00266462       0.00181971       0.00231284
Pt      -0.00000000       1.62074571      22.29208057        2      -0.00400367       0.11403964       0.03495007
Pt       2.80721392       1.62074571      22.29208057        2      -0.13467731       0.06624667       0.03021956
Pt       5.61442784       1.62074571      22.29208057        2       0.12470952       0.08350962       0.03021958
Pt       1.40360696       4.05186428      22.29208057        2      -0.09675945      -0.06049024       0.03495034
Pt       4.21082088       4.05186428      22.29208057        2       0.00720041      -0.04540977      -0.07373682
Pt       7.01803480       4.05186428      22.29208057        2       0.10076272      -0.05355246       0.03494978
Pt       2.80721392       6.48298285      22.29208057        2      -0.04292367       0.01647219      -0.07373849
Pt       5.61442784       6.48298285      22.29208057        2       0.03572489       0.02894030      -0.07373808
Pt       8.42164176       6.48298285      22.29208057        2       0.00996716      -0.14975587       0.03021979
Pt      -0.01050999      -0.01354387      24.56854434        1       0.02910113       0.03360411      -0.00102313
Pt       2.81594385      -0.00866331      24.56865932        1      -0.01408790       0.02865369      -0.02491446
Pt       5.61756553       0.01189163      24.56865946        1      -0.01777378      -0.02652615      -0.02491470
Pt       1.42129129       2.40105397      24.60715535        1       0.01622969       0.01531243      -0.00091788
Pt       4.19895333       2.42788974      24.56865818        1       0.03186323      -0.00212652      -0.02491497
Pt       6.98315615       2.43083580      24.60715552        1       0.00514390      -0.02171358      -0.00091789
Pt       2.82419813       4.85990694      24.56854506        1      -0.04364975       0.00839724      -0.00102203
Pt       5.60795396       4.87811105      24.56854385        1       0.01454910      -0.04200304      -0.00102252
Pt       8.43883563       4.89258417      24.60715547        1      -0.02137629       0.00640123      -0.00091613
N        8.42164127       3.24149125      26.89807488        0       0.00001367      -0.00000354       0.02238801
H        7.51094181       2.98488423      26.46326766        0       0.01596576      -0.02417516       0.02065747
H        8.65476330       4.15848361      26.46326795        0      -0.02892059      -0.00173555       0.02066023
H        9.09922024       2.58110653      26.46326761        0       0.01294089       0.02591512       0.02066451
