31
Lattice="8.421641763931781 0.0 0.0 4.2108208819658905 7.293355709136913 0.0 0.0 0.0 44.584161137365626" Properties=species:S:1:pos:R:3:tags:I:1:forces:R:3 energy=-172.57716369628906 free_energy=-172.57716369628906 stress="0.010478963144123554 4.718680557402877e-09 -1.1046161763061946e-09 4.718680557402877e-09 0.010478973388671875 -3.0227305103380786e-09 -1.1046161763061946e-09 -3.0227305103380786e-09 -0.00018220972560811788" pbc="T T T"
Pt       1.40360696       0.81037286      20.00000000        3       0.00008914       0.00047730      -0.00420755
Pt       4.21082088       0.81037286      20.00000000        3       0.00091416       0.00070275      -0.00487038
Pt       7.01803480       0.81037286      20.00000000        3      -0.00106879       0.00043561      -0.00487182
Pt       2.80721392       3.24149143      20.00000000        3      -0.00004017       0.00008958       0.00331849
Pt       5.61442784       3.24149143      20.00000000        3       0.00015114      -0.00114265      -0.00487098
Pt       8.42164176       3.24149143      20.00000000        3       0.00010038      -0.00000852       0.00331771
Pt       4.21082088       5.67261000      20.00000000        3      -0.00045741      -0.00016193      -0.00420746
Pt       7.01803480       5.67261000      20.00000000        3       0.00036955      -0.00031338      -0.00420904
Pt       9.82524872       5.67261000      20.00000000        3      -0.00005821      -0.00007860       0.00331846
Pt      -0.00000000       1.62074571      22.29208057        2       0.02727114       0.03339148      -0.00388945
Pt       2.80721392       1.62074571      22.29208057        2      -0.02598226       0.03246859      -0.00567506
Pt       5.61442784       1.62074571      22.29208057        2      -0.00000210      -0.00000130      -0.05327074
Pt       1.40360696       4.05186428      22.29208057        2       0.00000126      -0.00000068       0.05031667
Pt       4.21082088       4.05186428      22.29208057        2      -0.04255350       0.00691862      -0.00389046
Pt       7.01803480       4.05186428      22.29208057        2       0.04110829       0.00626690      -0.00567451
Pt       2.80721392       6.48298285      22.29208057        2      -0.01512728      -0.03873500      -0.00567608
Pt       5.61442784       6.48298285      22.29208057        2      -0.00000182       0.00000209      -0.03515458
Pt       8.42164176       6.48298285      22.29208057        2       0.01528570      -0.04030902      -0.00389156
Pt       0.00188951      -0.00020531      24.57707668        1      -0.00315231       0.00670992      -0.00708440
Pt       2.80609171      -0.00153368      24.57707664        1       0.00738560      -0.00062480      -0.00708401
Pt       5.61393251       0.00689209      24.57902267        1      -0.00323668      -0.01788424      -0.00410670
Pt       1.40619849       2.41651328      24.58942598        1       0.00550788       0.02317868       0.00538431
Pt       4.21703731       2.42810122      24.57902278        1      -0.01387035       0.01174561      -0.00410759
Pt       7.01231343       2.42724373      24.57902272        1       0.01710777       0.00613835      -0.00410631
Pt       2.81856685       4.87178401      24.58942611        1      -0.02282705      -0.00682064       0.00538595
Pt       5.61366075       4.86397594      24.57707668        1      -0.00423264      -0.00608469      -0.00708345
Pt       8.40769742       4.86729574      24.58942623        1       0.01731829      -0.01635985       0.00538553
N        9.82524874       4.05186425      27.59415620        0       0.00000203       0.00002608       0.00236583
H       10.30199125       4.86794421      27.19876075        0       0.00864647      -0.03273951       0.03305269
H       10.29362292       3.23095342      27.19876070        0      -0.03266019       0.00885406       0.03304032
H        8.88013208       4.05669542      27.19876070        0       0.02401194       0.02385940       0.03304589
