31
Lattice="8.421641763931781 0.0 0.0 4.2108208819658905 7.293355709136913 0.0 0.0 0.0 44.584161137365626" Properties=species:S:1:pos:R:3:tags:I:1:forces:R:3 energy=-173.7161865234375 free_energy=-173.7161865234375 stress="0.01066673081368208 -1.5610186754333455e-10 -2.8843134547429372e-09 -1.5610186754333455e-10 0.010666736401617527 -1.3766892070776748e-09 -2.8843134547429372e-09 -1.3766892070776748e-09 -1.7417117987861275e-06" pbc="T T T"
Pt       1.40360696       0.81037286      20.00000000        3      -0.00303905      -0.00098589      -0.00628376
Pt       4.21082088       0.81037286      20.00000000        3       0.00054107       0.00469120       0.01202303
Pt       7.01803480       0.81037286      20.00000000        3       0.00236901      -0.00214317      -0.00628531
Pt       2.80721392       3.24149143      20.00000000        3       0.00379565      -0.00281413       0.01202065
Pt       5.61442784       3.24149143      20.00000000        3      -0.00433583      -0.00187966       0.01202130
Pt       8.42164176       3.24149143      20.00000000        3       0.00067376      -0.00618662      -0.00957534
Pt       4.21082088       5.67261000      20.00000000        3       0.00067046       0.00312582      -0.00628436
Pt       7.01803480       5.67261000      20.00000000        3      -0.00569617       0.00251364      -0.00957429
Pt       9.82524872       5.67261000      20.00000000        3       0.00502083       0.00367868      -0.00957441
Pt      -0.00000000       1.62074571      22.29208057        2       0.00846293       0.00598822      -0.00397773
Pt       2.80721392       1.62074571      22.29208057        2       0.06540400       0.04310812      -0.02902654
Pt       5.61442784       1.62074571      22.29208057        2      -0.07003856       0.03508394      -0.02902568
Pt       1.40360696       4.05186428      22.29208057        2       0.05128211      -0.03667101       0.02847413
Pt       4.21082088       4.05186428      22.29208057        2       0.00463579      -0.07819624      -0.02902470
Pt       7.01803480       4.05186428      22.29208057        2      -0.05740148      -0.02607353       0.02847769
Pt       2.80721392       6.48298285      22.29208057        2      -0.00941748       0.00433456      -0.00397838
Pt       5.61442784       6.48298285      22.29208057        2       0.00095628      -0.01032186      -0.00397777
Pt       8.42164176       6.48298285      22.29208057        2       0.00611834       0.06274925       0.02847471
Pt       0.00000076       0.00000027      24.58900325        1      -0.00000025      -0.00000249      -0.00093916
Pt       2.80009131      -0.00947778      24.59462734        1       0.00212578      -0.00500760       0.01184368
Pt       5.61888385      -0.00565703      24.60592592        1      -0.01109461       0.01447166      -0.00247574
Pt       1.39648027       2.43008910      24.60592609        1       0.01807414       0.00237025      -0.00247382
Pt       4.21081983       2.43111825      24.65974706        1       0.00000436       0.00000080       0.03704172
Pt       7.02980436       2.42968893      24.59462759        1       0.00327013       0.00434337       0.01184537
Pt       2.80256760       4.87314507      24.59462727        1      -0.00539117       0.00065988       0.01184528
Pt       5.61709963       4.86892396      24.60592609        1      -0.00698376      -0.01684022      -0.00247531
Pt       8.42164292       4.86223769      24.58875012        1      -0.00000915       0.00000086      -0.00019437
N        4.21081958       2.43111751      26.72996855        0      -0.00000943      -0.00000319      -0.04323679
H        3.23808229       2.43439723      27.04813812        0       0.00648482       0.00116529       0.00143268
H        4.70002934       3.27189345      27.04813321        0      -0.00223002      -0.00619021       0.00144483
H        4.69434830       1.58706217      27.04813529        0      -0.00424243       0.00503026       0.00143828
