31
Lattice="8.421641763931781 0.0 0.0 4.2108208819658905 7.293355709136913 0.0 0.0 0.0 44.584161137365626" Properties=species:S:1:pos:R:3:tags:I:1:forces:R:3 energy=-172.8059844970703 free_energy=-172.8059844970703 stress="0.010280297137796879 -1.238785785062646e-08 1.6285259363257865e-08 -1.238785785062646e-08 0.010280299931764603 -1.3718428615305811e-09 1.6285259363257865e-08 -1.3718428615305811e-09 -5.39209067937918e-05" pbc="T T T"
Pt       1.40360696       0.81037286      20.00000000        3       0.00000102       0.00276041      -0.00425246
Pt       4.21082088       0.81037286      20.00000000        3       0.00105149       0.00060499      -0.00947157
Pt       7.01803480       0.81037286      20.00000000        3      -0.00105253       0.00060449      -0.00947431
Pt       2.80721392       3.24149143      20.00000000        3      -0.00058987       0.00034095       0.01770347
Pt       5.61442784       3.24149143      20.00000000        3      -0.00000179      -0.00121286      -0.00947315
Pt       8.42164176       3.24149143      20.00000000        3       0.00059256       0.00034187       0.01770294
Pt       4.21082088       5.67261000      20.00000000        3      -0.00239048      -0.00138014      -0.00425214
Pt       7.01803480       5.67261000      20.00000000        3       0.00239119      -0.00137922      -0.00425330
Pt       9.82524872       5.67261000      20.00000000        3      -0.00000128      -0.00068055       0.01770315
Pt      -0.00000000       1.62074571      22.29208057        2       0.11651117       0.09124146       0.00165196
Pt       2.80721392       1.62074571      22.29208057        2      -0.11650823       0.09123983       0.00165286
Pt       5.61442784       1.62074571      22.29208057        2      -0.00000249      -0.00000123      -0.09937739
Pt       1.40360696       4.05186428      22.29208057        2       0.00000060      -0.00000015       0.08201425
Pt       4.21082088       4.05186428      22.29208057        2      -0.13726977       0.05527879       0.00165202
Pt       7.01803480       4.05186428      22.29208057        2       0.13726920       0.05528040       0.00165469
Pt       2.80721392       6.48298285      22.29208057        2      -0.02076373      -0.14652029       0.00165088
Pt       5.61442784       6.48298285      22.29208057        2       0.00000112      -0.00000025      -0.07234667
Pt       8.42164176       6.48298285      22.29208057        2       0.02076296      -0.14651817       0.00165295
Pt       0.00067089      -0.00038748      24.56074745        1       0.00382792      -0.00220984       0.01202191
Pt       2.80654338      -0.00038712      24.56074832        1      -0.00382818      -0.00221283       0.01201187
Pt       5.61442772       0.00600159      24.56729961        1       0.00000016       0.04490089       0.00588220
Pt       1.40360709       2.40924849      24.61408944        1       0.00000021       0.00594579       0.00152832
Pt       4.21601855       2.42811768      24.56729940        1       0.03888443      -0.02245173       0.00588371
Pt       7.01283707       2.42811755      24.56729917        1      -0.03888548      -0.02245018       0.00588389
Pt       2.82615379       4.87317195      24.61408969        1      -0.00515012      -0.00297321       0.00153045
Pt       5.61442740       4.86301138      24.56074831        1       0.00000331       0.00442180       0.01201159
Pt       8.40270200       4.87317178      24.61409068        1       0.00514675      -0.00297155       0.00153226
N        9.82524943       4.05186419      26.95105761        0      -0.00009876       0.00000236       0.00441968
H        9.00533713       4.52524051      26.52528405        0      -0.02155030       0.01244892       0.00174288
H       10.64515930       4.52524003      26.52528507        0       0.02164225       0.01249432       0.00169406
H        9.82524881       3.10511248      26.52528472        0       0.00000671      -0.02494492       0.00171901
