31
Lattice="8.421641763931781 0.0 0.0 4.2108208819658905 7.293355709136913 0.0 0.0 0.0 44.584161137365626" Properties=species:S:1:pos:R:3:tags:I:1:forces:R:3 energy=-172.76077270507812 free_energy=-172.76077270507812 stress="0.010408123955130577 7.044251833576709e-05 7.429922698065639e-05 7.044251833576709e-05 0.010361273773014545 -0.00011715204891515896 7.429922698065639e-05 -0.00011715204891515896 0.00011395908950362355" pbc="T T T"
Pt       1.40360696       0.81037286      20.00000000        3       0.00008653       0.00390294       0.00241512
Pt       4.21082088       0.81037286      20.00000000        3      -0.00036053       0.00053147      -0.00557837
Pt       7.01803480       0.81037286      20.00000000        3      -0.00257588       0.00266328       0.00178859
Pt       2.80721392       3.24149143      20.00000000        3      -0.00144663      -0.00184676       0.01665169
Pt       5.61442784       3.24149143      20.00000000        3       0.00073619      -0.00255367       0.00243104
Pt       8.42164176       3.24149143      20.00000000        3       0.00070005       0.00237351       0.03803524
Pt       4.21082088       5.67261000      20.00000000        3      -0.00310665      -0.00061886      -0.00506353
Pt       7.01803480       5.67261000      20.00000000        3       0.00347809      -0.00050433       0.00365639
Pt       9.82524872       5.67261000      20.00000000        3      -0.00326509       0.00049636       0.01904306
Pt      -0.00000000       1.62074571      22.29208057        2       0.06309950       0.08650006      -0.00417495
Pt       2.80721392       1.62074571      22.29208057        2      -0.11647483       0.08063720       0.02495405
Pt       5.61442784       1.62074571      22.29208057        2       0.06738551       0.02218427      -0.06477173
Pt       1.40360696       4.05186428      22.29208057        2      -0.06892835      -0.01447783       0.03637936
Pt       4.21082088       4.05186428      22.29208057        2      -0.04171475      -0.01799948      -0.03811941
Pt       7.01803480       4.05186428      22.29208057        2       0.14208949       0.01201535       0.03078788
Pt       2.80721392       6.48298285      22.29208057        2      -0.03284843      -0.05591841      -0.03371669
Pt       5.61442784       6.48298285      22.29208057        2       0.02189647      -0.00278116      -0.05836943
Pt       8.42164176       6.48298285      22.29208057        2       0.02806103      -0.19789818       0.05174744
Pt       0.00911936      -0.02455970      24.56952028        1      -0.00725170      -0.00306443      -0.00144675
Pt       2.81995835      -0.00788883      24.55989857        1      -0.01687509       0.02246514       0.00331762
Pt       5.63117737       0.00104130      24.57114064        1       0.00851168       0.00325227      -0.00351472
Pt       1.43733145       2.39500151      24.62028431        1      -0.00649176       0.01144483       0.01261446
Pt       4.23966879       2.41630652      24.57077799        1       0.00826677      -0.00149812      -0.00210622
Pt       7.03564686       2.41326235      24.60469649        1       0.01747224       0.00798205       0.00362185
Pt       2.82344617       4.84403071      24.60377370        1      -0.01336903      -0.00944948       0.00149801
Pt       5.61831039       4.85334255      24.56933708        1      -0.00603236      -0.01067118      -0.00238454
Pt       8.41821365       4.89106433      24.62962350        1       0.00048822      -0.00440040       0.02444582
N        9.12878698       3.62552593      26.89483283        0      -0.01445527       0.02199176      -0.01383412
H        8.63179916       4.48623312      26.58755638        0      -0.02298272       0.04022002      -0.00394208
H       10.01922341       3.71963536      26.35085631        0       0.02666403       0.01833646      -0.01689467
H        8.60185431       2.90132154      26.35178477        0      -0.03075677      -0.01331448      -0.01947024
