31
Lattice="8.421641763931781 0.0 0.0 4.2108208819658905 7.293355709136913 0.0 0.0 0.0 44.584161137365626" Properties=species:S:1:pos:R:3:tags:I:1:forces:R:3 energy=-172.80628967285156 free_energy=-172.80628967285156 stress="0.010336628183722496 3.5918406027235505e-09 -2.8676490071433136e-09 3.5918406027235505e-09 0.010336627252399921 -1.3902928808207093e-09 -2.8676490071433136e-09 -1.3902928808207093e-09 2.110221794282552e-05" pbc="T T T"
Pt       1.40360696       0.81037286      20.00000000        3       0.00000102       0.00278262      -0.00336179
Pt       4.21082088       0.81037286      20.00000000        3       0.00129199       0.00074341      -0.00833422
Pt       7.01803480       0.81037286      20.00000000        3      -0.00129281       0.00074276      -0.00833604
Pt       2.80721392       3.24149143      20.00000000        3      -0.00012213       0.00007149       0.01724952
Pt       5.61442784       3.24149143      20.00000000        3      -0.00000216      -0.00149001      -0.00833479
Pt       8.42164176       3.24149143      20.00000000        3       0.00012484       0.00007264       0.01724869
Pt       4.21082088       5.67261000      20.00000000        3      -0.00240990      -0.00139121      -0.00336123
Pt       7.01803480       5.67261000      20.00000000        3       0.00241019      -0.00139004      -0.00336295
Pt       9.82524872       5.67261000      20.00000000        3      -0.00000124      -0.00014085       0.01724893
Pt      -0.00000000       1.62074571      22.29208057        2       0.11445919       0.08732554       0.01453534
Pt       2.80721392       1.62074571      22.29208057        2      -0.11445593       0.08732632       0.01453378
Pt       5.61442784       1.62074571      22.29208057        2      -0.00000259       0.00000139      -0.11074421
Pt       1.40360696       4.05186428      22.29208057        2       0.00000130      -0.00000103       0.08593689
Pt       4.21082088       4.05186428      22.29208057        2      -0.13285418       0.05545843       0.01453447
Pt       7.01803480       4.05186428      22.29208057        2       0.13285275       0.05545835       0.01453516
Pt       2.80721392       6.48298285      22.29208057        2      -0.01839602      -0.14278671       0.01453234
Pt       5.61442784       6.48298285      22.29208057        2      -0.00000207       0.00000114      -0.05644600
Pt       8.42164176       6.48298285      22.29208057        2       0.01839853      -0.14278361       0.01453182
Pt       0.00121496      -0.00070157      24.56507431        1       0.00108079      -0.00062378      -0.00976345
Pt       2.80599918      -0.00070145      24.56507435        1      -0.00108007      -0.00062318      -0.00976308
Pt       5.61442782       0.01191156      24.57002353        1      -0.00000191      -0.01414697      -0.00315975
Pt       1.40360701       2.40978231      24.61315550        1      -0.00000055       0.00144804       0.00335297
Pt       4.22113667       2.42516258      24.57002361        1      -0.01225115       0.00707330      -0.00316973
Pt       7.00771873       2.42516248      24.57002389        1       0.01225299       0.00707397      -0.00316860
Pt       2.82569136       4.87290501      24.61315542        1      -0.00125375      -0.00072344       0.00335304
Pt       5.61442781       4.86363985      24.56507444        1      -0.00000244       0.00124644      -0.00976229
Pt       8.40316407       4.87290516      24.61315556        1       0.00125568      -0.00072443       0.00335265
N        9.82524842       4.05186401      26.94874373        0       0.00001855       0.00000611       0.04618505
H        9.82524878       3.10212022      26.53110427        0      -0.00000012      -0.01185402      -0.01335556
H        9.00274648       4.52673630      26.53110435        0      -0.01026931       0.00592904      -0.01335772
H       10.64775151       4.52673642      26.53110409        0       0.01025060       0.00591860      -0.01334886
