31
Lattice="8.421641763931781 0.0 0.0 4.2108208819658905 7.293355709136913 0.0 0.0 0.0 44.584161137365626" Properties=species:S:1:pos:R:3:tags:I:1:forces:R:3 energy=-172.5789794921875 free_energy=-172.5789794921875 stress="0.01047310046851635 1.728173493198426e-09 -6.616814651749792e-09 1.728173493198426e-09 0.010473097674548626 5.474107833691733e-09 -6.616814651749792e-09 5.474107833691733e-09 -0.00020023048273287714" pbc="T T T"
Pt       1.40360696       0.81037286      20.00000000        3       0.00074781       0.00084593      -0.00204453
Pt       4.21082088       0.81037286      20.00000000        3       0.00000135      -0.00000149      -0.00540128
Pt       7.01803480       0.81037286      20.00000000        3      -0.00079894       0.00067854      -0.00220037
Pt       2.80721392       3.24149143      20.00000000        3      -0.00019056      -0.00103049      -0.00220072
Pt       5.61442784       3.24149143      20.00000000        3       0.00035977      -0.00107053      -0.00204512
Pt       8.42164176       3.24149143      20.00000000        3       0.00000136       0.00000028       0.00783616
Pt       4.21082088       5.67261000      20.00000000        3       0.00000262       0.00000128      -0.00681591
Pt       7.01803480       5.67261000      20.00000000        3       0.00098576       0.00035139      -0.00220054
Pt       9.82524872       5.67261000      20.00000000        3      -0.00110916       0.00022480      -0.00204539
Pt      -0.00000000       1.62074571      22.29208057        2       0.00152842       0.04198133       0.02925931
Pt       2.80721392       1.62074571      22.29208057        2      -0.03218981       0.01882920      -0.02422164
Pt       5.61442784       1.62074571      22.29208057        2       0.03240033       0.01846244      -0.02422196
Pt       1.40360696       4.05186428      22.29208057        2      -0.03711886      -0.01966862       0.02925968
Pt       4.21082088       4.05186428      22.29208057        2       0.00078569      -0.01328983      -0.03097492
Pt       7.01803480       4.05186428      22.29208057        2       0.03559026      -0.02231330       0.02926164
Pt       2.80721392       6.48298285      22.29208057        2      -0.01190286       0.00596557      -0.03097634
Pt       5.61442784       6.48298285      22.29208057        2       0.01111706       0.00732480      -0.03097746
Pt       8.42164176       6.48298285      22.29208057        2      -0.00021033      -0.03729036      -0.02422263
Pt       0.00056973      -0.00636833      24.57875333        1       0.00298901       0.01932094      -0.00732332
Pt       2.80846392       0.00150257      24.57723236        1      -0.00713220      -0.00009488      -0.00424275
Pt       5.61250134       0.00033108      24.57723232        1       0.00365110      -0.00612814      -0.00424272
Pt       1.41829712       2.42546243      24.58945444        1      -0.01929848       0.01753024       0.00628445
Pt       4.21149724       2.42928473      24.57723238        1       0.00348268       0.00622429      -0.00424233
Pt       7.00579129       2.42122465      24.58945448        1       0.02483238       0.00794646       0.00628439
Pt       2.81244427       4.86591454      24.57875358        1      -0.01822620      -0.00706855      -0.00733280
Pt       5.60862801       4.86492806      24.57875350        1       0.01523804      -0.01225263      -0.00733203
Pt       8.41919497       4.87778727      24.58945457        1      -0.00553640      -0.02547886       0.00628564
N        8.42164171       3.24149164      27.59559743        0       0.00004213      -0.00002278       0.00371638
H        7.94490396       2.42587670      27.19906540        0      -0.00924970       0.03347661       0.03569193
H        7.95366767       4.06216546      27.19906543        0       0.03360268      -0.00870582       0.03568148
H        9.36635365       3.23643178      27.19906536        0      -0.02439485      -0.02474812       0.03570368
