31
Lattice="8.421641763931781 0.0 0.0 4.2108208819658905 7.293355709136913 0.0 0.0 0.0 44.584161137365626" Properties=species:S:1:pos:R:3:tags:I:1:forces:R:3 energy=-172.76077270507812 free_energy=-172.76077270507812 stress="0.01040816493332386 7.044212543405592e-05 7.42803022149019e-05 7.044212543405592e-05 0.010361292399466038 -0.00011714526772266254 7.42803022149019e-05 -0.00011714526772266254 0.00011399920185795054" pbc="T T T"
Pt       1.40360696       0.81037286      20.00000000        3       0.00008630       0.00390252       0.00241479
Pt       4.21082088       0.81037286      20.00000000        3      -0.00036053       0.00053185      -0.00557786
Pt       7.01803480       0.81037286      20.00000000        3      -0.00257653       0.00266314       0.00178972
Pt       2.80721392       3.24149143      20.00000000        3      -0.00144646      -0.00184677       0.01665068
Pt       5.61442784       3.24149143      20.00000000        3       0.00073571      -0.00255347       0.00243160
Pt       8.42164176       3.24149143      20.00000000        3       0.00069948       0.00237398       0.03803402
Pt       4.21082088       5.67261000      20.00000000        3      -0.00310682      -0.00061912      -0.00506324
Pt       7.01803480       5.67261000      20.00000000        3       0.00347800      -0.00050442       0.00365669
Pt       9.82524872       5.67261000      20.00000000        3      -0.00326453       0.00049593       0.01904398
Pt      -0.00000000       1.62074571      22.29208057        2       0.06309570       0.08649563      -0.00417237
Pt       2.80721392       1.62074571      22.29208057        2      -0.11646887       0.08063196       0.02495792
Pt       5.61442784       1.62074571      22.29208057        2       0.06738252       0.02218213      -0.06476775
Pt       1.40360696       4.05186428      22.29208057        2      -0.06892955      -0.01447334       0.03638075
Pt       4.21082088       4.05186428      22.29208057        2      -0.04171415      -0.01800061      -0.03811916
Pt       7.01803480       4.05186428      22.29208057        2       0.14209038       0.01201677       0.03079145
Pt       2.80721392       6.48298285      22.29208057        2      -0.03284985      -0.05591478      -0.03371300
Pt       5.61442784       6.48298285      22.29208057        2       0.02189729      -0.00277814      -0.05836578
Pt       8.42164176       6.48298285      22.29208057        2       0.02806148      -0.19789726       0.05175588
Pt       0.00911918      -0.02456013      24.56952203        1      -0.00725048      -0.00305858      -0.00145668
Pt       2.81995870      -0.00789006      24.55990024        1      -0.01687390       0.02247195       0.00330612
Pt       5.63117722       0.00104203      24.57114213        1       0.00850837       0.00324796      -0.00352320
Pt       1.43733135       2.39500137      24.62028158        1      -0.00649300       0.01144564       0.01263134
Pt       4.23966888       2.41630724      24.57077899        1       0.00826278      -0.00150179      -0.00211528
Pt       7.03564568       2.41326261      24.60469597        1       0.01748051       0.00798370       0.00362059
Pt       2.82344650       4.84403172      24.60377290        1      -0.01337349      -0.00945393       0.00149949
Pt       5.61831003       4.85334346      24.56933820        1      -0.00602816      -0.01067574      -0.00238284
Pt       8.41821365       4.89106344      24.62962527        1       0.00048890      -0.00439850       0.02443177
N        9.12878711       3.62552505      26.89483226        0      -0.01436839       0.02197029      -0.01388636
H        8.60185680       2.90131963      26.35178320        0      -0.03076959      -0.01330665      -0.01946235
H        8.63179964       4.48623191      26.58755471        0      -0.02299070       0.04022831      -0.00394194
H       10.01922506       3.71963261      26.35085483        0       0.02659751       0.01834108      -0.01684913
