31
Lattice="8.421641763931781 0.0 0.0 4.2108208819658905 7.293355709136913 0.0 0.0 0.0 44.584161137365626" Properties=species:S:1:pos:R:3:tags:I:1:forces:R:3 energy=-172.76077270507812 free_energy=-172.76077270507812 stress="0.010434010997414589 5.5528071243315935e-05 -6.430827488657087e-05 5.5528071243315935e-05 0.010335450060665607 0.00012289718142710626 -6.430827488657087e-05 0.00012289718142710626 0.00011400442599551752" pbc="T T T"
Pt       1.40360696       0.81037286      20.00000000        3       0.00130235       0.00326502       0.00365824
Pt       4.21082088       0.81037286      20.00000000        3       0.00028229      -0.00058224      -0.00557807
Pt       7.01803480       0.81037286      20.00000000        3      -0.00184487       0.00191355       0.00243136
Pt       2.80721392       3.24149143      20.00000000        3      -0.00120324      -0.00307412       0.01904365
Pt       5.61442784       3.24149143      20.00000000        3       0.00101916      -0.00356198       0.00178722
Pt       8.42164176       3.24149143      20.00000000        3       0.00240591      -0.00058145       0.03803411
Pt       4.21082088       5.67261000      20.00000000        3      -0.00208971      -0.00238083      -0.00506425
Pt       7.01803480       5.67261000      20.00000000        3       0.00342293      -0.00187604       0.00241292
Pt       9.82524872       5.67261000      20.00000000        3      -0.00232448      -0.00032786       0.01665148
Pt      -0.00000000       1.62074571      22.29208057        2       0.08145467       0.11704674       0.03079015
Pt       2.80721392       1.62074571      22.29208057        2      -0.15735736       0.12325110       0.05174939
Pt       5.61442784       1.62074571      22.29208057        2       0.05290465       0.04726220      -0.06477012
Pt       1.40360696       4.05186428      22.29208057        2      -0.04700036      -0.05245884       0.03638225
Pt       4.21082088       4.05186428      22.29208057        2      -0.06485140      -0.00049059      -0.03371760
Pt       7.01803480       4.05186428      22.29208057        2       0.10645866       0.01139153      -0.00417303
Pt       2.80721392       6.48298285      22.29208057        2      -0.03644720      -0.02712512      -0.03811986
Pt       5.61442784       6.48298285      22.29208057        2       0.00853854       0.02035799      -0.05837122
Pt       8.42164176       6.48298285      22.29208057        2       0.01159977      -0.14118311       0.02495514
Pt      -0.00576090       0.00780889      24.56933692        1      -0.01226071       0.00011859      -0.00238313
Pt       2.80675345       0.01498188      24.55989918        1       0.01102398      -0.02584998       0.00331737
Pt       5.61602442       0.03238887      24.57077894        1       0.00283326       0.00790633      -0.00211471
Pt       1.42685797       2.41373617      24.62962486        1      -0.00356979       0.00263064       0.02443638
Pt       4.22009799       2.44510293      24.57114079        1       0.00706947       0.00574675      -0.00351346
Pt       7.01137624       2.45529817      24.60469570        1       0.01565684       0.01114652       0.00362296
Pt       2.79956419       4.88539791      24.60377333        1      -0.01487888      -0.00685864       0.00150269
Pt       5.59771781       4.88241432      24.56952121        1      -0.00627213      -0.00475251      -0.00144637
Pt       8.40722555       4.90950195      24.62028328        1       0.00666892      -0.01135297       0.01263396
N        9.10779731       3.66187987      26.89483577        0       0.01183962      -0.02341716      -0.01398849
H        9.63451654       4.38596758      26.35085470        0       0.02914792       0.01382027      -0.01681370
H        9.60469828       2.80112256      26.58755527        0       0.02332787      -0.03999795      -0.00392748
H        8.21715245       3.56764687      26.35178460        0      -0.02685677      -0.01998609      -0.01942796
