31
Lattice="8.421641763931781 0.0 0.0 4.2108208819658905 7.293355709136913 0.0 0.0 0.0 44.584161137365626" Properties=species:S:1:pos:R:3:tags:I:1:forces:R:3 energy=-172.8042755126953 free_energy=-172.8042755126953 stress="0.010287937708199024 2.5683688509303693e-09 5.090484922476435e-09 2.5683688509303693e-09 0.010287950746715069 -3.02545144492683e-09 5.090484922476435e-09 -3.02545144492683e-09 2.5759849449968897e-05" pbc="T T T"
Pt       1.40360696       0.81037286      20.00000000        3       0.00198150       0.00239005       0.00095466
Pt       4.21082088       0.81037286      20.00000000        3       0.00000167      -0.00000144      -0.01218981
Pt       7.01803480       0.81037286      20.00000000        3      -0.00218917       0.00302476       0.00097620
Pt       2.80721392       3.24149143      20.00000000        3      -0.00152706      -0.00340834       0.00097415
Pt       5.61442784       3.24149143      20.00000000        3       0.00107968      -0.00291153       0.00095287
Pt       8.42164176       3.24149143      20.00000000        3       0.00000118       0.00000046       0.03240573
Pt       4.21082088       5.67261000      20.00000000        3       0.00000227       0.00000213      -0.01432851
Pt       7.01803480       5.67261000      20.00000000        3       0.00371306       0.00038238       0.00097555
Pt       9.82524872       5.67261000      20.00000000        3      -0.00306388       0.00052181       0.00095224
Pt      -0.00000000       1.62074571      22.29208057        2      -0.00261005       0.12158869       0.04922083
Pt       2.80721392       1.62074571      22.29208057        2      -0.14878915       0.08583450       0.01205489
Pt       5.61442784       1.62074571      22.29208057        2       0.14873247       0.08593490       0.01205568
Pt       1.40360696       4.05186428      22.29208057        2      -0.10400069      -0.06306116       0.04921480
Pt       4.21082088       4.05186428      22.29208057        2       0.00524284      -0.02981980      -0.07349107
Pt       7.01803480       4.05186428      22.29208057        2       0.10660572      -0.05853539       0.04922060
Pt       2.80721392       6.48298285      22.29208057        2      -0.02843757       0.01038180      -0.07348888
Pt       5.61442784       6.48298285      22.29208057        2       0.02320219       0.01944733      -0.07348579
Pt       8.42164176       6.48298285      22.29208057        2       0.00005683      -0.17177130       0.01205469
Pt      -0.00860703      -0.01200420      24.56953949        1       0.02005167       0.02606430      -0.00908211
Pt       2.81098310       0.00392348      24.56071294        1      -0.01565005      -0.02143892       0.02083966
Pt       5.60914520       0.00130216      24.56071258        1       0.02639189      -0.00283359       0.02083859
Pt       1.42528260       2.41046119      24.61256611        1      -0.01475105       0.02396178       0.01037954
Pt       4.21233473       2.42589249      24.56071325        1      -0.01074084       0.02427163       0.02083805
Pt       6.98930819       2.42267567      24.61256658        1       0.02812424       0.00079231       0.01037801
Pt       2.82191296       4.86078451      24.56953471        1      -0.03259619       0.00433450      -0.00905019
Pt       5.60833574       4.87569353      24.56953829        1       0.01254780      -0.03039840      -0.00907184
Pt       8.42869412       4.89133659      24.61256622        1      -0.01337959      -0.02475336       0.01037753
N        8.42164151       3.24149164      26.94050843        0      -0.00002825       0.00001544      -0.04886237
H        9.19721164       2.69240085      26.52021930        0      -0.01088649       0.02137236       0.00245081
H        7.55832984       2.84437329      26.52021793        0       0.02397558      -0.00124602       0.00246808
H        8.50938253       4.18770032      26.52021718        0      -0.01306054      -0.02014177       0.00246730
