31
Lattice="8.421641763931781 0.0 0.0 4.2108208819658905 7.293355709136913 0.0 0.0 0.0 44.584161137365626" Properties=species:S:1:pos:R:3:tags:I:1:forces:R:3 energy=-172.80471801757812 free_energy=-172.80471801757812 stress="0.010280556976795197 -1.3451287195209716e-08 1.906143154428719e-08 -1.3451287195209716e-08 0.010280552320182323 -5.860451679495782e-09 1.906143154428719e-08 -5.860451679495782e-09 -4.897739927400835e-05" pbc="T T T"
Pt       1.40360696       0.81037286      20.00000000        3      -0.00020535       0.00324624      -0.00452897
Pt       4.21082088       0.81037286      20.00000000        3       0.00149936       0.00067150      -0.01032925
Pt       7.01803480       0.81037286      20.00000000        3      -0.00133385       0.00095838      -0.01033032
Pt       2.80721392       3.24149143      20.00000000        3      -0.00074819       0.00003583       0.01849717
Pt       5.61442784       3.24149143      20.00000000        3      -0.00016836      -0.00163351      -0.01033020
Pt       8.42164176       3.24149143      20.00000000        3       0.00040770       0.00063227       0.01849607
Pt       4.21082088       5.67261000      20.00000000        3      -0.00270811      -0.00180227      -0.00452843
Pt       7.01803480       5.67261000      20.00000000        3       0.00291481      -0.00144313      -0.00452974
Pt       9.82524872       5.67261000      20.00000000        3       0.00034235      -0.00066512       0.01849845
Pt      -0.00000000       1.62074571      22.29208057        2       0.11679702       0.09314395       0.00263997
Pt       2.80721392       1.62074571      22.29208057        2      -0.12142487       0.09946068      -0.00070491
Pt       5.61442784       1.62074571      22.29208057        2      -0.00000254      -0.00000172      -0.11654218
Pt       1.40360696       4.05186428      22.29208057        2       0.00000147       0.00000122       0.08542086
Pt       4.21082088       4.05186428      22.29208057        2      -0.13906682       0.05457564       0.00264138
Pt       7.01803480       4.05186428      22.29208057        2       0.14684752       0.05542858      -0.00070116
Pt       2.80721392       6.48298285      22.29208057        2      -0.02542302      -0.15489057      -0.00070259
Pt       5.61442784       6.48298285      22.29208057        2      -0.00000153      -0.00000019      -0.07504711
Pt       8.42164176       6.48298285      22.29208057        2       0.02227107      -0.14772053       0.00264079
Pt      -0.00337577      -0.00540649      24.55888237        1       0.02363539       0.01247715       0.02344398
Pt       2.80422036       0.00562633      24.55888242        1      -0.00100961      -0.02671069       0.02344429
Pt       5.61450616       0.00955229      24.56697825        1      -0.00304311       0.00659984       0.01111175
Pt       1.39679692       2.41008143      24.61569982        1       0.02008383       0.00547523       0.00406064
Pt       4.21905475       2.42627372      24.56697904        1       0.00723441      -0.00066441       0.01111175
Pt       7.00972234       2.42640970      24.56697807        1      -0.00419411      -0.00593268       0.01111268
Pt       2.82883629       4.86685753      24.61570169        1      -0.01477855       0.01465352       0.00405510
Pt       5.62079702       4.86201579      24.55888192        1      -0.02262438       0.01423062       0.02344453
Pt       8.40682913       4.87865243      24.61570182        1      -0.00530313      -0.02012778       0.00405822
N        9.82525062       4.05186323      26.95923190        0      -0.00013560       0.00002418       0.01840881
H        9.89055662       3.10521388      26.53934427        0      -0.00947846      -0.01071392      -0.01494500
H        8.97277101       4.46863056      26.53934697        0      -0.00445232       0.01355001      -0.01490115
H       10.61241747       4.58174877      26.53934912        0       0.01406708      -0.00285857      -0.01496562
