31
Lattice="8.421641763931781 0.0 0.0 4.2108208819658905 7.293355709136913 0.0 0.0 0.0 44.584161137365626" Properties=species:S:1:pos:R:3:tags:I:1:forces:R:3 energy=-172.80364990234375 free_energy=-172.80364990234375 stress="0.010243694297969341 -4.374067430035211e-05 -6.095631397329271e-05 -4.374067430035211e-05 0.010294200852513313 -3.51918424712494e-05 -6.095631397329271e-05 -3.51918424712494e-05 -1.0965106412186287e-05" pbc="T T T"
Pt       1.40360696       0.81037286      20.00000000        3       0.00197199       0.00391061       0.00331214
Pt       4.21082088       0.81037286      20.00000000        3       0.00083815       0.00048150      -0.00620964
Pt       7.01803480       0.81037286      20.00000000        3      -0.00232227       0.00122348      -0.00127289
Pt       2.80721392       3.24149143      20.00000000        3      -0.00048017      -0.00361445       0.00617602
Pt       5.61442784       3.24149143      20.00000000        3      -0.00010070      -0.00262213      -0.00127202
Pt       8.42164176       3.24149143      20.00000000        3       0.00266139       0.00153647       0.03510404
Pt       4.21082088       5.67261000      20.00000000        3       0.00064157       0.00037043      -0.01569104
Pt       7.01803480       5.67261000      20.00000000        3       0.00437252      -0.00024744       0.00331053
Pt       9.82524872       5.67261000      20.00000000        3      -0.00337184       0.00139227       0.00617558
Pt      -0.00000000       1.62074571      22.29208057        2       0.04753738       0.11495781       0.03033504
Pt       2.80721392       1.62074571      22.29208057        2      -0.16864559       0.08359286       0.05839513
Pt       5.61442784       1.62074571      22.29208057        2       0.07065280       0.04079260      -0.03735863
Pt       1.40360696       4.05186428      22.29208057        2      -0.12040374      -0.06951675       0.04897929
Pt       4.21082088       4.05186428      22.29208057        2      -0.01788956      -0.05014101      -0.08589989
Pt       7.01803480       4.05186428      22.29208057        2       0.12332194      -0.01631375       0.03033521
Pt       2.80721392       6.48298285      22.29208057        2      -0.05236658       0.00957623      -0.08589988
Pt       5.61442784       6.48298285      22.29208057        2       0.02277626       0.01315216      -0.07215956
Pt       8.42164176       6.48298285      22.29208057        2      -0.01192904      -0.18784732       0.05839236
Pt      -0.01818340      -0.01401564      24.56862838        1       0.04336025       0.02349372       0.00071801
Pt       2.78803443      -0.01107379      24.56182831        1       0.04228182       0.02441238       0.00093375
Pt       5.60211364       0.00197416      24.56839002        1      -0.00625376       0.01060559      -0.01237762
Pt       1.42115019       2.40594900      24.62284124        1       0.00361305       0.01726038      -0.00582756
Pt       4.20637359       2.41946728      24.56839111        1       0.00605762      -0.01072203      -0.01238653
Pt       6.99164701       2.41588330      24.59719106        1      -0.00688849      -0.00397506       0.01626433
Pt       2.81349210       4.86586165      24.56439288        1      -0.00974982      -0.00562558       0.01069744
Pt       5.59319770       4.85349683      24.56862891        1       0.04202842       0.02580522       0.00071912
Pt       8.40861486       4.89001424      24.62284106        1       0.01675777      -0.00549968      -0.00582883
N        8.71544755       3.41112040      26.90725824        0       0.00604215       0.00345344      -0.04219493
H        8.76085183       4.38342774      26.53905003        0      -0.01643891      -0.03746860       0.01654509
H        9.58019313       2.96428784      26.53904827        0      -0.04070044       0.00451423       0.01655677
H        7.94741427       2.96769600      26.35831204        0       0.02262578       0.01306276       0.04142882
