31
Lattice="8.421641763931781 0.0 0.0 4.2108208819658905 7.293355709136913 0.0 0.0 0.0 44.584161137365626" Properties=species:S:1:pos:R:3:tags:I:1:forces:R:3 energy=-172.64501953125 free_energy=-172.64501953125 stress="0.010480819270014763 6.245917116842747e-10 -1.3766892070776748e-09 6.245917116842747e-10 0.010480819270014763 -3.1832536606657413e-10 -1.3766892070776748e-09 -3.1832536606657413e-10 5.025666268920759e-06" pbc="T T T"
Pt       1.40360696       0.81037286      20.00000000        3       0.00000061       0.00430096       0.00125557
Pt       4.21082088       0.81037286      20.00000000        3       0.00206607       0.00119013      -0.00083345
Pt       7.01803480       0.81037286      20.00000000        3      -0.00206697       0.00118942      -0.00083372
Pt       2.80721392       3.24149143      20.00000000        3      -0.00082752       0.00047850       0.03291214
Pt       5.61442784       3.24149143      20.00000000        3      -0.00000198      -0.00238385      -0.00083500
Pt       8.42164176       3.24149143      20.00000000        3       0.00083020       0.00047880       0.03291032
Pt       4.21082088       5.67261000      20.00000000        3      -0.00372495      -0.00215007       0.00125518
Pt       7.01803480       5.67261000      20.00000000        3       0.00372484      -0.00214929       0.00125372
Pt       9.82524872       5.67261000      20.00000000        3      -0.00000074      -0.00095440       0.03291184
Pt      -0.00000000       1.62074571      22.29208057        2       0.08613688       0.09566943      -0.01345610
Pt       2.80721392       1.62074571      22.29208057        2      -0.08613423       0.09567050      -0.01345642
Pt       5.61442784       1.62074571      22.29208057        2      -0.00000178      -0.00000167      -0.05686459
Pt       1.40360696       4.05186428      22.29208057        2       0.00000263      -0.00000145       0.03622647
Pt       4.21082088       4.05186428      22.29208057        2      -0.12592150       0.02675860      -0.01345779
Pt       7.01803480       4.05186428      22.29208057        2       0.12591755       0.02675733      -0.01345861
Pt       2.80721392       6.48298285      22.29208057        2      -0.03978604      -0.12242991      -0.01345723
Pt       5.61442784       6.48298285      22.29208057        2      -0.00000274       0.00000194      -0.08502284
Pt       8.42164176       6.48298285      22.29208057        2       0.03978894      -0.12242588      -0.01346095
Pt       0.00148019      -0.00085447      24.55778856        1       0.00109317      -0.00063061       0.03598788
Pt       2.80573442      -0.00085480      24.55778900        1      -0.00109647      -0.00062640       0.03598845
Pt       5.61442763       0.00255797      24.58008568        1       0.00000195       0.02804183       0.00056902
Pt       1.40360729       2.40505237      24.63193119        1      -0.00000102       0.03446507      -0.01021288
Pt       4.21303631       2.42983952      24.58008602        1       0.02428251      -0.01402194       0.00057010
Pt       7.01581909       2.42983930      24.58008572        1      -0.02428211      -0.01402143       0.00056989
Pt       2.82978788       4.87527022      24.63193070        1      -0.02984863      -0.01723273      -0.01021138
Pt       5.61442779       4.86394547      24.55778870        1      -0.00000131       0.00126376       0.03598855
Pt       8.39906737       4.87527045      24.63193022        1       0.02985239      -0.01723626      -0.01020126
N        9.82524882       4.05186420      26.87787140        0      -0.00000294      -0.00000315       0.01672554
H        9.02915575       3.59223981      26.36492358        0       0.01376234       0.00794445      -0.00312057
H        9.82524912       4.97111273      26.36492369        0      -0.00000153      -0.01588160      -0.00312233
H       10.62134132       3.59224005      26.36492319        0      -0.01375756       0.00794008      -0.00311950
