31
Lattice="8.421641763931781 0.0 0.0 4.2108208819658905 7.293355709136913 0.0 0.0 0.0 44.584161137365626" Properties=species:S:1:pos:R:3:tags:I:1:forces:R:3 energy=-172.65090942382812 free_energy=-172.65090942382812 stress="0.010420504957437515 -4.488112548273193e-09 1.0518340864962283e-08 -4.488112548273193e-09 0.010420517064630985 2.391521425337828e-09 1.0518340864962283e-08 2.391521425337828e-09 -9.6620669864933e-06" pbc="T T T"
Pt       1.40360696       0.81037286      20.00000000        3       0.00161999       0.00377478       0.01037842
Pt       4.21082088       0.81037286      20.00000000        3       0.00000165      -0.00000134      -0.00922620
Pt       7.01803480       0.81037286      20.00000000        3      -0.00162119       0.00377538       0.01037788
Pt       2.80721392       3.24149143      20.00000000        3      -0.00246082      -0.00329144       0.01037773
Pt       5.61442784       3.24149143      20.00000000        3       0.00246021      -0.00329068       0.01037863
Pt       8.42164176       3.24149143      20.00000000        3       0.00000113       0.00000042       0.05188355
Pt       4.21082088       5.67261000      20.00000000        3       0.00000231       0.00000143      -0.00294724
Pt       7.01803480       5.67261000      20.00000000        3       0.00407899      -0.00048430       0.01037744
Pt       9.82524872       5.67261000      20.00000000        3      -0.00408231      -0.00048407       0.01037794
Pt      -0.00000000       1.62074571      22.29208057        2       0.00000178       0.10560629      -0.00439644
Pt       2.80721392       1.62074571      22.29208057        2      -0.14262085       0.08234100      -0.01450013
Pt       5.61442784       1.62074571      22.29208057        2       0.14261977       0.08234145      -0.01450030
Pt       1.40360696       4.05186428      22.29208057        2      -0.09145892      -0.05280440      -0.00439713
Pt       4.21082088       4.05186428      22.29208057        2       0.00000196      -0.00523548      -0.04636738
Pt       7.01803480       4.05186428      22.29208057        2       0.09145644      -0.05280432      -0.00439663
Pt       2.80721392       6.48298285      22.29208057        2      -0.00453307       0.00261851      -0.04636787
Pt       5.61442784       6.48298285      22.29208057        2       0.00453182       0.00261906      -0.04636861
Pt       8.42164176       6.48298285      22.29208057        2       0.00000091      -0.16468254      -0.01450008
Pt       0.00000014       0.00060303      24.57922892        1       0.00000018      -0.02770366       0.00173213
Pt       2.81241615       0.00300325      24.55814358        1      -0.02220569      -0.01282049       0.03848270
Pt       5.60922576       0.00300300      24.55814367        1       0.02220549      -0.01282134       0.03848217
Pt       1.43391752       2.41361870      24.62834665        1      -0.03289580       0.01899096      -0.01525106
Pt       4.21082079       2.42511157      24.55814340        1       0.00000183       0.02564143       0.03848180
Pt       6.98772441       2.41361874      24.62834664        1       0.03289325       0.01899124      -0.01525138
Pt       2.80669136       4.86193537      24.57922974        1       0.02399298       0.01385339       0.00173335
Pt       5.61495030       4.86193561      24.57923003        1      -0.02399269       0.01385066       0.00173275
Pt       8.42164131       4.89723640      24.62834677        1       0.00000031      -0.03798258      -0.01525050
N        8.42164253       3.24149186      26.85409246        0      -0.00005646      -0.00002166       0.03308129
H        9.21867630       3.70165975      26.34144153        0      -0.01375508      -0.00794098      -0.00474122
H        8.42164143       2.32115495      26.34144111        0       0.00000671       0.01592542      -0.00471023
H        7.62460676       3.70165975      26.34144036        0       0.01380508      -0.00796194      -0.00470528
