31
Lattice="8.421641763931781 0.0 0.0 4.2108208819658905 7.293355709136913 0.0 0.0 0.0 44.584161137365626" Properties=species:S:1:pos:R:3:tags:I:1:forces:R:3 energy=-172.57716369628906 free_energy=-172.57716369628906 stress="0.010478958487510681 -1.3984550184531486e-09 5.604702812966877e-10 -1.3984550184531486e-09 0.010478970594704151 5.142178904904426e-10 5.604702812966877e-10 5.142178904904426e-10 -0.00018221375648863614" pbc="T T T"
Pt       1.40360696       0.81037286      20.00000000        3      -0.00008703       0.00047736      -0.00420791
Pt       4.21082088       0.81037286      20.00000000        3       0.00106855       0.00043673      -0.00487044
Pt       7.01803480       0.81037286      20.00000000        3      -0.00091550       0.00070176      -0.00487185
Pt       2.80721392       3.24149143      20.00000000        3      -0.00009747      -0.00000924       0.00331897
Pt       5.61442784       3.24149143      20.00000000        3      -0.00015576      -0.00114302      -0.00487161
Pt       8.42164176       3.24149143      20.00000000        3       0.00004298       0.00009036       0.00331730
Pt       4.21082088       5.67261000      20.00000000        3      -0.00036945      -0.00031469      -0.00420800
Pt       7.01803480       5.67261000      20.00000000        3       0.00045759      -0.00016101      -0.00420877
Pt       9.82524872       5.67261000      20.00000000        3       0.00005600      -0.00007801       0.00331923
Pt      -0.00000000       1.62074571      22.29208057        2       0.02598458       0.03246824      -0.00567417
Pt       2.80721392       1.62074571      22.29208057        2      -0.02726826       0.03339252      -0.00389077
Pt       5.61442784       1.62074571      22.29208057        2      -0.00000243      -0.00000165      -0.05327208
Pt       1.40360696       4.05186428      22.29208057        2       0.00000117       0.00000028       0.05031763
Pt       4.21082088       4.05186428      22.29208057        2      -0.04111122       0.00626646      -0.00567500
Pt       7.01803480       4.05186428      22.29208057        2       0.04255241       0.00691891      -0.00388977
Pt       2.80721392       6.48298285      22.29208057        2      -0.01528444      -0.04031143      -0.00389142
Pt       5.61442784       6.48298285      22.29208057        2      -0.00000163       0.00000183      -0.03515503
Pt       8.42164176       6.48298285      22.29208057        2       0.01512993      -0.03873394      -0.00567635
Pt       0.00112253      -0.00153376      24.57707633        1      -0.00738642      -0.00062334      -0.00708362
Pt       2.80532464      -0.00020519      24.57707635        1       0.00315369       0.00670787      -0.00708398
Pt       5.61492286       0.00689220      24.57902263        1       0.00323681      -0.01788690      -0.00410718
Pt       1.40101579       2.41651304      24.58942613        1      -0.00550896       0.02318121       0.00538476
Pt       4.21654223       2.42724357      24.57902250        1      -0.01710919       0.00614000      -0.00410637
Pt       7.01181807       2.42810122      24.57902266        1       0.01387307       0.01174675      -0.00410587
Pt       2.82115831       4.86729567      24.58942615        1      -0.01732143      -0.01636072       0.00538506
Pt       5.61519476       4.86397600      24.57707639        1       0.00423408      -0.00608555      -0.00708306
Pt       8.41028872       4.87178424      24.58942633        1       0.02282825      -0.00682081       0.00538510
N        9.82524911       4.05186420      27.59415637        0      -0.00000030       0.00000615       0.00236681
H        9.35687428       3.23095321      27.19876083        0       0.03266481       0.00886130       0.03304463
H        9.34850597       4.86794396      27.19876072        0      -0.00865301      -0.03272681       0.03304763
H       10.77036544       4.05669553      27.19876091        0      -0.02401149       0.02385943       0.03304605
