31
Lattice="8.421641763931781 0.0 0.0 4.2108208819658905 7.293355709136913 0.0 0.0 0.0 44.584161137365626" Properties=species:S:1:pos:R:3:tags:I:1:forces:R:3 energy=-173.710693359375 free_energy=-173.710693359375 stress="0.01091622095555067 4.531050201705966e-09 -2.8438427168708813e-09 4.531050201705966e-09 0.010916253551840782 -7.030365178906095e-09 -2.8438427168708813e-09 -7.030365178906095e-09 0.0002265176153741777" pbc="T T T"
Pt       1.40360696       0.81037286      20.00000000        3      -0.00238320      -0.00137954      -0.00228801
Pt       4.21082088       0.81037286      20.00000000        3       0.00000128       0.00388444       0.01204705
Pt       7.01803480       0.81037286      20.00000000        3       0.00238184      -0.00137882      -0.00229019
Pt       2.80721392       3.24149143      20.00000000        3       0.00336623      -0.00194328       0.01204568
Pt       5.61442784       3.24149143      20.00000000        3      -0.00336722      -0.00194276       0.01204583
Pt       8.42164176       3.24149143      20.00000000        3       0.00000138      -0.00614432      -0.00583780
Pt       4.21082088       5.67261000      20.00000000        3       0.00000219       0.00275485      -0.00228864
Pt       7.01803480       5.67261000      20.00000000        3      -0.00532416       0.00307509      -0.00583670
Pt       9.82524872       5.67261000      20.00000000        3       0.00532085       0.00307528      -0.00583693
Pt      -0.00000000       1.62074571      22.29208057        2       0.00000318       0.00391521       0.04123053
Pt       2.80721392       1.62074571      22.29208057        2       0.05054248       0.02917858      -0.00923043
Pt       5.61442784       1.62074571      22.29208057        2      -0.05054426       0.02917958      -0.00922952
Pt       1.40360696       4.05186428      22.29208057        2       0.04816198      -0.02780503       0.06555246
Pt       4.21082088       4.05186428      22.29208057        2       0.00000259      -0.05835995      -0.00922972
Pt       7.01803480       4.05186428      22.29208057        2      -0.04816343      -0.02780470       0.06555465
Pt       2.80721392       6.48298285      22.29208057        2      -0.00339166      -0.00195859       0.04122923
Pt       5.61442784       6.48298285      22.29208057        2       0.00339159      -0.00195690       0.04123002
Pt       8.42164176       6.48298285      22.29208057        2       0.00000102       0.05561366       0.06555101
Pt       0.00000020      -0.00000019      24.60033513        1       0.00000443      -0.00000038      -0.04962206
Pt       2.80203360      -0.00740768      24.61113151        1      -0.01068497      -0.00517230      -0.04277988
Pt       5.61960922      -0.00740881      24.61113182        1       0.01068209      -0.00516767      -0.04277861
Pt       1.39460178       2.43033624      24.61113109        1      -0.00982072      -0.00666946      -0.04277793
Pt       4.21082200       2.43111883      24.65481395        1      -0.00000695      -0.00000039      -0.00597799
Pt       7.02704261       2.43033528      24.61113144        1       0.00981402      -0.00666252      -0.04277879
Pt       2.80338896       4.87042828      24.61113123        1       0.00086689       0.01183698      -0.04277888
Pt       5.61825388       4.87042923      24.61113133        1      -0.00086470       0.01183300      -0.04277974
Pt       8.42164197       4.86223765      24.60026331        1      -0.00000271      -0.00000148      -0.04451668
N        4.21081765       2.43111815      26.71808877        0       0.00002959      -0.00006828       0.04766399
H        5.05264900       2.91714838      27.03901669        0      -0.02509847      -0.01448828       0.00158519
H        4.21081919       1.45905620      27.03902291        0       0.00000249       0.02903096       0.00155143
H        3.36899004       2.91714815      27.03902358        0       0.02507623      -0.01447281       0.00157128
