31
Lattice="8.421641763931781 0.0 0.0 4.2108208819658905 7.293355709136913 0.0 0.0 0.0 44.584161137365626" Properties=species:S:1:pos:R:3:tags:I:1:forces:R:3 energy=-172.80630493164062 free_energy=-172.80630493164062 stress="0.01026924978941679 1.9379724491841444e-09 9.552481472496765e-09 1.9379724491841444e-09 0.010269253514707088 5.495873978134114e-09 9.552481472496765e-09 5.495873978134114e-09 9.028752174344845e-06" pbc="T T T"
Pt       1.40360696       0.81037286      20.00000000        3       0.00214443       0.00263968       0.00079578
Pt       4.21082088       0.81037286      20.00000000        3       0.00000194      -0.00000139      -0.00880894
Pt       7.01803480       0.81037286      20.00000000        3      -0.00214566       0.00264008       0.00079444
Pt       2.80721392       3.24149143      20.00000000        3      -0.00121520      -0.00317763       0.00079420
Pt       5.61442784       3.24149143      20.00000000        3       0.00121481      -0.00317737       0.00079465
Pt       8.42164176       3.24149143      20.00000000        3       0.00000114       0.00000027       0.03264260
Pt       4.21082088       5.67261000      20.00000000        3       0.00000277       0.00000157      -0.01720253
Pt       7.01803480       5.67261000      20.00000000        3       0.00335781       0.00053744       0.00079468
Pt       9.82524872       5.67261000      20.00000000        3      -0.00336099       0.00053782       0.00079414
Pt      -0.00000000       1.62074571      22.29208057        2       0.00000396       0.12738749       0.04131759
Pt       2.80721392       1.62074571      22.29208057        2      -0.13941312       0.08048894       0.02965551
Pt       5.61442784       1.62074571      22.29208057        2       0.13940947       0.08048776       0.02965117
Pt       1.40360696       4.05186428      22.29208057        2      -0.11032187      -0.06369534       0.04132026
Pt       4.21082088       4.05186428      22.29208057        2       0.00000105      -0.04157496      -0.08074318
Pt       7.01803480       4.05186428      22.29208057        2       0.11032099      -0.06369278       0.04131817
Pt       2.80721392       6.48298285      22.29208057        2      -0.03600372       0.02078847      -0.08074306
Pt       5.61442784       6.48298285      22.29208057        2       0.03600288       0.02078872      -0.08074437
Pt       8.42164176       6.48298285      22.29208057        2       0.00000067      -0.16097830       0.02965450
Pt       0.00000046      -0.01019359      24.56513546        1      -0.00000152       0.01071747       0.01351428
Pt       2.80876070       0.00089264      24.56436947        1       0.00933465       0.00539046      -0.00226471
Pt       5.61288094       0.00089275      24.56436926        1      -0.00933222       0.00538874      -0.00226405
Pt       1.42713089       2.41753705      24.61312602        1      -0.00275974       0.00159437      -0.00095225
Pt       4.21082102       2.42933230      24.56436928        1      -0.00000304      -0.01077792      -0.00226450
Pt       6.99451100       2.41753700      24.61312580        1       0.00276110       0.00159262      -0.00094104
Pt       2.81604204       4.86733376      24.56513563        1      -0.00928399      -0.00535977       0.01351576
Pt       5.60560000       4.86733363      24.56513555        1       0.00928191      -0.00535733       0.01351461
Pt       8.42164131       4.88939993      24.61312624        1       0.00000126      -0.00318894      -0.00095212
N        8.42164214       3.24149169      26.94056699        0      -0.00005343      -0.00003253      -0.03254837
H        8.42164175       4.18850046      26.51489005        0       0.00000731       0.03004012       0.00651012
H        9.24177505       2.76798708      26.51489033        0       0.02601948      -0.01501311       0.00651102
H        7.60150793       2.76798686      26.51488959        0      -0.02597307      -0.01499458       0.00653561
