31
Lattice="8.421641763931781 0.0 0.0 4.2108208819658905 7.293355709136913 0.0 0.0 0.0 44.584161137365626" Properties=species:S:1:pos:R:3:tags:I:1:forces:R:3 energy=-173.71029663085938 free_energy=-173.71029663085938 stress="0.010712318122386932 8.719256983091839e-10 -1.663216009362145e-09 8.719256983091839e-10 0.010712329298257828 2.5493236410767395e-09 -1.663216009362145e-09 2.5493236410767395e-09 4.452014309208607e-06" pbc="T T T"
Pt       1.40360696       0.81037286      20.00000000        3      -0.00266634      -0.00154258      -0.00639045
Pt       4.21082088       0.81037286      20.00000000        3       0.00000155       0.00475290       0.01275280
Pt       7.01803480       0.81037286      20.00000000        3       0.00266487      -0.00154273      -0.00639164
Pt       2.80721392       3.24149143      20.00000000        3       0.00411903      -0.00237768       0.01275146
Pt       5.61442784       3.24149143      20.00000000        3      -0.00411979      -0.00237708       0.01275149
Pt       8.42164176       3.24149143      20.00000000        3       0.00000136      -0.00611759      -0.00948513
Pt       4.21082088       5.67261000      20.00000000        3       0.00000225       0.00308131      -0.00639048
Pt       7.01803480       5.67261000      20.00000000        3      -0.00530064       0.00306181      -0.00948462
Pt       9.82524872       5.67261000      20.00000000        3       0.00529727       0.00306179      -0.00948364
Pt      -0.00000000       1.62074571      22.29208057        2       0.00000220       0.00789843      -0.00154058
Pt       2.80721392       1.62074571      22.29208057        2       0.07012059       0.04048233      -0.02523380
Pt       5.61442784       1.62074571      22.29208057        2      -0.07012153       0.04048147      -0.02523383
Pt       1.40360696       4.05186428      22.29208057        2       0.05494483      -0.03171844       0.03027706
Pt       4.21082088       4.05186428      22.29208057        2      -0.00000054      -0.08096553      -0.02523258
Pt       7.01803480       4.05186428      22.29208057        2      -0.05494417      -0.03172026       0.03027433
Pt       2.80721392       6.48298285      22.29208057        2      -0.00684204      -0.00395208      -0.00153869
Pt       5.61442784       6.48298285      22.29208057        2       0.00684003      -0.00394952      -0.00154259
Pt       8.42164176       6.48298285      22.29208057        2       0.00000218       0.06344278       0.03027343
Pt       0.00000049      -0.00000023      24.58865125        1      -0.00000149      -0.00000124       0.00399253
Pt       2.80209551      -0.00718379      24.60119119        1       0.00588139      -0.00190504      -0.00084931
Pt       5.61954661      -0.00718406      24.60119147        1      -0.00587941      -0.00190697      -0.00084904
Pt       1.39482689       2.43027731      24.60119139        1       0.00128748       0.00604727      -0.00084725
Pt       4.21082117       2.43111850      24.66375328        1       0.00000000      -0.00000126       0.01510927
Pt       7.02681551       2.43027729      24.60119120        1      -0.00128920       0.00604449      -0.00084767
Pt       2.80355240       4.87026155      24.60119164        1      -0.00459322      -0.00413824      -0.00085743
Pt       5.61808964       4.87026168      24.60119148        1       0.00458991      -0.00413925      -0.00084819
Pt       8.42164182       4.86223682      24.58850414        1       0.00000364       0.00000027       0.00131503
N        4.21082092       2.43111821      26.73316206        0      -0.00002146       0.00004129      -0.02627933
H        4.21082077       3.40380621      27.05193890        0       0.00000139      -0.02957234       0.00326802
H        5.05319252       1.94477524      27.05193926        0      -0.02556840       0.01476116       0.00328447
H        3.36844904       1.94477512      27.05193873        0       0.02558824       0.01477068       0.00327661
