31
Lattice="8.421641763931781 0.0 0.0 4.2108208819658905 7.293355709136913 0.0 0.0 0.0 44.584161137365626" Properties=species:S:1:pos:R:3:tags:I:1:forces:R:3 energy=-172.79193115234375 free_energy=-172.79193115234375 stress="0.010310111567378044 -4.897313221619015e-09 2.4813053833838694e-09 -4.897313221619015e-09 0.01031013298779726 7.286113934412697e-09 2.4813053833838694e-09 7.286113934412697e-09 -5.320395575836301e-05" pbc="T T T"
Pt       1.40360696       0.81037286      20.00000000        3       0.00026888       0.00262241      -0.00198102
Pt       4.21082088       0.81037286      20.00000000        3       0.00082392       0.00125903      -0.00642565
Pt       7.01803480       0.81037286      20.00000000        3      -0.00150485       0.00007984      -0.00642693
Pt       2.80721392       3.24149143      20.00000000        3       0.00056982       0.00048084       0.01711279
Pt       5.61442784       3.24149143      20.00000000        3       0.00067842      -0.00134224      -0.00642714
Pt       8.42164176       3.24149143      20.00000000        3       0.00013369      -0.00073229       0.01711217
Pt       4.21082088       5.67261000      20.00000000        3      -0.00240519      -0.00107925      -0.00198144
Pt       7.01803480       5.67261000      20.00000000        3       0.00213774      -0.00154243      -0.00198218
Pt       9.82524872       5.67261000      20.00000000        3      -0.00070199       0.00025434       0.01711303
Pt      -0.00000000       1.62074571      22.29208057        2       0.11871703       0.08205381       0.00726013
Pt       2.80721392       1.62074571      22.29208057        2      -0.10593814       0.07567491       0.01753040
Pt       5.61442784       1.62074571      22.29208057        2      -0.00000216      -0.00000244      -0.12336290
Pt       1.40360696       4.05186428      22.29208057        2       0.00000081      -0.00000009       0.07267065
Pt       4.21082088       4.05186428      22.29208057        2      -0.13042130       0.06177998       0.00725775
Pt       7.01803480       4.05186428      22.29208057        2       0.11850662       0.05390693       0.01752993
Pt       2.80721392       6.48298285      22.29208057        2      -0.01256850      -0.12958312       0.01753094
Pt       5.61442784       6.48298285      22.29208057        2      -0.00000142       0.00000448      -0.04818346
Pt       8.42164176       6.48298285      22.29208057        2       0.01170710      -0.14383502       0.00725821
Pt       0.00823502       0.00938948      24.56825852        1      -0.01508232      -0.02342729      -0.02906671
Pt       2.81122871      -0.01182676      24.56825775        1      -0.01275031       0.02477822      -0.02906589
Pt       5.60570998       0.01462070      24.57019492        1       0.02185206      -0.03447398      -0.00114690
Pt       1.42189093       2.40891799      24.60961019        1      -0.02603348      -0.01960839      -0.00390404
Pt       4.22784237       2.43135768      24.57019448        1      -0.04078266      -0.00168702      -0.00114629
Pt       7.00973140       2.41625774      24.57019435        1       0.01893027       0.03616155      -0.00114541
Pt       2.81729825       4.88917156      24.60961012        1       0.02999821      -0.01274294      -0.00390523
Pt       5.60217841       4.86467355      24.56825691        1       0.02783163      -0.00134887      -0.02905628
Pt       8.39327347       4.85750309      24.60960992        1      -0.00396375       0.03234883      -0.00390464
N        9.82524868       4.05186496      26.91369047        0      -0.00001256      -0.00005136       0.03993714
H       10.05918543       3.13617352      26.47645058        0      -0.03201773       0.00573714       0.02027919
H        8.91526878       4.30711390      26.47645083        0       0.02095187       0.02487758       0.02026556
H       10.50129133       4.71230462      26.47645077        0       0.01107827      -0.03056304       0.02025457
