31
Lattice="8.421641763931781 0.0 0.0 4.2108208819658905 7.293355709136913 0.0 0.0 0.0 44.584161137365626" Properties=species:S:1:pos:R:3:tags:I:1:forces:R:3 energy=-173.71633911132812 free_energy=-173.71633911132812 stress="0.0106833940371871 6.319744727534271e-09 4.355718008497433e-09 6.319744727534271e-09 0.010683371685445309 -1.8277777069641843e-09 4.355718008497433e-09 -1.8277777069641843e-09 -3.877051767631201e-06" pbc="T T T"
Pt       1.40360696       0.81037286      20.00000000        3      -0.00223418      -0.00210278      -0.00606558
Pt       4.21082088       0.81037286      20.00000000        3      -0.00052440       0.00464537       0.01212826
Pt       7.01803480       0.81037286      20.00000000        3       0.00293446      -0.00088779      -0.00606677
Pt       2.80721392       3.24149143      20.00000000        3       0.00428813      -0.00186836       0.01212621
Pt       5.61442784       3.24149143      20.00000000        3      -0.00376344      -0.00277834       0.01212642
Pt       8.42164176       3.24149143      20.00000000        3      -0.00075718      -0.00624176      -0.00914386
Pt       4.21082088       5.67261000      20.00000000        3      -0.00069940       0.00298715      -0.00606516
Pt       7.01803480       5.67261000      20.00000000        3      -0.00502935       0.00378031      -0.00914350
Pt       9.82524872       5.67261000      20.00000000        3       0.00578435       0.00246631      -0.00914338
Pt      -0.00000000       1.62074571      22.29208057        2      -0.00917927       0.00729267      -0.00012059
Pt       2.80721392       1.62074571      22.29208057        2       0.06796831       0.03409888      -0.02886284
Pt       5.61442784       1.62074571      22.29208057        2      -0.06351887       0.04180926      -0.02885925
Pt       1.40360696       4.05186428      22.29208057        2       0.05687321      -0.02531958       0.03253683
Pt       4.21082088       4.05186428      22.29208057        2      -0.00444709      -0.07591285      -0.02886255
Pt       7.01803480       4.05186428      22.29208057        2      -0.05036637      -0.03659272       0.03254682
Pt       2.80721392       6.48298285      22.29208057        2      -0.00172575      -0.01159663      -0.00012429
Pt       5.61442784       6.48298285      22.29208057        2       0.01090939       0.00430481      -0.00012159
Pt       8.42164176       6.48298285      22.29208057        2      -0.00650915       0.06191621       0.03254146
Pt       0.00000086      -0.00000104      24.58913802        1       0.00000450       0.00000520      -0.00109306
Pt       2.80291440      -0.00402848      24.60743724        1       0.00989873       0.00586474      -0.00833997
Pt       5.62162335      -0.01011678      24.59558564        1      -0.00137483      -0.00801403       0.00795479
Pt       1.39125031       2.42994711      24.59558412        1      -0.00627072       0.00518387       0.00795589
Pt       4.21081927       2.43111946      24.65947926        1       0.00000471      -0.00000589       0.00708607
Pt       7.02367490       2.42940677      24.60743773        1      -0.01004111       0.00564753      -0.00833991
Pt       2.80587501       4.86797614      24.60743766        1       0.00014082      -0.01150793      -0.00833787
Pt       5.61959010       4.87352503      24.59558540        1       0.00764595       0.00282585       0.00795361
Pt       8.42164449       4.86223680      24.58941647        1      -0.00002198       0.00000162      -0.00294656
N        4.21081634       2.43111841      26.72622187        0       0.00010394      -0.00003141      -0.00206351
H        5.18293594       2.43368089      27.04595861        0       0.00070190       0.00119786      -0.00042769
H        3.72697945       1.58795935      27.04596436        0       0.00065540      -0.00126803      -0.00041870
H        3.72254256       3.27171407      27.04596800        0      -0.00145074       0.00010034      -0.00040970
