31
Lattice="8.421641763931781 0.0 0.0 4.2108208819658905 7.293355709136913 0.0 0.0 0.0 44.584161137365626" Properties=species:S:1:pos:R:3:tags:I:1:forces:R:3 energy=-172.79193115234375 free_energy=-172.79193115234375 stress="0.010310127399861813 -4.4946455446392974e-09 -1.7086182468872835e-09 -4.4946455446392974e-09 0.01031014509499073 9.119885291397622e-09 -1.7086182468872835e-09 9.119885291397622e-09 -5.320983109413646e-05" pbc="T T T"
Pt       1.40360696       0.81037286      20.00000000        3       0.00026887       0.00262292      -0.00198150
Pt       4.21082088       0.81037286      20.00000000        3       0.00082388       0.00125864      -0.00642532
Pt       7.01803480       0.81037286      20.00000000        3      -0.00150512       0.00007991      -0.00642797
Pt       2.80721392       3.24149143      20.00000000        3       0.00056969       0.00048045       0.01711407
Pt       5.61442784       3.24149143      20.00000000        3       0.00067824      -0.00134239      -0.00642759
Pt       8.42164176       3.24149143      20.00000000        3       0.00013401      -0.00073210       0.01711285
Pt       4.21082088       5.67261000      20.00000000        3      -0.00240570      -0.00107955      -0.00198150
Pt       7.01803480       5.67261000      20.00000000        3       0.00213817      -0.00154240      -0.00198218
Pt       9.82524872       5.67261000      20.00000000        3      -0.00070244       0.00025449       0.01711434
Pt      -0.00000000       1.62074571      22.29208057        2       0.11871856       0.08205822       0.00726036
Pt       2.80721392       1.62074571      22.29208057        2      -0.10593996       0.07568000       0.01753205
Pt       5.61442784       1.62074571      22.29208057        2      -0.00000260      -0.00000136      -0.12336123
Pt       1.40360696       4.05186428      22.29208057        2       0.00000127       0.00000042       0.07267492
Pt       4.21082088       4.05186428      22.29208057        2      -0.13042358       0.06178078       0.00726027
Pt       7.01803480       4.05186428      22.29208057        2       0.11850951       0.05390759       0.01753265
Pt       2.80721392       6.48298285      22.29208057        2      -0.01257073      -0.12958761       0.01753148
Pt       5.61442784       6.48298285      22.29208057        2      -0.00000165       0.00000166      -0.04818715
Pt       8.42164176       6.48298285      22.29208057        2       0.01170959      -0.14383917       0.00725758
Pt       0.00823503       0.00938993      24.56825650        1      -0.01508312      -0.02342930      -0.02905770
Pt       2.81122887      -0.01182685      24.56825694        1      -0.01274899       0.02477823      -0.02905701
Pt       5.60570948       0.01462081      24.57019377        1       0.02185361      -0.03447148      -0.00114678
Pt       1.42189144       2.40891795      24.60961140        1      -0.02603461      -0.01961351      -0.00391920
Pt       4.22784225       2.43135820      24.57019392        1      -0.04078067      -0.00168949      -0.00114790
Pt       7.00973173       2.41625802      24.57019391        1       0.01892563       0.03616051      -0.00114605
Pt       2.81729787       4.88917210      24.60961139        1       0.03000281      -0.01274112      -0.00391945
Pt       5.60217822       4.86467356      24.56825714        1       0.02783284      -0.00134849      -0.02905729
Pt       8.39327296       4.85750267      24.60961144        1      -0.00396713       0.03235399      -0.00391794
N        9.82524863       4.05186480      26.91368952        0       0.00000281      -0.00005573       0.03995329
H       10.50129318       4.71230342      26.47644912        0       0.01107029      -0.03056494       0.02025625
H       10.05918387       3.13617257      26.47644865        0      -0.03202281       0.00574440       0.02028391
H        8.91526872       4.30711625      26.47644904        0       0.02094941       0.02487641       0.02026034
