31
Lattice="8.421641763931781 0.0 0.0 4.2108208819658905 7.293355709136913 0.0 0.0 0.0 44.584161137365626" Properties=species:S:1:pos:R:3:tags:I:1:forces:R:3 energy=-173.71029663085938 free_energy=-173.71029663085938 stress="0.010712283663451672 -5.384609980119137e-10 -7.76768316335108e-10 -5.384609980119137e-10 0.01071231160312891 8.401612738850872e-09 -7.76768316335108e-10 8.401612738850872e-09 4.430378794495482e-06" pbc="T T T"
Pt       1.40360696       0.81037286      20.00000000        3      -0.00266651      -0.00154251      -0.00639087
Pt       4.21082088       0.81037286      20.00000000        3       0.00000177       0.00475334       0.01275346
Pt       7.01803480       0.81037286      20.00000000        3       0.00266449      -0.00154241      -0.00639147
Pt       2.80721392       3.24149143      20.00000000        3       0.00411897      -0.00237802       0.01275101
Pt       5.61442784       3.24149143      20.00000000        3      -0.00411930      -0.00237743       0.01275182
Pt       8.42164176       3.24149143      20.00000000        3       0.00000134      -0.00611766      -0.00948483
Pt       4.21082088       5.67261000      20.00000000        3       0.00000227       0.00308159      -0.00639153
Pt       7.01803480       5.67261000      20.00000000        3      -0.00530049       0.00306172      -0.00948423
Pt       9.82524872       5.67261000      20.00000000        3       0.00529714       0.00306153      -0.00948370
Pt      -0.00000000       1.62074571      22.29208057        2       0.00000186       0.00789863      -0.00154246
Pt       2.80721392       1.62074571      22.29208057        2       0.07012083       0.04048192      -0.02523286
Pt       5.61442784       1.62074571      22.29208057        2      -0.07012203       0.04048228      -0.02523388
Pt       1.40360696       4.05186428      22.29208057        2       0.05494270      -0.03172059       0.03027337
Pt       4.21082088       4.05186428      22.29208057        2       0.00000194      -0.08096769      -0.02523322
Pt       7.01803480       4.05186428      22.29208057        2      -0.05494457      -0.03171967       0.03027552
Pt       2.80721392       6.48298285      22.29208057        2      -0.00684131      -0.00394971      -0.00154331
Pt       5.61442784       6.48298285      22.29208057        2       0.00684125      -0.00394926      -0.00154387
Pt       8.42164176       6.48298285      22.29208057        2       0.00000105       0.06344370       0.03027279
Pt       0.00000027      -0.00000032      24.58865181        1      -0.00000061       0.00000158       0.00399375
Pt       2.80209521      -0.00718431      24.60119132        1       0.00588335      -0.00190151      -0.00084849
Pt       5.61954675      -0.00718430      24.60119126        1      -0.00588372      -0.00190144      -0.00084883
Pt       1.39482612       2.43027726      24.60119098        1       0.00129401       0.00604514      -0.00084805
Pt       4.21082118       2.43111850      24.66375327        1      -0.00000133      -0.00000174       0.01510391
Pt       7.02681558       2.43027731      24.60119132        1      -0.00129144       0.00604676      -0.00084746
Pt       2.80355205       4.87026216      24.60119083        1      -0.00458987      -0.00414462      -0.00084855
Pt       5.61808969       4.87026192      24.60119085        1       0.00459211      -0.00414446      -0.00084892
Pt       8.42164190       4.86223692      24.58850389        1      -0.00000370      -0.00000059       0.00131431
N        4.21082094       2.43111764      26.73316189        0      -0.00002140       0.00009425      -0.02633995
H        3.36844897       1.94477502      27.05193523        0       0.02554974       0.01474725       0.00330460
H        4.21082082       3.40380668      27.05193607        0       0.00000174      -0.02957813       0.00328022
H        5.05319271       1.94477504      27.05193512        0      -0.02553038       0.01473796       0.00331186
