31
Lattice="8.421641763931781 0.0 0.0 4.2108208819658905 7.293355709136913 0.0 0.0 0.0 44.584161137365626" Properties=species:S:1:pos:R:3:tags:I:1:forces:R:3 energy=-172.80076599121094 free_energy=-172.80076599121094 stress="0.010380547493696213 3.659381464515832e-09 -5.713532424955758e-10 3.659381464515832e-09 0.010380513034760952 1.2911222313505277e-08 -5.713532424955758e-10 1.2911222313505277e-08 0.00013821711763739586" pbc="T T T"
Pt       1.40360696       0.81037286      20.00000000        3       0.00175831       0.00301137       0.00178072
Pt       4.21082088       0.81037286      20.00000000        3       0.00000186      -0.00000151      -0.00916937
Pt       7.01803480       0.81037286      20.00000000        3      -0.00208944       0.00282839       0.00179332
Pt       2.80721392       3.24149143      20.00000000        3      -0.00140673      -0.00322331       0.00179303
Pt       5.61442784       3.24149143      20.00000000        3       0.00172962      -0.00302997       0.00178063
Pt       8.42164176       3.24149143      20.00000000        3       0.00000129       0.00000058       0.03522825
Pt       4.21082088       5.67261000      20.00000000        3       0.00000246       0.00000189      -0.01458311
Pt       7.01803480       5.67261000      20.00000000        3       0.00349262       0.00039467       0.00179264
Pt       9.82524872       5.67261000      20.00000000        3      -0.00349020       0.00001803       0.00177893
Pt      -0.00000000       1.62074571      22.29208057        2       0.00085502       0.12743455       0.05055868
Pt       2.80721392       1.62074571      22.29208057        2      -0.13852169       0.08506064       0.03909189
Pt       5.61442784       1.62074571      22.29208057        2       0.14292085       0.07743312       0.03908758
Pt       1.40360696       4.05186428      22.29208057        2      -0.11078713      -0.06298510       0.05055716
Pt       4.21082088       4.05186428      22.29208057        2      -0.00004134      -0.03188172      -0.06161731
Pt       7.01803480       4.05186428      22.29208057        2       0.10993436      -0.06445757       0.05055558
Pt       2.80721392       6.48298285      22.29208057        2      -0.02758471       0.01597696      -0.06162057
Pt       5.61442784       6.48298285      22.29208057        2       0.02762586       0.01590494      -0.06162085
Pt       8.42164176       6.48298285      22.29208057        2      -0.00440137      -0.16248961       0.03908090
Pt      -0.00145376      -0.00628033      24.56942188        1      -0.00358910      -0.02454048      -0.00744851
Pt       2.80581184       0.00421282      24.56545622        1       0.02554870      -0.01175978      -0.00535122
Pt       5.61147876      -0.00332298      24.56545716        1      -0.00257724       0.02802397      -0.00535226
Pt       1.42917528       2.41956515      24.61814798        1      -0.01123668      -0.01085090      -0.00884688
Pt       4.21517238       2.43022547      24.56545755        1      -0.02297564      -0.01624446      -0.00536296
Pt       6.99524495       2.41475212      24.61814763        1      -0.00377136       0.01515590      -0.00883509
Pt       2.81337921       4.86411777      24.56942086        1       0.02305153       0.00916038      -0.00744678
Pt       5.60971683       4.86663598      24.56942109        1      -0.01946462       0.01537880      -0.00744815
Pt       8.41886238       4.89015715      24.61814717        1       0.01501628      -0.00431898      -0.00883498
N        8.42164079       3.24149267      26.94315513        0       0.00000276      -0.00009806      -0.00875977
H        9.15260533       2.63569652      26.52136146        0       0.00883508       0.02316929      -0.01084059
H        7.53152298       2.91135736      26.52136246        0       0.01566972      -0.01924346      -0.01085374
H        8.58079673       4.17742073      26.52136286        0      -0.02450895      -0.00382850      -0.01088719
