31
Lattice="8.421641763931781 0.0 0.0 4.2108208819658905 7.293355709136913 0.0 0.0 0.0 44.584161137365626" Properties=species:S:1:pos:R:3:tags:I:1:forces:R:3 energy=-173.7103729248047 free_energy=-173.7103729248047 stress="0.010685796849429607 2.7483104680925408e-09 -9.219327558318557e-12 2.7483104680925408e-09 0.010685796849429607 -2.7139277491983194e-09 -9.219327558318557e-12 -2.7139277491983194e-09 -2.5595696570235305e-05" pbc="T T T"
Pt       1.40360696       0.81037286      20.00000000        3      -0.00261720      -0.00151479      -0.00632280
Pt       4.21082088       0.81037286      20.00000000        3       0.00000188       0.00467892       0.01230946
Pt       7.01803480       0.81037286      20.00000000        3       0.00261587      -0.00151403      -0.00632370
Pt       2.80721392       3.24149143      20.00000000        3       0.00405483      -0.00234056       0.01230747
Pt       5.61442784       3.24149143      20.00000000        3      -0.00405557      -0.00234083       0.01230800
Pt       8.42164176       3.24149143      20.00000000        3       0.00000166      -0.00609081      -0.00951287
Pt       4.21082088       5.67261000      20.00000000        3       0.00000237       0.00302513      -0.00632331
Pt       7.01803480       5.67261000      20.00000000        3      -0.00527730       0.00304823      -0.00951239
Pt       9.82524872       5.67261000      20.00000000        3       0.00527376       0.00304856      -0.00951195
Pt      -0.00000000       1.62074571      22.29208057        2       0.00000208       0.00720725      -0.00248244
Pt       2.80721392       1.62074571      22.29208057        2       0.06799046       0.03925138      -0.02954945
Pt       5.61442784       1.62074571      22.29208057        2      -0.06799135       0.03925283      -0.02954798
Pt       1.40360696       4.05186428      22.29208057        2       0.05413244      -0.03125305       0.02824707
Pt       4.21082088       4.05186428      22.29208057        2       0.00000244      -0.07850777      -0.02954964
Pt       7.01803480       4.05186428      22.29208057        2      -0.05413388      -0.03125336       0.02824772
Pt       2.80721392       6.48298285      22.29208057        2      -0.00624233      -0.00360316      -0.00248502
Pt       5.61442784       6.48298285      22.29208057        2       0.00624275      -0.00360312      -0.00248588
Pt       8.42164176       6.48298285      22.29208057        2       0.00000146       0.06250802       0.02824518
Pt       0.00000123      -0.00000096      24.58864876        1      -0.00000129       0.00000416       0.00346151
Pt       2.80233687      -0.00702428      24.60075710        1       0.00325590      -0.00412009       0.00138438
Pt       5.61930669      -0.00702410      24.60075685        1      -0.00325785      -0.00411782       0.00138523
Pt       1.39508607       2.43040538      24.60075704        1      -0.00194408       0.00488201       0.00138427
Pt       4.21082034       2.43111868      24.66181279        1       0.00000402      -0.00000115       0.00856149
Pt       7.02655702       2.43040553      24.60075770        1       0.00193910       0.00488004       0.00138474
Pt       2.80357137       4.86997350      24.60075790        1      -0.00520123      -0.00076176       0.00138491
Pt       5.61807198       4.86997322      24.60075675        1       0.00519879      -0.00076150       0.00138456
Pt       8.42164272       4.86223695      24.58827142        1      -0.00000022      -0.00000106       0.00224200
N        4.21081835       2.43111973      26.72938784        0      -0.00001407      -0.00001991       0.01155484
H        5.05199621       1.94546518      27.05155491        0      -0.00918648       0.00530408      -0.00405663
H        3.36964052       1.94546474      27.05155846        0       0.00920390       0.00531510      -0.00406892
H        4.21081873       3.40242761      27.05155756        0      -0.00000083      -0.01060081      -0.00406004
