31
Lattice="8.421641763931781 0.0 0.0 4.2108208819658905 7.293355709136913 0.0 0.0 0.0 44.584161137365626" Properties=species:S:1:pos:R:3:tags:I:1:forces:R:3 energy=-172.64501953125 free_energy=-172.64501953125 stress="0.010480822063982487 -6.052185863580917e-09 -4.992538826797954e-09 -6.052185863580917e-09 0.010480830445885658 2.418728550779292e-09 -4.992538826797954e-09 2.418728550779292e-09 5.043487362854648e-06" pbc="T T T"
Pt       1.40360696       0.81037286      20.00000000        3       0.00000075       0.00430103       0.00125587
Pt       4.21082088       0.81037286      20.00000000        3       0.00206605       0.00119071      -0.00083363
Pt       7.01803480       0.81037286      20.00000000        3      -0.00206656       0.00118970      -0.00083441
Pt       2.80721392       3.24149143      20.00000000        3      -0.00082752       0.00047837       0.03291222
Pt       5.61442784       3.24149143      20.00000000        3      -0.00000232      -0.00238391      -0.00083485
Pt       8.42164176       3.24149143      20.00000000        3       0.00082992       0.00047909       0.03291097
Pt       4.21082088       5.67261000      20.00000000        3      -0.00372495      -0.00215080       0.00125587
Pt       7.01803480       5.67261000      20.00000000        3       0.00372517      -0.00214932       0.00125423
Pt       9.82524872       5.67261000      20.00000000        3      -0.00000092      -0.00095438       0.03291252
Pt      -0.00000000       1.62074571      22.29208057        2       0.08613607       0.09567006      -0.01345623
Pt       2.80721392       1.62074571      22.29208057        2      -0.08613406       0.09567109      -0.01345749
Pt       5.61442784       1.62074571      22.29208057        2      -0.00000199      -0.00000166      -0.05686365
Pt       1.40360696       4.05186428      22.29208057        2       0.00000083      -0.00000011       0.03622767
Pt       4.21082088       4.05186428      22.29208057        2      -0.12592098       0.02675807      -0.01345763
Pt       7.01803480       4.05186428      22.29208057        2       0.12591997       0.02675850      -0.01345531
Pt       2.80721392       6.48298285      22.29208057        2      -0.03978711      -0.12242978      -0.01345670
Pt       5.61442784       6.48298285      22.29208057        2      -0.00000144       0.00000170      -0.08502233
Pt       8.42164176       6.48298285      22.29208057        2       0.03978880      -0.12242843      -0.01345800
Pt       0.00148020      -0.00085477      24.55778827        1       0.00109176      -0.00062813       0.03598812
Pt       2.80573430      -0.00085435      24.55778876        1      -0.00109453      -0.00063204       0.03598866
Pt       5.61442748       0.00255808      24.58008534        1       0.00000175       0.02804103       0.00056797
Pt       1.40360724       2.40505209      24.63193128        1      -0.00000219       0.03446844      -0.01020846
Pt       4.21303626       2.42983935      24.58008541        1       0.02428596      -0.01402075       0.00056846
Pt       7.01581915       2.42983944      24.58008580        1      -0.02428300      -0.01401968       0.00056924
Pt       2.82978824       4.87527053      24.63193115        1      -0.02985301      -0.01723430      -0.01020752
Pt       5.61442732       4.86394569      24.55778869        1       0.00000527       0.00126094       0.03598869
Pt       8.39906790       4.87527014      24.63193112        1       0.02984783      -0.01723580      -0.01020966
N        9.82524857       4.05186467      26.87787204        0       0.00002423      -0.00001140       0.01671413
H        9.82524881       4.97111311      26.36492471        0       0.00000139      -0.01588556      -0.00312373
H       10.62134160       3.59223937      26.36492461        0      -0.01377147       0.00795668      -0.00311142
H        9.02915633       3.59223991      26.36492449        0       0.01374628       0.00794060      -0.00312355
