31
Lattice="8.421641763931781 0.0 0.0 4.2108208819658905 7.293355709136913 0.0 0.0 0.0 44.584161137365626" Properties=species:S:1:pos:R:3:tags:I:1:forces:R:3 energy=-172.80453491210938 free_energy=-172.80453491210938 stress="0.010309011675417423 -1.45463809886337e-08 1.7483408498719655e-08 -1.45463809886337e-08 0.010309003293514252 -4.811610221366891e-09 1.7483408498719655e-08 -4.811610221366891e-09 -2.4550270609324798e-05" pbc="T T T"
Pt       1.40360696       0.81037286      20.00000000        3      -0.00024394       0.00310390      -0.00555608
Pt       4.21082088       0.81037286      20.00000000        3       0.00144748       0.00135533      -0.00842345
Pt       7.01803480       0.81037286      20.00000000        3      -0.00190053       0.00057130      -0.00842559
Pt       2.80721392       3.24149143      20.00000000        3       0.00005004       0.00011528       0.01854879
Pt       5.61442784       3.24149143      20.00000000        3       0.00044936      -0.00193035      -0.00842473
Pt       8.42164176       3.24149143      20.00000000        3       0.00007718      -0.00009832       0.01854768
Pt       4.21082088       5.67261000      20.00000000        3      -0.00256577      -0.00176426      -0.00555471
Pt       7.01803480       5.67261000      20.00000000        3       0.00281108      -0.00133882      -0.00555632
Pt       9.82524872       5.67261000      20.00000000        3      -0.00012489      -0.00001313       0.01854974
Pt      -0.00000000       1.62074571      22.29208057        2       0.11438086       0.09612392       0.00600570
Pt       2.80721392       1.62074571      22.29208057        2      -0.10749766       0.10100116       0.00855081
Pt       5.61442784       1.62074571      22.29208057        2      -0.00000491      -0.00000007      -0.10860874
Pt       1.40360696       4.05186428      22.29208057        2       0.00000168       0.00000388       0.08442082
Pt       4.21082088       4.05186428      22.29208057        2      -0.14043783       0.05099360       0.00601149
Pt       7.01803480       4.05186428      22.29208057        2       0.14121817       0.04260203       0.00855636
Pt       2.80721392       6.48298285      22.29208057        2      -0.03371993      -0.14360470       0.00855248
Pt       5.61442784       6.48298285      22.29208057        2      -0.00000177      -0.00000270      -0.08295555
Pt       8.42164176       6.48298285      22.29208057        2       0.02605898      -0.14712010       0.00600809
Pt       0.00042901      -0.00316051      24.55878729        1       0.00010853       0.01292558       0.02388394
Pt       2.80426362       0.00120714      24.55878731        1       0.01113385      -0.00655141       0.02388352
Pt       5.60485945       0.01234071      24.57146256        1       0.02428583      -0.01651754      -0.01096192
Pt       1.40991148       2.40982922      24.61359116        1      -0.01066436       0.00384142       0.00530684
Pt       4.22629252       2.43323454      24.57146442        1      -0.02644810      -0.01277480      -0.01097073
Pt       7.01213100       2.41666167      24.57146299        1       0.00216208       0.02928874      -0.01095951
Pt       2.82249845       4.87834158      24.61359376        1       0.00200722      -0.01115848       0.00528003
Pt       5.61694843       4.86418834      24.55878753        1      -0.01123940      -0.00636720       0.02387469
Pt       8.40005217       4.86742107      24.61359319        1       0.00865820       0.00731827       0.00528346
N        9.82525056       4.05186461      26.95094956        0      -0.00012206       0.00003194      -0.01183161
H        9.90347579       3.10632408      26.52768296        0      -0.01121579       0.01340853       0.00230085
H        8.96727262       4.45688759      26.52768001        0       0.01731265       0.00297838       0.00235885
H       10.60499669       4.59238078      26.52767897        0      -0.00597629      -0.01642130       0.00230499
