31
Lattice="8.421641763931781 0.0 0.0 4.2108208819658905 7.293355709136913 0.0 0.0 0.0 44.584161137365626" Properties=species:S:1:pos:R:3:tags:I:1:forces:R:3 energy=-172.80612182617188 free_energy=-172.80612182617188 stress="0.01031744945794344 -1.830844142958199e-09 -9.903455833182306e-10 -1.830844142958199e-09 0.010317468084394932 3.776372548003337e-09 -9.903455833182306e-10 3.776372548003337e-09 1.4727320376550779e-05" pbc="T T T"
Pt       1.40360696       0.81037286      20.00000000        3       0.00000056       0.00306337      -0.00310043
Pt       4.21082088       0.81037286      20.00000000        3       0.00118343       0.00068122      -0.00975448
Pt       7.01803480       0.81037286      20.00000000        3      -0.00118417       0.00068037      -0.00975582
Pt       2.80721392       3.24149143      20.00000000        3      -0.00054090       0.00031251       0.01786697
Pt       5.61442784       3.24149143      20.00000000        3      -0.00000216      -0.00136497      -0.00975513
Pt       8.42164176       3.24149143      20.00000000        3       0.00054352       0.00031307       0.01786616
Pt       4.21082088       5.67261000      20.00000000        3      -0.00265300      -0.00153138      -0.00310081
Pt       7.01803480       5.67261000      20.00000000        3       0.00265325      -0.00153073      -0.00310212
Pt       9.82524872       5.67261000      20.00000000        3      -0.00000133      -0.00062329       0.01786667
Pt      -0.00000000       1.62074571      22.29208057        2       0.12058403       0.08953819       0.01157062
Pt       2.80721392       1.62074571      22.29208057        2      -0.12058121       0.08953884       0.01157063
Pt       5.61442784       1.62074571      22.29208057        2      -0.00000245      -0.00000225      -0.12116373
Pt       1.40360696       4.05186428      22.29208057        2       0.00000110      -0.00000067       0.08418199
Pt       4.21082088       4.05186428      22.29208057        2      -0.13783452       0.05965676       0.01156944
Pt       7.01803480       4.05186428      22.29208057        2       0.13783245       0.05965659       0.01157033
Pt       2.80721392       6.48298285      22.29208057        2      -0.01725252      -0.14919618       0.01157012
Pt       5.61442784       6.48298285      22.29208057        2      -0.00000153       0.00000157      -0.05944866
Pt       8.42164176       6.48298285      22.29208057        2       0.01725450      -0.14919351       0.01156954
Pt       0.00072282      -0.00041730      24.56338305        1       0.00592771      -0.00342334      -0.00191075
Pt       2.80649173      -0.00041725      24.56338256        1      -0.00592835      -0.00342269      -0.00191009
Pt       5.61442786       0.01175071      24.56734113        1      -0.00000096      -0.01475656       0.01010537
Pt       1.40360706       2.41191734      24.61556761        1       0.00000147      -0.00761526      -0.00049512
Pt       4.22099775       2.42524288      24.56734121        1      -0.01278159       0.00737743       0.01010567
Pt       7.00785792       2.42524296      24.56734119        1       0.01278104       0.00737822       0.01010655
Pt       2.82384223       4.87183724      24.61556760        1       0.00659498       0.00380797      -0.00049187
Pt       5.61442774       4.86307118      24.56338253        1       0.00000079       0.00684745      -0.00190946
Pt       8.40501291       4.87183764      24.61556798        1      -0.00659467       0.00380662      -0.00049107
N        9.82524901       4.05186413      26.96079511        0      -0.00000029      -0.00002552      -0.02611789
H        9.82524877       3.10656543      26.53156516        0       0.00000004      -0.03146587       0.00500501
H        9.00659620       4.52451378      26.53156585        0      -0.02727596       0.01574572       0.00499033
H       10.64390108       4.52451362      26.53156579        0       0.02727664       0.01574627       0.00499164
