31
Lattice="8.421641763931781 0.0 0.0 4.2108208819658905 7.293355709136913 0.0 0.0 0.0 44.584161137365626" Properties=species:S:1:pos:R:3:tags:I:1:forces:R:3 energy=-173.7103729248047 free_energy=-173.7103729248047 stress="0.010685781948268414 1.3714023694433308e-08 -1.2783348601885791e-08 1.3714023694433308e-08 0.010685794986784458 3.362821798802429e-09 -1.2783348601885791e-08 3.362821798802429e-09 -2.558017149567604e-05" pbc="T T T"
Pt       1.40360696       0.81037286      20.00000000        3      -0.00261750      -0.00151380      -0.00632292
Pt       4.21082088       0.81037286      20.00000000        3       0.00000205       0.00467912       0.01230893
Pt       7.01803480       0.81037286      20.00000000        3       0.00261580      -0.00151394      -0.00632370
Pt       2.80721392       3.24149143      20.00000000        3       0.00405479      -0.00234079       0.01230764
Pt       5.61442784       3.24149143      20.00000000        3      -0.00405558      -0.00234057       0.01230785
Pt       8.42164176       3.24149143      20.00000000        3       0.00000118      -0.00609036      -0.00951302
Pt       4.21082088       5.67261000      20.00000000        3       0.00000217       0.00302478      -0.00632346
Pt       7.01803480       5.67261000      20.00000000        3      -0.00527686       0.00304839      -0.00951236
Pt       9.82524872       5.67261000      20.00000000        3       0.00527366       0.00304792      -0.00951180
Pt      -0.00000000       1.62074571      22.29208057        2       0.00000203       0.00720464      -0.00247997
Pt       2.80721392       1.62074571      22.29208057        2       0.06798965       0.03925235      -0.02954872
Pt       5.61442784       1.62074571      22.29208057        2      -0.06799115       0.03925277      -0.02954888
Pt       1.40360696       4.05186428      22.29208057        2       0.05413290      -0.03125205       0.02824818
Pt       4.21082088       4.05186428      22.29208057        2       0.00000221      -0.07850778      -0.02954711
Pt       7.01803480       4.05186428      22.29208057        2      -0.05413415      -0.03125210       0.02824692
Pt       2.80721392       6.48298285      22.29208057        2      -0.00624081      -0.00360188      -0.00248254
Pt       5.61442784       6.48298285      22.29208057        2       0.00623976      -0.00360120      -0.00248327
Pt       8.42164176       6.48298285      22.29208057        2       0.00000163       0.06250848       0.02824513
Pt       0.00000065      -0.00000002      24.58864969        1       0.00000133       0.00000336       0.00345129
Pt       2.80233651      -0.00702342      24.60075712        1       0.00325494      -0.00412151       0.00138441
Pt       5.61930658      -0.00702314      24.60075666        1      -0.00325848      -0.00412223       0.00138436
Pt       1.39508601       2.43040622      24.60075751        1      -0.00194317       0.00488162       0.00138462
Pt       4.21082046       2.43111773      24.66181318        1       0.00000055       0.00000349       0.00857776
Pt       7.02655654       2.43040672      24.60075724        1       0.00194138       0.00487716       0.00138596
Pt       2.80357131       4.86997435      24.60075731        1      -0.00520036      -0.00076412       0.00138515
Pt       5.61807197       4.86997396      24.60075724        1       0.00519407      -0.00076276       0.00138502
Pt       8.42164161       4.86223801      24.58827123        1       0.00000554      -0.00000260       0.00224254
N        4.21082008       2.43111618      26.72938877        0      -0.00010008       0.00002053       0.01149929
H        4.21081976       3.40242497      27.05155493        0       0.00000434      -0.01059639      -0.00404945
H        5.05199698       1.94546323      27.05155631        0      -0.00911821       0.00526393      -0.00402610
H        3.36964128       1.94546269      27.05155906        0       0.00921640       0.00531552      -0.00407188
