31
Lattice="8.421641763931781 0.0 0.0 4.2108208819658905 7.293355709136913 0.0 0.0 0.0 44.584161137365626" Properties=species:S:1:pos:R:3:tags:I:1:forces:R:3 energy=-173.7055206298828 free_energy=-173.7055206298828 stress="0.010679536499083042 1.881693424365949e-05 -0.0001048136837198399 1.881693424365949e-05 0.010596477426588535 0.00012189172412035987 -0.0001048136837198399 0.00012189172412035987 -1.2961120319232577e-06" pbc="T T T"
Pt       1.40360696       0.81037286      20.00000000        3       0.00094225       0.00493917       0.01093811
Pt       4.21082088       0.81037286      20.00000000        3       0.00406298      -0.00217064      -0.00997239
Pt       7.01803480       0.81037286      20.00000000        3      -0.00223566      -0.00065443      -0.00493836
Pt       2.80721392       3.24149143      20.00000000        3      -0.00299139      -0.00397306       0.01666126
Pt       5.61442784       3.24149143      20.00000000        3       0.00205987      -0.00815767      -0.00728518
Pt       8.42164176       3.24149143      20.00000000        3       0.00464249      -0.00409224       0.01727471
Pt       4.21082088       5.67261000      20.00000000        3      -0.00512696       0.00123271      -0.00835818
Pt       7.01803480       5.67261000      20.00000000        3       0.00617628       0.00169892      -0.01457262
Pt       9.82524872       5.67261000      20.00000000        3       0.00125551       0.00285147      -0.00626370
Pt      -0.00000000       1.62074571      22.29208057        2       0.05742581       0.05532299      -0.02310629
Pt       2.80721392       1.62074571      22.29208057        2      -0.10682529       0.07962536       0.00208644
Pt       5.61442784       1.62074571      22.29208057        2       0.00672464       0.03732082       0.00044659
Pt       1.40360696       4.05186428      22.29208057        2       0.00048629      -0.05610075      -0.04484632
Pt       4.21082088       4.05186428      22.29208057        2      -0.08066723      -0.02064981       0.02932373
Pt       7.01803480       4.05186428      22.29208057        2       0.04068359      -0.04241943       0.01068952
Pt       2.80721392       6.48298285      22.29208057        2      -0.00513166      -0.00771459       0.00720000
Pt       5.61442784       6.48298285      22.29208057        2      -0.02796119       0.07535434       0.02059361
Pt       8.42164176       6.48298285      22.29208057        2      -0.00676672       0.01063234      -0.02828331
Pt      -0.02780767       0.00923930      24.59866153        1       0.02136917      -0.01574955      -0.00471237
Pt       2.79286830       0.01531475      24.59286185        1      -0.01121699       0.00036325       0.02470420
Pt       5.59658862       0.02494339      24.58417928        1       0.01993556      -0.01800645       0.01962399
Pt       1.38198302       2.44607399      24.67069994        1       0.03266888      -0.01471743       0.00788194
Pt       4.20326042       2.44912617      24.59959029        1       0.00278206      -0.00888251      -0.01114357
Pt       6.99766097       2.45495174      24.61016073        1      -0.00388817      -0.02208577       0.00390802
Pt       2.78347240       4.88302320      24.61109008        1       0.00411550      -0.00531316      -0.00122355
Pt       5.59070763       4.88114772      24.58389933        1      -0.00010921      -0.00211350       0.02079287
Pt       8.38917536       4.90327794      24.59101025        1       0.02709930      -0.00686947       0.00366382
N        9.62647985       2.73695375      26.71741916        0       0.01768437      -0.01813602       0.00975990
H        8.62925247       2.81029295      26.93825627        0      -0.02678898      -0.02317430       0.00192221
H       10.10060112       3.61389139      26.95024481        0       0.03100661       0.02206440      -0.00251198
H       10.05390442       1.95108053      27.21351957        0      -0.00141164      -0.01042496      -0.04025257
