31
Lattice="8.421641763931781 0.0 0.0 4.2108208819658905 7.293355709136913 0.0 0.0 0.0 44.584161137365626" Properties=species:S:1:pos:R:3:tags:I:1:forces:R:3 energy=-172.76148986816406 free_energy=-172.76148986816406 stress="0.010429902002215385 6.296844367170706e-05 -7.342960452660918e-05 6.296844367170706e-05 0.010315769352018833 0.0001229413173859939 -7.342960452660918e-05 0.0001229413173859939 3.076305438298732e-05" pbc="T T T"
Pt       1.40360696       0.81037286      20.00000000        3       0.00091128       0.00282712       0.00399873
Pt       4.21082088       0.81037286      20.00000000        3       0.00047853      -0.00076881      -0.00353670
Pt       7.01803480       0.81037286      20.00000000        3      -0.00163222       0.00158386       0.00321817
Pt       2.80721392       3.24149143      20.00000000        3      -0.00094387      -0.00318456       0.01940900
Pt       5.61442784       3.24149143      20.00000000        3       0.00117297      -0.00337281       0.00237900
Pt       8.42164176       3.24149143      20.00000000        3       0.00306169      -0.00048827       0.03659716
Pt       4.21082088       5.67261000      20.00000000        3      -0.00204033      -0.00214604      -0.00485626
Pt       7.01803480       5.67261000      20.00000000        3       0.00310684      -0.00222662       0.00172168
Pt       9.82524872       5.67261000      20.00000000        3      -0.00232195       0.00035329       0.01590496
Pt      -0.00000000       1.62074571      22.29208057        2       0.08330962       0.10966299       0.02739422
Pt       2.80721392       1.62074571      22.29208057        2      -0.15306571       0.12236100       0.06492806
Pt       5.61442784       1.62074571      22.29208057        2       0.04896498       0.04778444      -0.05670119
Pt       1.40360696       4.05186428      22.29208057        2      -0.04417704      -0.05819565       0.02687055
Pt       4.21082088       4.05186428      22.29208057        2      -0.06686199      -0.00514754      -0.03392629
Pt       7.01803480       4.05186428      22.29208057        2       0.09624576       0.01339561      -0.01966754
Pt       2.80721392       6.48298285      22.29208057        2      -0.03806469      -0.02117192      -0.04282358
Pt       5.61442784       6.48298285      22.29208057        2       0.00248644       0.02219828      -0.05894397
Pt       8.42164176       6.48298285      22.29208057        2       0.01367218      -0.12855048       0.01836618
Pt      -0.01068725       0.00596940      24.57091206        1      -0.00031304       0.00412093      -0.01211891
Pt       2.80590224       0.00987568      24.55895411        1       0.01007987       0.01002668       0.00540522
Pt       5.61705532       0.03571812      24.57289322        1      -0.00850476       0.02079561      -0.01404686
Pt       1.42697085       2.40806973      24.62803563        1       0.02204072      -0.00868694      -0.01594706
Pt       4.22287585       2.44797549      24.57390677        1      -0.00773067      -0.01387460      -0.02147539
Pt       7.01755303       2.46369037      24.60179957        1      -0.02623718      -0.03252074       0.00962240
Pt       2.78892104       4.88485004      24.60072259        1       0.01981492      -0.00962438       0.01102120
Pt       5.59107281       4.88317363      24.57063955        1      -0.00721156      -0.00116019      -0.00685897
Pt       8.40247813       4.91211513      24.61622921        1       0.01561197       0.00423882       0.00465839
N        9.10528081       3.65243847      26.87165522        0       0.01584611      -0.02777554       0.02699804
H        9.63308479       4.38029795      26.33079149        0      -0.00547940      -0.02763586      -0.00591755
H        9.60785196       2.79163318      26.56867163        0       0.00442092      -0.00253993       0.01814363
H        8.21403665       3.55236054      26.32759595        0       0.02335944      -0.01027799       0.00018373
