31
Lattice="8.421641763931781 0.0 0.0 4.2108208819658905 7.293355709136913 0.0 0.0 0.0 44.584161137365626" Properties=species:S:1:pos:R:3:tags:I:1:forces:R:3 energy=-172.8053741455078 free_energy=-172.8053741455078 stress="0.010277369990944862 -2.162070813938044e-05 5.5812088248785585e-05 -2.162070813938044e-05 0.010302349925041199 3.221922452212311e-05 5.5812088248785585e-05 3.221922452212311e-05 -1.5553692719549872e-05" pbc="T T T"
Pt       1.40360696       0.81037286      20.00000000        3       0.00013961       0.00325974       0.00135735
Pt       4.21082088       0.81037286      20.00000000        3       0.00048886       0.00028033      -0.00643125
Pt       7.01803480       0.81037286      20.00000000        3      -0.00221243      -0.00020352      -0.00833032
Pt       2.80721392       3.24149143      20.00000000        3      -0.00152364      -0.00298793       0.01604840
Pt       5.61442784       3.24149143      20.00000000        3      -0.00128125      -0.00181306      -0.00832939
Pt       8.42164176       3.24149143      20.00000000        3       0.00143798       0.00083025       0.02707842
Pt       4.21082088       5.67261000      20.00000000        3      -0.00220119      -0.00127083      -0.00997052
Pt       7.01803480       5.67261000      20.00000000        3       0.00289212      -0.00150881       0.00135744
Pt       9.82524872       5.67261000      20.00000000        3      -0.00335098       0.00017520       0.01604983
Pt      -0.00000000       1.62074571      22.29208057        2       0.14085409       0.10647337       0.02284629
Pt       2.80721392       1.62074571      22.29208057        2      -0.13346456       0.10136250       0.03627016
Pt       5.61442784       1.62074571      22.29208057        2       0.01163124       0.00671551      -0.10786125
Pt       1.40360696       4.05186428      22.29208057        2      -0.04052086      -0.02339243       0.07277133
Pt       4.21082088       4.05186428      22.29208057        2      -0.08324080       0.02111720      -0.03975741
Pt       7.01803480       4.05186428      22.29208057        2       0.16263361       0.06874833       0.02285175
Pt       2.80721392       6.48298285      22.29208057        2      -0.02333512      -0.08264939      -0.03975923
Pt       5.61442784       6.48298285      22.29208057        2       0.03546429       0.02047375      -0.07370784
Pt       8.42164176       6.48298285      22.29208057        2       0.02105198      -0.16626847       0.03627577
Pt       0.01761132      -0.00280050      24.56335233        1      -0.02948032       0.03632240       0.00770140
Pt       2.82723802       0.01156149      24.56371013        1      -0.01979659      -0.01143976      -0.00901070
Pt       5.63307970       0.01549660      24.57008953        1      -0.02177470       0.00509549      -0.00071502
Pt       1.42454847       2.41393151      24.62682481        1      -0.03056633       0.00002740      -0.00760511
Pt       4.23356694       2.43952293      24.57009002        1      -0.00646803      -0.02140335      -0.00071378
Pt       7.01752300       2.43082305      24.56808314        1      -0.00994249      -0.00573890      -0.00642709
Pt       2.83152710       4.87627416      24.59456641        1       0.01486974       0.00858641       0.04194672
Pt       5.62080788       4.87888895      24.56335444        1       0.01672059      -0.04369257       0.00769097
Pt       8.41722827       4.88896510      24.62682640        1      -0.01526691      -0.02647377      -0.00762232
N        9.56202232       3.89989009      26.93230455        0       0.00818086       0.00475925      -0.03410849
H        8.70473126       4.35127428      26.55475305        0       0.00029403      -0.02147429       0.01215547
H       10.33141145       4.34409919      26.38942123        0       0.02620058       0.01510627       0.02581987
H        9.52428392       2.93176222      26.55475342        0      -0.01843347       0.01098356       0.01212852
