31
Lattice="8.421641763931781 0.0 0.0 4.2108208819658905 7.293355709136913 0.0 0.0 0.0 44.584161137365626" Properties=species:S:1:pos:R:3:tags:I:1:forces:R:3 energy=-172.80596923828125 free_energy=-172.80596923828125 stress="0.010263782925903797 -4.449112748261541e-05 -8.823255484458059e-05 -4.449112748261541e-05 0.010315177030861378 -5.094086372992024e-05 -8.823255484458059e-05 -5.094086372992024e-05 -2.519143163226545e-05" pbc="T T T"
Pt       1.40360696       0.81037286      20.00000000        3       0.00177880       0.00456458       0.00073317
Pt       4.21082088       0.81037286      20.00000000        3       0.00236037       0.00136113      -0.00847033
Pt       7.01803480       0.81037286      20.00000000        3      -0.00119766       0.00088914      -0.00833648
Pt       2.80721392       3.24149143      20.00000000        3      -0.00033465      -0.00209290       0.01607496
Pt       5.61442784       3.24149143      20.00000000        3       0.00017265      -0.00148041      -0.00833538
Pt       8.42164176       3.24149143      20.00000000        3       0.00228264       0.00131763       0.02806544
Pt       4.21082088       5.67261000      20.00000000        3      -0.00046836      -0.00027043      -0.01008824
Pt       7.01803480       5.67261000      20.00000000        3       0.00484171      -0.00074137       0.00073254
Pt       9.82524872       5.67261000      20.00000000        3      -0.00198140       0.00075730       0.01607367
Pt      -0.00000000       1.62074571      22.29208057        2       0.11912645       0.10260017       0.02591554
Pt       2.80721392       1.62074571      22.29208057        2      -0.16236898       0.08812322       0.02519290
Pt       5.61442784       1.62074571      22.29208057        2      -0.01718524      -0.00991617      -0.12073487
Pt       1.40360696       4.05186428      22.29208057        2      -0.05769554      -0.03331243       0.08368773
Pt       4.21082088       4.05186428      22.29208057        2      -0.10972015       0.01323574      -0.04019792
Pt       7.01803480       4.05186428      22.29208057        2       0.14841172       0.05186448       0.02591784
Pt       2.80721392       6.48298285      22.29208057        2      -0.04339512      -0.10164311      -0.04020550
Pt       5.61442784       6.48298285      22.29208057        2       0.00831873       0.00480304      -0.06137481
Pt       8.42164176       6.48298285      22.29208057        2      -0.00487070      -0.18467844       0.02518837
Pt      -0.01517233      -0.01109109      24.56279917        1       0.01352336      -0.00445767       0.00658327
Pt       2.79524091      -0.00691249      24.56256614        1      -0.01720732      -0.00993679      -0.00171570
Pt       5.59570914      -0.00619256      24.56863106        1       0.01606307       0.01267126       0.00781178
Pt       1.38697443       2.39675771      24.62805789        1       0.00597530       0.03319772      -0.00592528
Pt       4.19609913       2.41800329      24.56863358        1       0.01900489       0.00757880       0.00779183
Pt       6.97798888       2.40799759      24.56969488        1       0.03841883       0.02218204      -0.00400095
Pt       2.81351113       4.86587248      24.59392173        1      -0.00277262      -0.00160266       0.02679730
Pt       5.59723688       4.85464284      24.56280051        1       0.00289801       0.01393657       0.00657475
Pt       8.38356813       4.86501268      24.62805685        1       0.03173702      -0.01142301      -0.00592616
N        9.57409743       3.90686189      26.93106338        0      -0.02168554      -0.01251131      -0.01032135
H        9.53151132       2.93583523      26.56360925        0       0.01473271       0.01182620      -0.00305138
H        8.71187097       4.35549511      26.56360999        0       0.01760140       0.00684145      -0.00304610
H       10.34457541       4.35169888      26.38980048        0      -0.00636447      -0.00368378       0.02858910
