31
Lattice="8.421641763931781 0.0 0.0 4.2108208819658905 7.293355709136913 0.0 0.0 0.0 44.584161137365626" Properties=species:S:1:pos:R:3:tags:I:1:forces:R:3 energy=-172.59942626953125 free_energy=-172.59942626953125 stress="0.010525377467274666 -1.4988369434476567e-09 -5.876775732716055e-10 -1.4988369434476567e-09 0.010525377467274666 -7.490168485446702e-09 -5.876775732716055e-10 -7.490168485446702e-09 1.5992013686627615e-06" pbc="T T T"
Pt       1.40360696       0.81037286      20.00000000        3       0.00000101       0.00103738      -0.00327477
Pt       4.21082088       0.81037286      20.00000000        3       0.00089513       0.00051424      -0.00636634
Pt       7.01803480       0.81037286      20.00000000        3      -0.00089600       0.00051312      -0.00636813
Pt       2.80721392       3.24149143      20.00000000        3      -0.00061161       0.00035378       0.00581166
Pt       5.61442784       3.24149143      20.00000000        3      -0.00000225      -0.00103142      -0.00636786
Pt       8.42164176       3.24149143      20.00000000        3       0.00061460       0.00035448       0.00581038
Pt       4.21082088       5.67261000      20.00000000        3      -0.00089807      -0.00051840      -0.00327516
Pt       7.01803480       5.67261000      20.00000000        3       0.00089847      -0.00051737      -0.00327656
Pt       9.82524872       5.67261000      20.00000000        3      -0.00000141      -0.00070499       0.00581130
Pt      -0.00000000       1.62074571      22.29208057        2       0.03870300       0.04042445       0.00523396
Pt       2.80721392       1.62074571      22.29208057        2      -0.03870014       0.04042500       0.00523309
Pt       5.61442784       1.62074571      22.29208057        2      -0.00000255      -0.00000143      -0.05875742
Pt       1.40360696       4.05186428      22.29208057        2      -0.00000023      -0.00000121       0.06418339
Pt       4.21082088       4.05186428      22.29208057        2      -0.05435799       0.01330107       0.00523001
Pt       7.01803480       4.05186428      22.29208057        2       0.05435840       0.01330350       0.00523442
Pt       2.80721392       6.48298285      22.29208057        2      -0.01565956      -0.05372636       0.00523011
Pt       5.61442784       6.48298285      22.29208057        2      -0.00000166       0.00000172      -0.03006200
Pt       8.42164176       6.48298285      22.29208057        2       0.01566082      -0.05372718       0.00523319
Pt       0.00139402      -0.00080488      24.57666925        1      -0.00477643       0.00275805      -0.00865608
Pt       2.80582008      -0.00080478      24.57666925        1       0.00477770       0.00275785      -0.00865489
Pt       5.61442776       0.00735044      24.57767275        1      -0.00000008      -0.01971510      -0.00594890
Pt       1.40360712       2.41886799      24.59704306        1       0.00000014       0.01957902       0.02003947
Pt       4.21718671       2.42744326      24.57767271        1      -0.01707575       0.00985806      -0.00594872
Pt       7.01166879       2.42744333      24.57767280        1       0.01707513       0.00985853      -0.00594747
Pt       2.81782321       4.86836244      24.59704302        1      -0.01695577      -0.00979013       0.02004883
Pt       5.61442776       4.86384664      24.57666931        1       0.00000132      -0.00551751      -0.00865540
Pt       8.41103249       4.86836257      24.59704315        1       0.01695428      -0.00978925       0.02004111
N        9.82524887       4.05186361      27.59093178        0       0.00000022       0.00005285      -0.03130069
H       10.64393054       4.52453041      27.19264415        0      -0.02519017      -0.01454624       0.00658114
H        9.82524882       3.10653262      27.19264430        0       0.00000016       0.02903937       0.00655864
H        9.00656677       4.52453059      27.19264400        0       0.02518934      -0.01454578       0.00657994
