31
Lattice="8.421641763931781 0.0 0.0 4.2108208819658905 7.293355709136913 0.0 0.0 0.0 44.584161137365626" Properties=species:S:1:pos:R:3:tags:I:1:forces:R:3 energy=-172.64501953125 free_energy=-172.64501953125 stress="0.010480819270014763 -1.7273836805387077e-09 -8.384232752511878e-10 -1.7273836805387077e-09 0.010480817407369614 6.388273021684654e-09 -8.384232752511878e-10 6.388273021684654e-09 5.022309323976515e-06" pbc="T T T"
Pt       1.40360696       0.81037286      20.00000000        3       0.00000066       0.00430109       0.00125548
Pt       4.21082088       0.81037286      20.00000000        3       0.00206642       0.00119044      -0.00083438
Pt       7.01803480       0.81037286      20.00000000        3      -0.00206662       0.00118989      -0.00083396
Pt       2.80721392       3.24149143      20.00000000        3      -0.00082757       0.00047812       0.03291264
Pt       5.61442784       3.24149143      20.00000000        3      -0.00000178      -0.00238406      -0.00083515
Pt       8.42164176       3.24149143      20.00000000        3       0.00083034       0.00047919       0.03291109
Pt       4.21082088       5.67261000      20.00000000        3      -0.00372503      -0.00215065       0.00125527
Pt       7.01803480       5.67261000      20.00000000        3       0.00372473      -0.00214930       0.00125396
Pt       9.82524872       5.67261000      20.00000000        3      -0.00000130      -0.00095431       0.03291273
Pt      -0.00000000       1.62074571      22.29208057        2       0.08613585       0.09567045      -0.01345693
Pt       2.80721392       1.62074571      22.29208057        2      -0.08613396       0.09567427      -0.01345943
Pt       5.61442784       1.62074571      22.29208057        2      -0.00000162      -0.00000155      -0.05686489
Pt       1.40360696       4.05186428      22.29208057        2       0.00000104       0.00000015       0.03622796
Pt       4.21082088       4.05186428      22.29208057        2      -0.12592177       0.02675852      -0.01345782
Pt       7.01803480       4.05186428      22.29208057        2       0.12591934       0.02675774      -0.01345703
Pt       2.80721392       6.48298285      22.29208057        2      -0.03978733      -0.12243044      -0.01345761
Pt       5.61442784       6.48298285      22.29208057        2      -0.00000387      -0.00000011      -0.08502488
Pt       8.42164176       6.48298285      22.29208057        2       0.03979142      -0.12242967      -0.01346100
Pt       0.00148012      -0.00085441      24.55778796        1       0.00109284      -0.00063061       0.03598751
Pt       2.80573435      -0.00085455      24.55778773        1      -0.00109507      -0.00063031       0.03599989
Pt       5.61442769       0.00255782      24.58008577        1       0.00000182       0.02804240       0.00056849
Pt       1.40360705       2.40505228      24.63193053        1       0.00000117       0.03446600      -0.01021305
Pt       4.21303636       2.42983969      24.58008557        1       0.02428274      -0.01402197       0.00056948
Pt       7.01581925       2.42983931      24.58008597        1      -0.02428367      -0.01402134       0.00056992
Pt       2.82978809       4.87527038      24.63193036        1      -0.02985050      -0.01723354      -0.01021144
Pt       5.61442749       4.86394552      24.55778875        1       0.00000091       0.00126420       0.03598839
Pt       8.39906727       4.87527033      24.63193044        1       0.02985057      -0.01723456      -0.01021135
N        9.82524887       4.05186411      26.87786992        0       0.00000033      -0.00003477       0.01674315
H       10.62134193       3.59223976      26.36492425        0      -0.01376030       0.00794595      -0.00311899
H        9.02915586       3.59223989      26.36492425        0       0.01376045       0.00794662      -0.00311920
H        9.82524888       4.97111286      26.36492450        0      -0.00000024      -0.01585773      -0.00313911
