31
Lattice="8.421641763931781 0.0 0.0 4.2108208819658905 7.293355709136913 0.0 0.0 0.0 44.584161137365626" Properties=species:S:1:pos:R:3:tags:I:1:forces:R:3 energy=-172.8042755126953 free_energy=-172.8042755126953 stress="0.010287958197295666 -5.174827677478788e-09 -8.400252937690311e-09 -5.174827677478788e-09 0.010287963785231113 -9.130769029752628e-09 -8.400252937690311e-09 -9.130769029752628e-09 2.577158375061117e-05" pbc="T T T"
Pt       1.40360696       0.81037286      20.00000000        3       0.00218785       0.00302497       0.00097641
Pt       4.21082088       0.81037286      20.00000000        3       0.00000163      -0.00000158      -0.01218948
Pt       7.01803480       0.81037286      20.00000000        3      -0.00198344       0.00239032       0.00095302
Pt       2.80721392       3.24149143      20.00000000        3      -0.00108026      -0.00291244       0.00095242
Pt       5.61442784       3.24149143      20.00000000        3       0.00152621      -0.00340740       0.00097615
Pt       8.42164176       3.24149143      20.00000000        3       0.00000157       0.00000066       0.03240556
Pt       4.21082088       5.67261000      20.00000000        3       0.00000239       0.00000161      -0.01432872
Pt       7.01803480       5.67261000      20.00000000        3       0.00306036       0.00052146       0.00095317
Pt       9.82524872       5.67261000      20.00000000        3      -0.00371666       0.00038272       0.00097448
Pt      -0.00000000       1.62074571      22.29208057        2       0.00261387       0.12159038       0.04922154
Pt       2.80721392       1.62074571      22.29208057        2      -0.14873341       0.08593455       0.01205635
Pt       5.61442784       1.62074571      22.29208057        2       0.14878830       0.08583739       0.01205248
Pt       1.40360696       4.05186428      22.29208057        2      -0.10660929      -0.05853698       0.04921820
Pt       4.21082088       4.05186428      22.29208057        2      -0.00523057      -0.02981796      -0.07348599
Pt       7.01803480       4.05186428      22.29208057        2       0.10399240      -0.06305748       0.04922219
Pt       2.80721392       6.48298285      22.29208057        2      -0.02320347       0.01944701      -0.07348792
Pt       5.61442784       6.48298285      22.29208057        2       0.02843912       0.01037316      -0.07348398
Pt       8.42164176       6.48298285      22.29208057        2      -0.00005732      -0.17177193       0.01205388
Pt       0.00860724      -0.01200502      24.56953855        1      -0.02004858       0.02606963      -0.00907305
Pt       2.81249674       0.00130170      24.56071260        1      -0.02639601      -0.00283287       0.02083921
Pt       5.61065803       0.00392406      24.56071285        1       0.01565363      -0.02144253       0.02083866
Pt       1.43233401       2.42267592      24.61256628        1      -0.02812739       0.00078874       0.01037778
Pt       4.20930829       2.42589161      24.56071205        1       0.01073415       0.02427752       0.02083991
Pt       6.99635958       2.41046113      24.61256656        1       0.01475495       0.02396310       0.01037536
Pt       2.81330594       4.87569311      24.56953538        1      -0.01254490      -0.03040013      -0.00906084
Pt       5.59972844       4.86078419      24.56953928        1       0.03259751       0.00433616      -0.00908187
Pt       8.41458971       4.89133677      24.61256637        1       0.01337545      -0.02475811       0.01038062
N        8.42164083       3.24149090      26.94050859        0       0.00003746       0.00004250      -0.04889461
H        9.28495102       2.84436969      26.52021850        0      -0.02399416      -0.00124814       0.00247586
H        7.64606804       2.69240558      26.52021559        0       0.01090203       0.02137539       0.00246112
H        8.33390656       4.18770134      26.52021859        0       0.01305662      -0.02016944       0.00248221
