31
Lattice="8.421641763931781 0.0 0.0 4.2108208819658905 7.293355709136913 0.0 0.0 0.0 44.584161137365626" Properties=species:S:1:pos:R:3:tags:I:1:forces:R:3 energy=-173.71632385253906 free_energy=-173.71632385253906 stress="0.010682696476578712 6.907082461538039e-09 4.136189168946203e-09 6.907082461538039e-09 0.010682693682610989 2.0276238466010454e-09 4.136189168946203e-09 2.0276238466010454e-09 -5.441012945084367e-06" pbc="T T T"
Pt       1.40360696       0.81037286      20.00000000        3      -0.00221187      -0.00210035      -0.00610882
Pt       4.21082088       0.81037286      20.00000000        3      -0.00053994       0.00466617       0.01212850
Pt       7.01803480       0.81037286      20.00000000        3       0.00292043      -0.00086991      -0.00611141
Pt       2.80721392       3.24149143      20.00000000        3       0.00431427      -0.00186482       0.01212630
Pt       5.61442784       3.24149143      20.00000000        3      -0.00377318      -0.00280311       0.01212627
Pt       8.42164176       3.24149143      20.00000000        3      -0.00076611      -0.00623473      -0.00916576
Pt       4.21082088       5.67261000      20.00000000        3      -0.00070771       0.00296640      -0.00610974
Pt       7.01803480       5.67261000      20.00000000        3      -0.00501870       0.00378385      -0.00916582
Pt       9.82524872       5.67261000      20.00000000        3       0.00578208       0.00245668      -0.00916570
Pt      -0.00000000       1.62074571      22.29208057        2      -0.00923928       0.00740533      -0.00030424
Pt       2.80721392       1.62074571      22.29208057        2       0.06813655       0.03404494      -0.02931683
Pt       5.61442784       1.62074571      22.29208057        2      -0.06355721       0.04198369      -0.02932022
Pt       1.40360696       4.05186428      22.29208057        2       0.05689656      -0.02519703       0.03227284
Pt       4.21082088       4.05186428      22.29208057        2      -0.00458254      -0.07603257      -0.02931745
Pt       7.01803480       4.05186428      22.29208057        2      -0.05026895      -0.03667544       0.03226713
Pt       2.80721392       6.48298285      22.29208057        2      -0.00179161      -0.01170762      -0.00030905
Pt       5.61442784       6.48298285      22.29208057        2       0.01103613       0.00430637      -0.00031075
Pt       8.42164176       6.48298285      22.29208057        2      -0.00662768       0.06187484       0.03226815
Pt       0.00000103      -0.00000113      24.58900012        1      -0.00000226       0.00000884      -0.00056699
Pt       2.80290947      -0.00398061      24.60741705        1       0.00959430       0.00489333      -0.00839283
Pt       5.62152826      -0.00991174      24.59541139        1      -0.00079010      -0.00941606       0.00866982
Pt       1.39147374       2.42992563      24.59541235        1      -0.00776268       0.00539376       0.00866161
Pt       4.21082222       2.43111931      24.65954081        1      -0.00000451       0.00000699       0.00849336
Pt       7.02363434       2.42938135      24.60741484        1      -0.00902170       0.00585668      -0.00838390
Pt       2.80591914       4.86795660      24.60741500        1      -0.00056345      -0.01075496      -0.00838573
Pt       5.61946413       4.87334350      24.59541188        1       0.00853566       0.00401611       0.00867032
Pt       8.42164015       4.86223749      24.58929187        1       0.00001289      -0.00000150      -0.00244886
N        4.21081931       2.43111793      26.72646605        0       0.00003646      -0.00003737      -0.00394464
H        3.72248121       3.27181004      27.04600486        0      -0.00030239      -0.00186251      -0.00028216
H        5.18305093       2.43368233      27.04600313        0      -0.00152712       0.00119201      -0.00029234
H        3.72692425       1.58785693      27.04599786        0       0.00179371       0.00070217      -0.00028118
