31
Lattice="8.421641763931781 0.0 0.0 4.2108208819658905 7.293355709136913 0.0 0.0 0.0 44.584161137365626" Properties=species:S:1:pos:R:3:tags:I:1:forces:R:3 energy=-173.7047882080078 free_energy=-173.7047882080078 stress="0.01076459139585495 1.5972900655469857e-05 -0.00011779614578699693 1.5972900655469857e-05 0.01067742332816124 0.00013388039951678365 -0.00011779614578699693 0.00013388039951678365 6.436795956688002e-05" pbc="T T T"
Pt       1.40360696       0.81037286      20.00000000        3       0.00166723       0.00488475       0.01253679
Pt       4.21082088       0.81037286      20.00000000        3       0.00413694      -0.00280475      -0.00904596
Pt       7.01803480       0.81037286      20.00000000        3      -0.00256512      -0.00114911      -0.00442836
Pt       2.80721392       3.24149143      20.00000000        3      -0.00299066      -0.00469065       0.01728046
Pt       5.61442784       3.24149143      20.00000000        3       0.00203776      -0.00815333      -0.00714737
Pt       8.42164176       3.24149143      20.00000000        3       0.00519386      -0.00490197       0.01811904
Pt       4.21082088       5.67261000      20.00000000        3      -0.00462488       0.00090380      -0.00809485
Pt       7.01803480       5.67261000      20.00000000        3       0.00601378       0.00229976      -0.01338273
Pt       9.82524872       5.67261000      20.00000000        3       0.00156169       0.00313468      -0.00708893
Pt      -0.00000000       1.62074571      22.29208057        2       0.05682693       0.06246509      -0.00936202
Pt       2.80721392       1.62074571      22.29208057        2      -0.11031607       0.08086297       0.00389532
Pt       5.61442784       1.62074571      22.29208057        2       0.00600876       0.03590029       0.00957180
Pt       1.40360696       4.05186428      22.29208057        2      -0.00252643      -0.06262834      -0.03278778
Pt       4.21082088       4.05186428      22.29208057        2      -0.07867964      -0.01669191       0.03669201
Pt       7.01803480       4.05186428      22.29208057        2       0.03718185      -0.03986972       0.02829454
Pt       2.80721392       6.48298285      22.29208057        2      -0.00725124      -0.00065950       0.01481048
Pt       5.61442784       6.48298285      22.29208057        2      -0.02449855       0.07811649       0.02561906
Pt       8.42164176       6.48298285      22.29208057        2      -0.01431163       0.02026844      -0.02030741
Pt      -0.02915332       0.01355128      24.60040936        1       0.00040531      -0.00148917      -0.00845116
Pt       2.78567895       0.02559858      24.59866796        1       0.01382884      -0.03075816       0.00471307
Pt       5.59149990       0.02632734      24.58802170        1       0.02710075      -0.00579382       0.00203115
Pt       1.38176784       2.45076941      24.67812321        1      -0.00052791      -0.00796604      -0.03465798
Pt       4.20022422       2.45324022      24.59996604        1       0.00992866      -0.00208903      -0.00847289
Pt       6.99054169       2.45725811      24.61170391        1       0.02361798      -0.00683369      -0.00401321
Pt       2.78097313       4.88858815      24.61242321        1       0.00264806      -0.01519052      -0.00585690
Pt       5.58572410       4.88984357      24.58775058        1       0.02310604      -0.02892616       0.00366205
Pt       8.38754528       4.90970949      24.58957970        1       0.00613082      -0.03051432       0.01425331
N        9.62919170       2.72939177      26.72436777        0      -0.01346779       0.02319163      -0.00708520
H       10.10423420       3.60690228      26.95313684        0       0.03362240       0.00677922       0.01614609
H       10.05763697       1.94170993      27.21577081        0       0.00462276      -0.01443705      -0.02708425
H        8.63210233       2.80533751      26.94697701        0      -0.00388061      -0.03325981      -0.00035822
