31
Lattice="8.421641763931781 0.0 0.0 4.2108208819658905 7.293355709136913 0.0 0.0 0.0 44.584161137365626" Properties=species:S:1:pos:R:3:tags:I:1:forces:R:3 energy=-172.79193115234375 free_energy=-172.79193115234375 stress="0.010310162790119648 -4.777601425587363e-09 -2.0623129870500634e-09 -4.777601425587363e-09 0.010310164652764797 -4.581708790141192e-09 -2.0623129870500634e-09 -4.581708790141192e-09 -5.317074101185426e-05" pbc="T T T"
Pt       1.40360696       0.81037286      20.00000000        3      -0.00026716       0.00262292      -0.00198087
Pt       4.21082088       0.81037286      20.00000000        3       0.00150407       0.00008048      -0.00642598
Pt       7.01803480       0.81037286      20.00000000        3      -0.00082437       0.00125766      -0.00642717
Pt       2.80721392       3.24149143      20.00000000        3      -0.00013113      -0.00073318       0.01711407
Pt       5.61442784       3.24149143      20.00000000        3      -0.00068230      -0.00134239      -0.00642759
Pt       8.42164176       3.24149143      20.00000000        3      -0.00056719       0.00048156       0.01711255
Pt       4.21082088       5.67261000      20.00000000        3      -0.00213784      -0.00154348      -0.00198144
Pt       7.01803480       5.67261000      20.00000000        3       0.00240592      -0.00107821      -0.00198141
Pt       9.82524872       5.67261000      20.00000000        3       0.00069984       0.00025417       0.01711443
Pt      -0.00000000       1.62074571      22.29208057        2       0.10594356       0.07567555       0.01753477
Pt       2.80721392       1.62074571      22.29208057        2      -0.11871637       0.08205669       0.00726218
Pt       5.61442784       1.62074571      22.29208057        2      -0.00000218      -0.00000199      -0.12336151
Pt       1.40360696       4.05186428      22.29208057        2       0.00000134      -0.00000014       0.07267582
Pt       4.21082088       4.05186428      22.29208057        2      -0.11850928       0.05390851       0.01753472
Pt       7.01803480       4.05186428      22.29208057        2       0.13041943       0.06178382       0.00726318
Pt       2.80721392       6.48298285      22.29208057        2      -0.01170532      -0.14383934       0.00726219
Pt       5.61442784       6.48298285      22.29208057        2      -0.00000151       0.00000124      -0.04817965
Pt       8.42164176       6.48298285      22.29208057        2       0.01256977      -0.12958404       0.01753317
Pt      -0.00401411      -0.01182693      24.56825738        1       0.01274669       0.02477744      -0.02906702
Pt       2.79897911       0.00938981      24.56825757        1       0.01508304      -0.02342921      -0.02906707
Pt       5.62314551       0.01462096      24.57019346        1      -0.02185026      -0.03447274      -0.00114705
Pt       1.38532264       2.40891793      24.60961102        1       0.02603654      -0.01960957      -0.00391644
Pt       4.21912452       2.41625784      24.57019340        1      -0.01892890       0.03616305      -0.00114629
Pt       7.00101359       2.43135793      24.57019346        1       0.04077936      -0.00168869      -0.00114572
Pt       2.83558237       4.85750273      24.60961169        1       0.00396446       0.03234964      -0.00391502
Pt       5.62667709       4.86467340      24.56825788        1      -0.02783116      -0.00134857      -0.02906695
Pt       8.41155758       4.88917195      24.60961192        1      -0.02999928      -0.01274196      -0.00391425
N        9.82524875       4.05186403      26.91369055        0       0.00000335       0.00002716       0.03990707
H        9.14920420       4.71230528      26.47645007        0      -0.01102786      -0.03061108       0.02028348
H       10.73522920       4.30711513      26.47645032        0      -0.02099329       0.02486054       0.02028216
H        9.59131238       3.13617306      26.47645039        0       0.03201805       0.00572403       0.02027187
