31
Lattice="8.421641763931781 0.0 0.0 4.2108208819658905 7.293355709136913 0.0 0.0 0.0 44.584161137365626" Properties=species:S:1:pos:R:3:tags:I:1:forces:R:3 energy=-172.65090942382812 free_energy=-172.65090942382812 stress="0.010420510545372963 -5.473211217577045e-09 5.9773648253269585e-09 -5.473211217577045e-09 0.010420517064630985 9.141651324817701e-10 5.9773648253269585e-09 9.141651324817701e-10 -9.656892871134914e-06" pbc="T T T"
Pt       1.40360696       0.81037286      20.00000000        3       0.00162012       0.00377486       0.01037899
Pt       4.21082088       0.81037286      20.00000000        3       0.00000187      -0.00000153      -0.00922599
Pt       7.01803480       0.81037286      20.00000000        3      -0.00162161       0.00377506       0.01037779
Pt       2.80721392       3.24149143      20.00000000        3      -0.00246120      -0.00329130       0.01037788
Pt       5.61442784       3.24149143      20.00000000        3       0.00246024      -0.00329082       0.01037744
Pt       8.42164176       3.24149143      20.00000000        3       0.00000145       0.00000055       0.05188331
Pt       4.21082088       5.67261000      20.00000000        3       0.00000246       0.00000114      -0.00294682
Pt       7.01803480       5.67261000      20.00000000        3       0.00407899      -0.00048403       0.01037738
Pt       9.82524872       5.67261000      20.00000000        3      -0.00408218      -0.00048412       0.01037723
Pt      -0.00000000       1.62074571      22.29208057        2       0.00000389       0.10560510      -0.00439924
Pt       2.80721392       1.62074571      22.29208057        2      -0.14262103       0.08234151      -0.01449962
Pt       5.61442784       1.62074571      22.29208057        2       0.14261727       0.08234023      -0.01450343
Pt       1.40360696       4.05186428      22.29208057        2      -0.09145680      -0.05280523      -0.00439843
Pt       4.21082088       4.05186428      22.29208057        2       0.00000043      -0.00523469      -0.04636873
Pt       7.01803480       4.05186428      22.29208057        2       0.09145533      -0.05280332      -0.00440101
Pt       2.80721392       6.48298285      22.29208057        2      -0.00453279       0.00261823      -0.04636919
Pt       5.61442784       6.48298285      22.29208057        2       0.00453159       0.00261954      -0.04636995
Pt       8.42164176       6.48298285      22.29208057        2       0.00000078      -0.16468012      -0.01450364
Pt       0.00000027       0.00060295      24.57922932        1       0.00000006      -0.02770149       0.00173312
Pt       2.81241604       0.00300304      24.55814358        1      -0.02220691      -0.01281645       0.03848317
Pt       5.60922587       0.00300325      24.55814320        1       0.02220544      -0.01282029       0.03848246
Pt       1.43391693       2.41361905      24.62834734        1      -0.03289128       0.01898874      -0.01525065
Pt       4.21082131       2.42511170      24.55814314        1      -0.00000399       0.02563984       0.03848292
Pt       6.98772426       2.41361855      24.62834641        1       0.03289915       0.01899445      -0.01523685
Pt       2.80669138       4.86193549      24.57922951        1       0.02399229       0.01384988       0.00173418
Pt       5.61495025       4.86193555      24.57922963        1      -0.02399263       0.01385058       0.00173366
Pt       8.42164179       4.89723631      24.62834609        1      -0.00000046      -0.03798609      -0.01523866
N        8.42164215       3.24149157      26.85409203        0      -0.00003475      -0.00000017       0.03300098
H        7.62460670       3.70166033      26.34143845        0       0.01383118      -0.00798856      -0.00468856
H        9.21867652       3.70165981      26.34143854        0      -0.01379426      -0.00796411      -0.00470412
H        8.42164183       2.32115471      26.34143827        0      -0.00000270       0.01595260      -0.00469556
