31
Lattice="8.421641763931781 0.0 0.0 4.2108208819658905 7.293355709136913 0.0 0.0 0.0 44.584161137365626" Properties=species:S:1:pos:R:3:tags:I:1:forces:R:3 energy=-172.65139770507812 free_energy=-172.65139770507812 stress="0.010359592735767365 3.893589894943261e-09 -5.5557300981945446e-09 3.893589894943261e-09 0.010359610430896282 3.3383351638605063e-09 -5.5557300981945446e-09 3.3383351638605063e-09 -4.0895858546718955e-05" pbc="T T T"
Pt       1.40360696       0.81037286      20.00000000        3       0.00129190       0.00270158       0.00972646
Pt       4.21082088       0.81037286      20.00000000        3       0.00000170      -0.00000146      -0.00685343
Pt       7.01803480       0.81037286      20.00000000        3      -0.00129356       0.00270188       0.00972548
Pt       2.80721392       3.24149143      20.00000000        3      -0.00169508      -0.00247042       0.00972551
Pt       5.61442784       3.24149143      20.00000000        3       0.00169409      -0.00247073       0.00972584
Pt       8.42164176       3.24149143      20.00000000        3       0.00000161       0.00000058       0.04421705
Pt       4.21082088       5.67261000      20.00000000        3       0.00000244       0.00000137      -0.00171083
Pt       7.01803480       5.67261000      20.00000000        3       0.00298535      -0.00023118       0.00972509
Pt       9.82524872       5.67261000      20.00000000        3      -0.00298868      -0.00023129       0.00972569
Pt      -0.00000000       1.62074571      22.29208057        2       0.00000250       0.08691568      -0.02148201
Pt       2.80721392       1.62074571      22.29208057        2      -0.12750025       0.07361117      -0.01448119
Pt       5.61442784       1.62074571      22.29208057        2       0.12749900       0.07361355      -0.01448449
Pt       1.40360696       4.05186428      22.29208057        2      -0.07527161      -0.04345943      -0.02148127
Pt       4.21082088       4.05186428      22.29208057        2       0.00000142      -0.00806245      -0.05043885
Pt       7.01803480       4.05186428      22.29208057        2       0.07527012      -0.04345844      -0.02148218
Pt       2.80721392       6.48298285      22.29208057        2      -0.00697818       0.00403053      -0.05044040
Pt       5.61442784       6.48298285      22.29208057        2       0.00697990       0.00403204      -0.05043844
Pt       8.42164176       6.48298285      22.29208057        2      -0.00000106      -0.14722386      -0.01448378
Pt       0.00000025      -0.00376773      24.58110107        1       0.00000032       0.00321374      -0.00503194
Pt       2.81067505       0.00199809      24.56004448        1      -0.00292372      -0.00168760       0.02771068
Pt       5.61096693       0.00199815      24.56004421        1       0.00292206      -0.00168846       0.02772161
Pt       1.42969048       2.41605900      24.61787442        1      -0.01591840       0.00919132       0.04069778
Pt       4.21082094       2.42712206      24.56004431        1      -0.00000214       0.00337485       0.02771163
Pt       6.99195124       2.41605928      24.61787446        1       0.01591935       0.00918952       0.04069728
Pt       2.81047668       4.86412066      24.58110128        1      -0.00278516      -0.00160685      -0.00503026
Pt       5.61116505       4.86412058      24.58110141        1       0.00278332      -0.00160529      -0.00503063
Pt       8.42164163       4.89235561      24.61787456        1       0.00000281      -0.01838056       0.04069760
N        8.42164135       3.24149186      26.85605662        0       0.00003695      -0.00002222      -0.01854084
H        8.42164184       2.32351813      26.34043679        0      -0.00000261      -0.01304193      -0.00212494
H        7.62665394       3.70047790      26.34043703        0      -0.01133181       0.00654049      -0.00214651
H        9.21662984       3.70047839      26.34043632        0       0.01129735       0.00652391      -0.00212577
