31
Lattice="8.421641763931781 0.0 0.0 4.2108208819658905 7.293355709136913 0.0 0.0 0.0 44.584161137365626" Properties=species:S:1:pos:R:3:tags:I:1:forces:R:3 energy=-172.80630493164062 free_energy=-172.80630493164062 stress="0.010269245132803917 2.051397274271949e-09 2.3248634128947288e-09 2.051397274271949e-09 0.01026925165206194 -2.3670347903959055e-09 2.3248634128947288e-09 -2.3670347903959055e-09 9.027141459228005e-06" pbc="T T T"
Pt       1.40360696       0.81037286      20.00000000        3       0.00214417       0.00263989       0.00079575
Pt       4.21082088       0.81037286      20.00000000        3       0.00000179      -0.00000131      -0.00880852
Pt       7.01803480       0.81037286      20.00000000        3      -0.00214586       0.00264035       0.00079471
Pt       2.80721392       3.24149143      20.00000000        3      -0.00121537      -0.00317786       0.00079420
Pt       5.61442784       3.24149143      20.00000000        3       0.00121476      -0.00317770       0.00079465
Pt       8.42164176       3.24149143      20.00000000        3       0.00000155       0.00000024       0.03264308
Pt       4.21082088       5.67261000      20.00000000        3       0.00000245       0.00000114      -0.01720217
Pt       7.01803480       5.67261000      20.00000000        3       0.00335792       0.00053759       0.00079384
Pt       9.82524872       5.67261000      20.00000000        3      -0.00336143       0.00053736       0.00079438
Pt      -0.00000000       1.62074571      22.29208057        2       0.00000426       0.12738703       0.04131871
Pt       2.80721392       1.62074571      22.29208057        2      -0.13941319       0.08048873       0.02965500
Pt       5.61442784       1.62074571      22.29208057        2       0.13940933       0.08048741       0.02965019
Pt       1.40360696       4.05186428      22.29208057        2      -0.11031991      -0.06369689       0.04131861
Pt       4.21082088       4.05186428      22.29208057        2       0.00000068      -0.04157445      -0.08074379
Pt       7.01803480       4.05186428      22.29208057        2       0.11031912      -0.06369466       0.04131595
Pt       2.80721392       6.48298285      22.29208057        2      -0.03600305       0.02078833      -0.08074368
Pt       5.61442784       6.48298285      22.29208057        2       0.03600242       0.02078906      -0.08074420
Pt       8.42164176       6.48298285      22.29208057        2       0.00000106      -0.16097426       0.02965131
Pt       0.00000028      -0.01019397      24.56513580        1       0.00000112       0.01071990       0.01351373
Pt       2.80876075       0.00089265      24.56436989        1       0.00933332       0.00539043      -0.00226510
Pt       5.61288118       0.00089276      24.56436984        1      -0.00933456       0.00538899      -0.00226447
Pt       1.42713130       2.41753708      24.61312652        1      -0.00276402       0.00159430      -0.00095116
Pt       4.21082129       2.42933249      24.56436900        1      -0.00000397      -0.01077887      -0.00226414
Pt       6.99451057       2.41753676      24.61312571        1       0.00276674       0.00159504      -0.00094075
Pt       2.81604195       4.86733394      24.56513605        1      -0.00928335      -0.00536099       0.01351495
Pt       5.60559973       4.86733346      24.56513564        1       0.00928168      -0.00535645       0.01351453
Pt       8.42164127       4.88940007      24.61312569        1       0.00000162      -0.00319170      -0.00094018
N        8.42164167       3.24149115      26.94056611        0      -0.00001414       0.00001755      -0.03256023
H        7.60150777       2.76798689      26.51488952        0      -0.02598864      -0.01500830       0.00652276
H        8.42164197       4.18850013      26.51488972        0      -0.00000458       0.03001454       0.00652624
H        9.24177525       2.76798741      26.51488985        0       0.02600802      -0.01502448       0.00651580
