31
Lattice="8.421641763931781 0.0 0.0 4.2108208819658905 7.293355709136913 0.0 0.0 0.0 44.584161137365626" Properties=species:S:1:pos:R:3:tags:I:1:forces:R:3 energy=-172.8055419921875 free_energy=-172.8055419921875 stress="0.010231109336018562 -2.0757795937242918e-05 9.825612505665049e-05 -2.0757795937242918e-05 0.010255152359604836 5.672117185895331e-05 9.825612505665049e-05 5.672117185895331e-05 -5.919065370108001e-05" pbc="T T T"
Pt       1.40360696       0.81037286      20.00000000        3       0.00072953       0.00306878       0.00427204
Pt       4.21082088       0.81037286      20.00000000        3      -0.00051487      -0.00029988      -0.00790998
Pt       7.01803480       0.81037286      20.00000000        3      -0.00367372       0.00022153      -0.00474954
Pt       2.80721392       3.24149143      20.00000000        3      -0.00297203      -0.00394574       0.00620201
Pt       5.61442784       3.24149143      20.00000000        3      -0.00164343      -0.00329153      -0.00474983
Pt       8.42164176       3.24149143      20.00000000        3       0.00016064       0.00009287       0.03382882
Pt       4.21082088       5.67261000      20.00000000        3      -0.00142955      -0.00082513      -0.01465866
Pt       7.01803480       5.67261000      20.00000000        3       0.00302317      -0.00090239       0.00427139
Pt       9.82524872       5.67261000      20.00000000        3      -0.00490482      -0.00059907       0.00620365
Pt      -0.00000000       1.62074571      22.29208057        2       0.06775139       0.13290519       0.02002318
Pt       2.80721392       1.62074571      22.29208057        2      -0.14976273       0.10423664       0.05781360
Pt       5.61442784       1.62074571      22.29208057        2       0.10110050       0.05836754      -0.04284718
Pt       1.40360696       4.05186428      22.29208057        2      -0.08819649      -0.05091849       0.06141001
Pt       4.21082088       4.05186428      22.29208057        2       0.00216037      -0.01868843      -0.08239971
Pt       7.01803480       4.05186428      22.29208057        2       0.14897665      -0.00778126       0.02002511
Pt       2.80721392       6.48298285      22.29208057        2      -0.01510506       0.01121609      -0.08239885
Pt       5.61442784       6.48298285      22.29208057        2       0.05875493       0.03392800      -0.07097941
Pt       8.42164176       6.48298285      22.29208057        2       0.01539546      -0.18181612       0.05781149
Pt       0.02783326       0.01203050      24.56749242        1      -0.00524949      -0.01786320       0.00480363
Pt       2.83632488       0.01680495      24.56492706        1      -0.01651778      -0.00952239      -0.01172580
Pt       5.64060772       0.01409739      24.56335046        1      -0.03698383       0.00792634       0.01108235
Pt       1.45097174       2.43372179      24.62335641        1       0.00761310      -0.01098169      -0.02258380
Pt       4.23612000       2.44674183      24.56334961        1      -0.01163363      -0.03599127       0.01109147
Pt       7.01179404       2.42751488      24.59225073        1      -0.00992289      -0.00572120       0.01752504
Pt       2.85409399       4.88930316      24.57053458        1      -0.03598805      -0.02078104      -0.01218805
Pt       5.63876341       4.88032715      24.56748940        1      -0.01809317       0.00437517       0.00481410
Pt       8.44757904       4.90195617      24.62335700        1      -0.00570900       0.01206721      -0.02258770
N        8.65415702       3.37573490      26.90603389        0      -0.01222343      -0.00698866       0.04632157
H        9.51445712       2.92327457      26.54188336        0       0.01473801      -0.00888053      -0.00791018
H        7.87705764       2.92707201      26.37849179        0       0.00047759       0.00031590       0.02808201
H        8.69246820       4.34701032      26.54188417        0      -0.00035756       0.01707648      -0.00789306
