31
Lattice="8.421641763931781 0.0 0.0 4.2108208819658905 7.293355709136913 0.0 0.0 0.0 44.584161137365626" Properties=species:S:1:pos:R:3:tags:I:1:forces:R:3 energy=-172.80471801757812 free_energy=-172.80471801757812 stress="0.010280800983309746 -7.890116116016088e-09 5.827802684876815e-09 -7.890116116016088e-09 0.010280810296535492 -5.083683252138371e-09 5.827802684876815e-09 -5.083683252138371e-09 -4.8697391321184114e-05" pbc="T T T"
Pt       1.40360696       0.81037286      20.00000000        3       0.00020816       0.00324480      -0.00452614
Pt       4.21082088       0.81037286      20.00000000        3       0.00133242       0.00095880      -0.01032525
Pt       7.01803480       0.81037286      20.00000000        3      -0.00149960       0.00066974      -0.01032665
Pt       2.80721392       3.24149143      20.00000000        3      -0.00040424       0.00063095       0.01849604
Pt       5.61442784       3.24149143      20.00000000        3       0.00016404      -0.00163268      -0.01032627
Pt       8.42164176       3.24149143      20.00000000        3       0.00075060       0.00003700       0.01849380
Pt       4.21082088       5.67261000      20.00000000        3      -0.00291373      -0.00144344      -0.00452474
Pt       7.01803480       5.67261000      20.00000000        3       0.00270690      -0.00180041      -0.00452694
Pt       9.82524872       5.67261000      20.00000000        3      -0.00034428      -0.00066453       0.01849613
Pt      -0.00000000       1.62074571      22.29208057        2       0.12141696       0.09943824      -0.00068129
Pt       2.80721392       1.62074571      22.29208057        2      -0.11678366       0.09312621       0.00267656
Pt       5.61442784       1.62074571      22.29208057        2      -0.00000209      -0.00000183      -0.11648741
Pt       1.40360696       4.05186428      22.29208057        2       0.00000189       0.00000097       0.08542738
Pt       4.21082088       4.05186428      22.29208057        2      -0.14682698       0.05543020      -0.00068069
Pt       7.01803480       4.05186428      22.29208057        2       0.13904044       0.05457425       0.00267861
Pt       2.80721392       6.48298285      22.29208057        2      -0.02225821      -0.14770371       0.00267827
Pt       5.61442784       6.48298285      22.29208057        2      -0.00000254       0.00000140      -0.07501405
Pt       8.42164176       6.48298285      22.29208057        2       0.02541198      -0.15486695      -0.00068467
Pt       0.00299949       0.00562556      24.55889604        1       0.00095635      -0.02670861       0.02337730
Pt       2.81058670      -0.00541127      24.55889589        1      -0.02360874       0.01252749       0.02337648
Pt       5.61434463       0.00954735      24.56698454        1       0.00307351       0.00665618       0.01108018
Pt       1.41041404       2.41008100      24.61570011        1      -0.02005646       0.00548425       0.00407146
Pt       4.21913092       2.42641664      24.56698343        1       0.00422696      -0.00599091       0.01108098
Pt       7.00980733       2.42627176      24.56698354        1      -0.00729686      -0.00066216       0.01108104
Pt       2.82202832       4.87864998      24.61570121        1       0.00528153      -0.02010834       0.00406379
Pt       5.60805561       4.86202139      24.55889583        1       0.02265157       0.01418129       0.02337703
Pt       8.40001942       4.86686064      24.61569921        1       0.01477220       0.01462194       0.00406791
N        9.82524866       4.05186394      26.95923710        0      -0.00005890       0.00003709       0.01825848
H       10.67772033       4.46865032      26.53935154        0       0.00443980       0.01352343      -0.01490390
H        9.75996060       3.10520991      26.53935015        0       0.00950857      -0.01059611      -0.01490408
H        9.03806715       4.58173413      26.53934706        0      -0.01388747      -0.00296476      -0.01486944
