31
Lattice="8.421641763931781 0.0 0.0 4.2108208819658905 7.293355709136913 0.0 0.0 0.0 44.584161137365626" Properties=species:S:1:pos:R:3:tags:I:1:forces:R:3 energy=-172.80897521972656 free_energy=-172.80897521972656 stress="0.010249982587993145 -2.9375982194324024e-05 1.2164510962975328e-06 -2.9375982194324024e-05 0.010283922776579857 6.984466836001957e-07 1.2164510962975328e-06 6.984466836001957e-07 -5.020268417865736e-06" pbc="T T T"
Pt       1.40360696       0.81037286      20.00000000        3       0.00154541       0.00357508       0.00241148
Pt       4.21082088       0.81037286      20.00000000        3       0.00010113       0.00005641      -0.00896740
Pt       7.01803480       0.81037286      20.00000000        3      -0.00261078       0.00156756      -0.00206816
Pt       2.80721392       3.24149143      20.00000000        3      -0.00173217      -0.00380929       0.00406441
Pt       5.61442784       3.24149143      20.00000000        3       0.00005327      -0.00304386      -0.00206831
Pt       8.42164176       3.24149143      20.00000000        3       0.00104865       0.00060498       0.03430521
Pt       4.21082088       5.67261000      20.00000000        3      -0.00012556      -0.00007255      -0.01603460
Pt       7.01803480       5.67261000      20.00000000        3       0.00386867      -0.00044870       0.00240964
Pt       9.82524872       5.67261000      20.00000000        3      -0.00416585       0.00040519       0.00406495
Pt      -0.00000000       1.62074571      22.29208057        2       0.04131551       0.12694450       0.03362839
Pt       2.80721392       1.62074571      22.29208057        2      -0.15789583       0.09304322       0.05010179
Pt       5.61442784       1.62074571      22.29208057        2       0.10316378       0.05956168      -0.02880117
Pt       1.40360696       4.05186428      22.29208057        2      -0.11025012      -0.06365390       0.05075756
Pt       4.21082088       4.05186428      22.29208057        2      -0.00397177      -0.03557301      -0.07853225
Pt       7.01803480       4.05186428      22.29208057        2       0.13059257      -0.02769530       0.03362876
Pt       2.80721392       6.48298285      22.29208057        2      -0.03279293       0.01434721      -0.07853326
Pt       5.61442784       6.48298285      22.29208057        2       0.03574812       0.02064262      -0.07620193
Pt       8.42164176       6.48298285      22.29208057        2       0.00163160      -0.18326159       0.05010062
Pt       0.00363850      -0.00333027      24.56711474        1      -0.00097868      -0.00223903       0.00480533
Pt       2.80921591       0.00115534      24.56195739        1       0.01677450       0.00968845       0.00476432
Pt       5.61677762       0.00811526      24.56456319        1      -0.00498398      -0.01182144       0.00389659
Pt       1.43271196       2.42000979      24.62122139        1      -0.00169291       0.00021870      -0.00541585
Pt       4.21902443       2.42909583      24.56456364        1      -0.01273366       0.00159392       0.00389606
Pt       6.99867018       2.41993805      24.60123086        1       0.00206078       0.00118968       0.01021932
Pt       2.82499474       4.87250335      24.56471850        1       0.00104081       0.00059802       0.01160896
Pt       5.61336323       4.86705313      24.56711437        1      -0.00243155       0.00027080       0.00480618
Pt       8.42657312       4.89299727      24.62122077        1      -0.00065404      -0.00157746      -0.00541659
N        8.61850702       3.35515135      26.92569336        0       0.01947115       0.01127560       0.02495313
H        7.82511555       2.89708603      26.43662628        0      -0.01055487      -0.00609569      -0.02101198
H        8.64517446       4.32184849      26.54853561        0      -0.00545583      -0.00310013      -0.00567825
H        9.46902444       2.89489730      26.54853773        0      -0.00538531      -0.00319158      -0.00569308
