31
Lattice="8.421641763931781 0.0 0.0 4.2108208819658905 7.293355709136913 0.0 0.0 0.0 44.584161137365626" Properties=species:S:1:pos:R:3:tags:I:1:forces:R:3 energy=-172.5789794921875 free_energy=-172.5789794921875 stress="0.010473079979419708 -2.836190615695955e-09 8.526766848149236e-09 -2.836190615695955e-09 0.010473111644387245 2.230998302765741e-10 8.526766848149236e-09 2.230998302765741e-10 -0.00020023893739562482" pbc="T T T"
Pt       1.40360696       0.81037286      20.00000000        3       0.00074775       0.00084608      -0.00204465
Pt       4.21082088       0.81037286      20.00000000        3       0.00000162      -0.00000132      -0.00540158
Pt       7.01803480       0.81037286      20.00000000        3      -0.00079879       0.00067896      -0.00220141
Pt       2.80721392       3.24149143      20.00000000        3      -0.00019059      -0.00103058      -0.00220025
Pt       5.61442784       3.24149143      20.00000000        3       0.00035995      -0.00107051      -0.00204608
Pt       8.42164176       3.24149143      20.00000000        3       0.00000126       0.00000063       0.00783634
Pt       4.21082088       5.67261000      20.00000000        3       0.00000233       0.00000093      -0.00681666
Pt       7.01803480       5.67261000      20.00000000        3       0.00098547       0.00035140      -0.00220114
Pt       9.82524872       5.67261000      20.00000000        3      -0.00110915       0.00022476      -0.00204533
Pt      -0.00000000       1.62074571      22.29208057        2       0.00152890       0.04198161       0.02925943
Pt       2.80721392       1.62074571      22.29208057        2      -0.03219038       0.01882912      -0.02422200
Pt       5.61442784       1.62074571      22.29208057        2       0.03240009       0.01846233      -0.02422194
Pt       1.40360696       4.05186428      22.29208057        2      -0.03711957      -0.01966938       0.02926156
Pt       4.21082088       4.05186428      22.29208057        2       0.00078351      -0.01329150      -0.03097766
Pt       7.01803480       4.05186428      22.29208057        2       0.03559312      -0.02231395       0.02926074
Pt       2.80721392       6.48298285      22.29208057        2      -0.01190286       0.00596576      -0.03097762
Pt       5.61442784       6.48298285      22.29208057        2       0.01111722       0.00732709      -0.03098013
Pt       8.42164176       6.48298285      22.29208057        2      -0.00021012      -0.03729020      -0.02422348
Pt       0.00056976      -0.00636844      24.57875323        1       0.00299027       0.01932375      -0.00732246
Pt       2.80846395       0.00150254      24.57723230        1      -0.00713283      -0.00009530      -0.00424266
Pt       5.61250134       0.00033106      24.57723223        1       0.00365153      -0.00612699      -0.00424227
Pt       1.41829729       2.42546241      24.58945447        1      -0.01929913       0.01753194       0.00628394
Pt       4.21149726       2.42928469      24.57723235        1       0.00348270       0.00622483      -0.00424206
Pt       7.00579119       2.42122455      24.58945454        1       0.02483296       0.00794748       0.00628406
Pt       2.81244432       4.86591462      24.57875356        1      -0.01822761      -0.00707262      -0.00733167
Pt       5.60862791       4.86492813      24.57875344        1       0.01523936      -0.01225231      -0.00732279
Pt       8.41919495       4.87778739      24.58945459        1      -0.00553698      -0.02548251       0.00628509
N        8.42164275       3.24149155      27.59559747        0      -0.00006643       0.00000709       0.00371420
H        7.95366736       4.06216609      27.19906540        0       0.03363266      -0.00875108       0.03570317
H        9.36635306       3.23643177      27.19906574        0      -0.02432768      -0.02474713       0.03567484
H        7.94490379       2.42587653      27.19906531        0      -0.00923844       0.03349155       0.03570031
