31
Lattice="8.421641763931781 0.0 0.0 4.2108208819658905 7.293355709136913 0.0 0.0 0.0 44.584161137365626" Properties=species:S:1:pos:R:3:tags:I:1:forces:R:3 energy=-173.71034240722656 free_energy=-173.71034240722656 stress="0.01069529727101326 -1.9361475978030285e-08 1.0168545117039685e-08 -1.9361475978030285e-08 0.010695300996303558 -5.114971779462962e-10 1.0168545117039685e-08 -5.114971779462962e-10 3.0908140615792945e-06" pbc="T T T"
Pt       1.40360696       0.81037286      20.00000000        3      -0.00281378      -0.00162758      -0.00614351
Pt       4.21082088       0.81037286      20.00000000        3       0.00000161       0.00467882       0.01237372
Pt       7.01803480       0.81037286      20.00000000        3       0.00281228      -0.00162747      -0.00614455
Pt       2.80721392       3.24149143      20.00000000        3       0.00405405      -0.00234059       0.01237214
Pt       5.61442784       3.24149143      20.00000000        3      -0.00405476      -0.00234016       0.01237276
Pt       8.42164176       3.24149143      20.00000000        3       0.00000136      -0.00599259      -0.00957826
Pt       4.21082088       5.67261000      20.00000000        3       0.00000234       0.00325173      -0.00614497
Pt       7.01803480       5.67261000      20.00000000        3      -0.00519196       0.00299891      -0.00957870
Pt       9.82524872       5.67261000      20.00000000        3       0.00518877       0.00299894      -0.00957921
Pt      -0.00000000       1.62074571      22.29208057        2       0.00000239       0.00510754      -0.00151606
Pt       2.80721392       1.62074571      22.29208057        2       0.06926210       0.03998566      -0.02597923
Pt       5.61442784       1.62074571      22.29208057        2      -0.06926358       0.03998931      -0.02597937
Pt       1.40360696       4.05186428      22.29208057        2       0.05423298      -0.03131311       0.02822057
Pt       4.21082088       4.05186428      22.29208057        2       0.00000279      -0.07997875      -0.02598107
Pt       7.01803480       4.05186428      22.29208057        2      -0.05423471      -0.03131247       0.02822386
Pt       2.80721392       6.48298285      22.29208057        2      -0.00442243      -0.00255124      -0.00152104
Pt       5.61442784       6.48298285      22.29208057        2       0.00442459      -0.00255127      -0.00151906
Pt       8.42164176       6.48298285      22.29208057        2      -0.00000095       0.06262571       0.02822290
Pt       0.00000097       0.00000003      24.59012735        1      -0.00000020       0.00000090      -0.00374770
Pt       2.80236871      -0.00774501      24.60058727        1       0.00342343       0.00355444       0.00235574
Pt       5.61927426      -0.00774486      24.60058687        1      -0.00342481       0.00355839       0.00236359
Pt       1.39447728       2.43079512      24.60058726        1       0.00478935       0.00118042       0.00235768
Pt       4.21082012       2.43111826      24.66290724        1      -0.00000026       0.00000113       0.02312955
Pt       7.02716518       2.43079468      24.60058742        1      -0.00479420       0.00118504       0.00235619
Pt       2.80292987       4.87030649      24.60058681        1       0.00137440      -0.00474254       0.00236505
Pt       5.61871279       4.87030614      24.60058687        1      -0.00136951      -0.00474282       0.00236517
Pt       8.42164290       4.86223700      24.58918564        1      -0.00000813       0.00000333      -0.00197452
N        4.21081746       2.43111770      26.73258967        0       0.00012021      -0.00001583      -0.02156198
H        5.05231729       1.94527903      27.05342476        0      -0.00957811       0.00552815      -0.00072666
H        3.36932267       1.94527934      27.05342903        0       0.00946794       0.00546782      -0.00069673
H        4.21081946       3.40279451      27.05342616        0      -0.00000319      -0.01097992      -0.00070624
