31
Lattice="8.421641763931781 0.0 0.0 4.2108208819658905 7.293355709136913 0.0 0.0 0.0 44.584161137365626" Properties=species:S:1:pos:R:3:tags:I:1:forces:R:3 energy=-172.65194702148438 free_energy=-172.65194702148438 stress="0.010527022182941437 4.035010103820014e-09 -4.418464705224778e-09 4.035010103820014e-09 0.010527029633522034 -9.332102868242487e-10 -4.418464705224778e-09 -9.332102868242487e-10 0.00012922377209179103" pbc="T T T"
Pt       1.40360696       0.81037286      20.00000000        3       0.00164695       0.00305768       0.01138940
Pt       4.21082088       0.81037286      20.00000000        3       0.00000206      -0.00000144      -0.00399068
Pt       7.01803480       0.81037286      20.00000000        3      -0.00164884       0.00305806       0.01138854
Pt       2.80721392       3.24149143      20.00000000        3      -0.00182631      -0.00295609       0.01138809
Pt       5.61442784       3.24149143      20.00000000        3       0.00182548      -0.00295581       0.01138848
Pt       8.42164176       3.24149143      20.00000000        3       0.00000112       0.00000053       0.04826826
Pt       4.21082088       5.67261000      20.00000000        3       0.00000232       0.00000170      -0.00338626
Pt       7.01803480       5.67261000      20.00000000        3       0.00347135      -0.00010238       0.01138812
Pt       9.82524872       5.67261000      20.00000000        3      -0.00347441      -0.00010183       0.01138869
Pt      -0.00000000       1.62074571      22.29208057        2       0.00000121       0.09585483      -0.00173254
Pt       2.80721392       1.62074571      22.29208057        2      -0.12623730       0.07288244       0.01765545
Pt       5.61442784       1.62074571      22.29208057        2       0.12623623       0.07288218       0.01765426
Pt       1.40360696       4.05186428      22.29208057        2      -0.08301328      -0.04792834      -0.00173145
Pt       4.21082088       4.05186428      22.29208057        2       0.00000167      -0.01844290      -0.03357563
Pt       7.01803480       4.05186428      22.29208057        2       0.08301206      -0.04792862      -0.00173219
Pt       2.80721392       6.48298285      22.29208057        2      -0.01597079       0.00922172      -0.03357570
Pt       5.61442784       6.48298285      22.29208057        2       0.01596934       0.00922230      -0.03357737
Pt       8.42164176       6.48298285      22.29208057        2       0.00000124      -0.14576486       0.01765525
Pt       0.00000025      -0.00256549      24.58162054        1      -0.00000074      -0.00452043      -0.00637227
Pt       2.81078817       0.00206339      24.56715301        1      -0.00150403      -0.00086845      -0.00898975
Pt       5.61085379       0.00206348      24.56715330        1       0.00150503      -0.00086971      -0.00899008
Pt       1.42971871       2.41604266      24.62652851        1      -0.00347781       0.00201048      -0.00728160
Pt       4.21082095       2.42699131      24.56715349        1      -0.00000029       0.00173854      -0.00898996
Pt       6.99192328       2.41604280      24.62652795        1       0.00347740       0.00200779      -0.00728215
Pt       2.80943550       4.86351961      24.58162091        1       0.00391218       0.00225852      -0.00637062
Pt       5.61220650       4.86351952      24.58162077        1      -0.00391532       0.00225889      -0.00637107
Pt       8.42164139       4.89238808      24.62652869        1       0.00000299      -0.00401572      -0.00728099
N        8.42164154       3.24149150      26.85794742        0       0.00002324       0.00000562       0.01035309
H        8.42164176       2.32111854      26.34494150        0      -0.00000115       0.02538526       0.00043646
H        7.62457500       3.70167812      26.34494185        0       0.02198599      -0.01268907       0.00043204
H        9.21870908       3.70167758      26.34494213        0      -0.02200761      -0.01270107       0.00044414
