31
Lattice="8.421641763931781 0.0 0.0 4.2108208819658905 7.293355709136913 0.0 0.0 0.0 44.584161137365626" Properties=species:S:1:pos:R:3:tags:I:1:forces:R:3 energy=-172.76148986816406 free_energy=-172.76148986816406 stress="0.01039885077625513 8.091345807770267e-05 6.975681753829122e-05 8.091345807770267e-05 0.01034686528146267 -0.00012504958431236446 6.975681753829122e-05 -0.00012504958431236446 3.0789953598286957e-05" pbc="T T T"
Pt       1.40360696       0.81037286      20.00000000        3      -0.00037570       0.00380420       0.00172341
Pt       4.21082088       0.81037286      20.00000000        3      -0.00042450       0.00079527      -0.00353655
Pt       7.01803480       0.81037286      20.00000000        3      -0.00233548       0.00270183       0.00237879
Pt       2.80721392       3.24149143      20.00000000        3      -0.00085499      -0.00218583       0.01590496
Pt       5.61442784       3.24149143      20.00000000        3       0.00055696      -0.00220423       0.00321835
Pt       8.42164176       3.24149143      20.00000000        3       0.00110838       0.00289485       0.03659695
Pt       4.21082088       5.67261000      20.00000000        3      -0.00287835      -0.00069364      -0.00485519
Pt       7.01803480       5.67261000      20.00000000        3       0.00290341      -0.00062390       0.00399756
Pt       9.82524872       5.67261000      20.00000000        3      -0.00323130       0.00077653       0.01940930
Pt      -0.00000000       1.62074571      22.29208057        2       0.05972609       0.07665299      -0.01966730
Pt       2.80721392       1.62074571      22.29208057        2      -0.10449293       0.07611497       0.01836706
Pt       5.61442784       1.62074571      22.29208057        2       0.06586573       0.01851049      -0.05669826
Pt       1.40360696       4.05186428      22.29208057        2      -0.07248603      -0.00916232       0.02687056
Pt       4.21082088       4.05186428      22.29208057        2      -0.03736522      -0.02237834      -0.04282005
Pt       7.01803480       4.05186428      22.29208057        2       0.13662072       0.01731505       0.02739717
Pt       2.80721392       6.48298285      22.29208057        2      -0.03788940      -0.05533011      -0.03392383
Pt       5.61442784       6.48298285      22.29208057        2       0.02046552      -0.00894454      -0.05894195
Pt       8.42164176       6.48298285      22.29208057        2       0.02943807      -0.19373514       0.06492926
Pt       0.00645458      -0.03069471      24.57063916        1      -0.00461017      -0.00566453      -0.00685918
Pt       2.81511080      -0.00607368      24.55895338        1       0.01372626       0.00371414       0.00540447
Pt       5.63505435       0.00201126      24.57390692        1      -0.01588462       0.00024232      -0.02148649
Pt       1.43722069       2.38958329      24.61622917        1       0.01147568       0.01140625       0.00466686
Pt       4.24306816       2.41553451      24.57289298        1       0.01375456      -0.01776075      -0.01404561
Pt       7.04600243       2.41441483      24.60179973        1      -0.04128323      -0.00646104       0.00962381
Pt       2.81765091       4.83508823      24.60072285        1       0.00157407       0.02197059       0.01102270
Pt       5.61425385       4.84999638      24.57091257        1       0.00341171      -0.00233355      -0.01212937
Pt       8.41336257       4.89399520      24.62803547        1       0.00349680       0.02343122      -0.01594482
N        9.11935058       3.62806975      26.87165634        0      -0.01615082       0.02757131       0.02695844
H       10.01359922       3.72122812      26.33079496        0      -0.02668309       0.00907325      -0.00591797
H        8.58705944       2.90626500      26.32759967        0       0.00280764       0.02540363       0.00020450
H        8.62515724       4.49370982      26.56866915        0       0.00001422       0.00509869       0.01815279
