31
Lattice="8.421641763931781 0.0 0.0 4.2108208819658905 7.293355709136913 0.0 0.0 0.0 44.584161137365626" Properties=species:S:1:pos:R:3:tags:I:1:forces:R:3 energy=-172.80599975585938 free_energy=-172.80599975585938 stress="0.010280285961925983 1.8649123911806953e-10 1.5236085726400006e-09 1.8649123911806953e-10 0.010280285961925983 -2.1549879658522286e-09 1.5236085726400006e-09 -2.1549879658522286e-09 -5.392514867708087e-05" pbc="T T T"
Pt       1.40360696       0.81037286      20.00000000        3       0.00000094       0.00276051      -0.00425154
Pt       4.21082088       0.81037286      20.00000000        3       0.00105179       0.00060504      -0.00947174
Pt       7.01803480       0.81037286      20.00000000        3      -0.00105269       0.00060431      -0.00947425
Pt       2.80721392       3.24149143      20.00000000        3      -0.00059004       0.00034104       0.01770359
Pt       5.61442784       3.24149143      20.00000000        3      -0.00000155      -0.00121267      -0.00947294
Pt       8.42164176       3.24149143      20.00000000        3       0.00059263       0.00034188       0.01770300
Pt       4.21082088       5.67261000      20.00000000        3      -0.00239078      -0.00138000      -0.00425220
Pt       7.01803480       5.67261000      20.00000000        3       0.00239138      -0.00137937      -0.00425398
Pt       9.82524872       5.67261000      20.00000000        3      -0.00000113      -0.00068057       0.01770353
Pt      -0.00000000       1.62074571      22.29208057        2       0.11651182       0.09124100       0.00165126
Pt       2.80721392       1.62074571      22.29208057        2      -0.11650804       0.09123966       0.00165292
Pt       5.61442784       1.62074571      22.29208057        2      -0.00000271      -0.00000122      -0.09937829
Pt       1.40360696       4.05186428      22.29208057        2       0.00000133       0.00000013       0.08201491
Pt       4.21082088       4.05186428      22.29208057        2      -0.13727003       0.05527858       0.00165294
Pt       7.01803480       4.05186428      22.29208057        2       0.13726857       0.05527897       0.00165310
Pt       2.80721392       6.48298285      22.29208057        2      -0.02076416      -0.14652075       0.00165070
Pt       5.61442784       6.48298285      22.29208057        2       0.00000049       0.00000017      -0.07234745
Pt       8.42164176       6.48298285      22.29208057        2       0.02076363      -0.14651681       0.00165232
Pt       0.00067095      -0.00038751      24.56074785        1       0.00382851      -0.00220911       0.01202236
Pt       2.80654326      -0.00038736      24.56074814        1      -0.00382869      -0.00221000       0.01201154
Pt       5.61442774       0.00600175      24.56729908        1       0.00000002       0.04489733       0.00588228
Pt       1.40360711       2.40924851      24.61408999        1       0.00000044       0.00594911       0.00153046
Pt       4.21601865       2.42811738      24.56729900        1       0.03888240      -0.02244710       0.00588450
Pt       7.01283686       2.42811735      24.56729891        1      -0.03888322      -0.02244806       0.00588490
Pt       2.82615392       4.87317210      24.61408957        1      -0.00515155      -0.00297667       0.00153192
Pt       5.61442781       4.86301157      24.56074820        1      -0.00000177       0.00442040       0.01201254
Pt       8.40270172       4.87317226      24.61409019        1       0.00515281      -0.00297605       0.00153324
N        9.82524866       4.05186415      26.95105987        0      -0.00000077       0.00000636       0.00445300
H        9.82524891       3.10511279      26.52528730        0      -0.00000008      -0.02497207       0.00170443
H        9.00533802       4.52524012      26.52528747        0      -0.02161913       0.01248285       0.00170666
H       10.64515975       4.52523998      26.52528700        0       0.02161965       0.01248331       0.00170645
