31
Lattice="8.421641763931781 0.0 0.0 4.2108208819658905 7.293355709136913 0.0 0.0 0.0 44.584161137365626" Properties=species:S:1:pos:R:3:tags:I:1:forces:R:3 energy=-172.575439453125 free_energy=-172.575439453125 stress="0.010545417666435242 4.346384957898408e-05 7.301926871150499e-06 4.346384957898408e-05 0.010495021939277649 -1.0553781066846568e-05 7.301926871150499e-06 -1.0553781066846568e-05 -0.00012013856030534953" pbc="T T T"
Pt       1.40360696       0.81037286      20.00000000        3       0.00022508       0.00059511      -0.00393918
Pt       4.21082088       0.81037286      20.00000000        3       0.00066175       0.00041089      -0.00524056
Pt       7.01803480       0.81037286      20.00000000        3      -0.00103267       0.00054276      -0.00410977
Pt       2.80721392       3.24149143      20.00000000        3       0.00007603      -0.00056753       0.00005868
Pt       5.61442784       3.24149143      20.00000000        3      -0.00017472      -0.00118142      -0.00392631
Pt       8.42164176       3.24149143      20.00000000        3       0.00034335       0.00083940       0.00689393
Pt       4.21082088       5.67261000      20.00000000        3      -0.00029964      -0.00019764      -0.00612992
Pt       7.01803480       5.67261000      20.00000000        3       0.00117950      -0.00032153      -0.00139147
Pt       9.82524872       5.67261000      20.00000000        3      -0.00103519      -0.00011414       0.00243396
Pt      -0.00000000       1.62074571      22.29208057        2       0.02262480       0.03895323       0.01556633
Pt       2.80721392       1.62074571      22.29208057        2      -0.03272329       0.02662009      -0.00911031
Pt       5.61442784       1.62074571      22.29208057        2       0.00998165       0.00578798      -0.04594881
Pt       1.40360696       4.05186428      22.29208057        2      -0.03569810      -0.00426103       0.04390938
Pt       4.21082088       4.05186428      22.29208057        2      -0.01807807      -0.00805185      -0.02391721
Pt       7.01803480       4.05186428      22.29208057        2       0.05501878       0.00939320       0.02674926
Pt       2.80721392       6.48298285      22.29208057        2      -0.01988786      -0.01517081      -0.02192496
Pt       5.61442784       6.48298285      22.29208057        2       0.01259181       0.00259074      -0.02985706
Pt       8.42164176       6.48298285      22.29208057        2       0.00659670      -0.05766380       0.00318353
Pt      -0.00088180      -0.00606532      24.57851476        1      -0.00249541       0.00638099      -0.00741160
Pt       2.80692170       0.00059431      24.57622544        1       0.00028243      -0.00024278      -0.00779393
Pt       5.61552039       0.00568910      24.57886115        1       0.00254067      -0.00973668      -0.00327474
Pt       1.41119979       2.41883829      24.58785880        1      -0.00745205       0.01322603       0.00253671
Pt       4.21680703       2.42867214      24.57873357        1      -0.00333380       0.00548294      -0.00410154
Pt       7.01041935       2.42585561      24.58337350        1       0.02986755       0.01623373       0.00005125
Pt       2.81493559       4.86598224      24.58331969        1      -0.02801277      -0.01776942      -0.00194615
Pt       5.60921280       4.86389886      24.57862997        1       0.00835427      -0.00811021      -0.00653553
Pt       8.41442817       4.87573105      24.59781623        1       0.00563043      -0.01048538       0.02197401
N        9.12314277       3.64700632      27.58833487        0      -0.01069696       0.01770398      -0.00560206
H       10.07090245       3.64812641      27.20180027        0      -0.02264252      -0.00905974       0.03899132
H        8.64822555       2.82696866      27.20167700        0       0.01779138       0.01482466       0.03819346
H        8.65054524       4.46571582      27.19136938        0       0.00979667      -0.01665191      -0.00838075
