31
Lattice="8.421641763931781 0.0 0.0 4.2108208819658905 7.293355709136913 0.0 0.0 0.0 44.584161137365626" Properties=species:S:1:pos:R:3:tags:I:1:forces:R:3 energy=-172.65090942382812 free_energy=-172.65090942382812 stress="0.010420507751405239 4.191026192756908e-09 -3.4879754640115834e-09 4.191026192756908e-09 0.010420525446534157 3.5233449491300917e-09 -3.4879754640115834e-09 3.5233449491300917e-09 -9.65429444477195e-06" pbc="T T T"
Pt       1.40360696       0.81037286      20.00000000        3       0.00161998       0.00377515       0.01037881
Pt       4.21082088       0.81037286      20.00000000        3       0.00000211      -0.00000154      -0.00922588
Pt       7.01803480       0.81037286      20.00000000        3      -0.00162148       0.00377504       0.01037794
Pt       2.80721392       3.24149143      20.00000000        3      -0.00246082      -0.00329142       0.01037794
Pt       5.61442784       3.24149143      20.00000000        3       0.00245999      -0.00329065       0.01037845
Pt       8.42164176       3.24149143      20.00000000        3       0.00000112       0.00000047       0.05188316
Pt       4.21082088       5.67261000      20.00000000        3       0.00000234       0.00000150      -0.00294676
Pt       7.01803480       5.67261000      20.00000000        3       0.00407909      -0.00048453       0.01037756
Pt       9.82524872       5.67261000      20.00000000        3      -0.00408232      -0.00048405       0.01037803
Pt      -0.00000000       1.62074571      22.29208057        2       0.00000345       0.10560542      -0.00439884
Pt       2.80721392       1.62074571      22.29208057        2      -0.14262095       0.08234160      -0.01449959
Pt       5.61442784       1.62074571      22.29208057        2       0.14261709       0.08233991      -0.01450404
Pt       1.40360696       4.05186428      22.29208057        2      -0.09145765      -0.05280376      -0.00439727
Pt       4.21082088       4.05186428      22.29208057        2       0.00000090      -0.00523551      -0.04636788
Pt       7.01803480       4.05186428      22.29208057        2       0.09145641      -0.05280215      -0.00439904
Pt       2.80721392       6.48298285      22.29208057        2      -0.00453309       0.00261778      -0.04636887
Pt       5.61442784       6.48298285      22.29208057        2       0.00453227       0.00261949      -0.04636936
Pt       8.42164176       6.48298285      22.29208057        2       0.00000089      -0.16468245      -0.01450067
Pt       0.00000013       0.00060304      24.57922951        1       0.00000117      -0.02770340       0.00173254
Pt       2.81241597       0.00300313      24.55814286        1      -0.02220656      -0.01281930       0.03848273
Pt       5.60922584       0.00300332      24.55814277        1       0.02220419      -0.01282209       0.03848204
Pt       1.43391729       2.41361878      24.62834713        1      -0.03289292       0.01899044      -0.01524952
Pt       4.21082107       2.42511159      24.55814276        1      -0.00000340       0.02564135       0.03848170
Pt       6.98772423       2.41361874      24.62834608        1       0.03289759       0.01899286      -0.01523945
Pt       2.80669139       4.86193557      24.57922934        1       0.02399262       0.01384991       0.00173400
Pt       5.61495031       4.86193539      24.57922963        1      -0.02399262       0.01385200       0.00173305
Pt       8.42164181       4.89723646      24.62834695        1       0.00000076      -0.03798249      -0.01524960
N        8.42164163       3.24149182      26.85409207        0       0.00001863      -0.00001590       0.03302100
H        8.42164176       2.32115504      26.34143881        0      -0.00000186       0.01594540      -0.00469664
H        7.62460723       3.70165975      26.34143885        0       0.01378997      -0.00796062      -0.00470850
H        9.21867649       3.70165944      26.34143881        0      -0.01380701      -0.00796860      -0.00469702
