31
Lattice="8.421641763931781 0.0 0.0 4.2108208819658905 7.293355709136913 0.0 0.0 0.0 44.584161137365626" Properties=species:S:1:pos:R:3:tags:I:1:forces:R:3 energy=-172.76148986816406 free_energy=-172.76148986816406 stress="0.01028976310044527 -1.7949645553017035e-05 -0.00014317204477265477 -1.7949645553017035e-05 0.010455922223627567 2.098585810017539e-06 -0.00014317204477265477 2.098585810017539e-06 3.07694062939845e-05" pbc="T T T"
Pt       1.40360696       0.81037286      20.00000000        3       0.00090389      -0.00003129      -0.00353706
Pt       4.21082088       0.81037286      20.00000000        3      -0.00146213       0.00183281       0.01590627
Pt       7.01803480       0.81037286      20.00000000        3       0.00228252       0.00240855       0.01940969
Pt       2.80721392       3.24149143      20.00000000        3       0.00348584      -0.00157842       0.00172228
Pt       5.61442784       3.24149143      20.00000000        3       0.00195104      -0.00240642       0.03659770
Pt       8.42164176       3.24149143      20.00000000        3      -0.00199337      -0.00220271       0.00399721
Pt       4.21082088       5.67261000      20.00000000        3       0.00351045       0.00067008       0.00237912
Pt       7.01803480       5.67261000      20.00000000        3      -0.00219049       0.00062050       0.00321800
Pt       9.82524872       5.67261000      20.00000000        3       0.00083753       0.00284509      -0.00485638
Pt      -0.00000000       1.62074571      22.29208057        2      -0.18249960       0.07137576       0.06492791
Pt       2.80721392       1.62074571      22.29208057        2       0.11816445       0.05243308       0.01836227
Pt       5.61442784       1.62074571      22.29208057        2       0.02830848       0.06735437       0.02686761
Pt       1.40360696       4.05186428      22.29208057        2      -0.01797989      -0.01325215      -0.05894173
Pt       4.21082088       4.05186428      22.29208057        2       0.03652540      -0.09004936      -0.01967037
Pt       7.01803480       4.05186428      22.29208057        2      -0.05331973      -0.12697646       0.02739568
Pt       2.80721392       6.48298285      22.29208057        2      -0.02897482       0.06047998      -0.03392701
Pt       5.61442784       6.48298285      22.29208057        2      -0.01690150      -0.06629908      -0.05670105
Pt       8.42164176       6.48298285      22.29208057        2      -0.00069544       0.04355323      -0.04282059
Pt      -0.00857131      -0.01886909      24.57390683        1       0.00815388       0.01363335      -0.02147685
Pt       2.77759444      -0.02013461      24.57289374        1      -0.02225938      -0.00303642      -0.01404560
Pt       5.58569793       0.00453589      24.60072422        1       0.01823750      -0.01234919       0.01102005
Pt       1.39439885       2.42731634      24.55895432        1      -0.00364635      -0.01374362       0.00540490
Pt       4.15804277       2.42277578      24.61622889        1       0.00414554      -0.01563916       0.00467555
Pt       7.04967788       2.42240898      24.62803432        1       0.01854271      -0.01474328      -0.01594965
Pt       2.77740487       4.87199476      24.57063960        1      -0.00260020       0.00682420      -0.00685835
Pt       5.58597828       4.84636798      24.60179950        1       0.01504605       0.03898551       0.00962363
Pt       8.41112789       4.86850778      24.57091311        1      -0.00372852      -0.00178615      -0.01212788
N        5.60036066       2.44396779      26.87165384        0       0.03193288       0.00028300       0.02696732
H        5.24140354       3.26584889      26.32759875        0       0.02061146      -0.01516873       0.00022849
H        6.59712342       2.43913290      26.56866702        0       0.00442071      -0.00256883       0.01815166
H        5.23391312       1.62294728      26.33079448        0       0.02119091       0.01853192      -0.00594279
