31
Lattice="8.421641763931781 0.0 0.0 4.2108208819658905 7.293355709136913 0.0 0.0 0.0 44.584161137365626" Properties=species:S:1:pos:R:3:tags:I:1:forces:R:3 energy=-172.6457061767578 free_energy=-172.6457061767578 stress="0.010564259253442287 2.718872016416185e-09 3.6104081946319866e-09 2.718872016416185e-09 0.01056428998708725 -2.1963089125165425e-09 3.6104081946319866e-09 -2.1963089125165425e-09 0.00012946382048539817" pbc="T T T"
Pt       1.40360696       0.81037286      20.00000000        3       0.00000077       0.00392843       0.00387123
Pt       4.21082088       0.81037286      20.00000000        3       0.00160880       0.00092644       0.00035724
Pt       7.01803480       0.81037286      20.00000000        3      -0.00160973       0.00092513       0.00035605
Pt       2.80721392       3.24149143      20.00000000        3      -0.00078711       0.00045464       0.03163251
Pt       5.61442784       3.24149143      20.00000000        3      -0.00000199      -0.00185564       0.00035608
Pt       8.42164176       3.24149143      20.00000000        3       0.00078959       0.00045579       0.03163174
Pt       4.21082088       5.67261000      20.00000000        3      -0.00340228      -0.00196423       0.00387061
Pt       7.01803480       5.67261000      20.00000000        3       0.00340240      -0.00196327       0.00386924
Pt       9.82524872       5.67261000      20.00000000        3      -0.00000090      -0.00090712       0.03163308
Pt      -0.00000000       1.62074571      22.29208057        2       0.08638740       0.08268861       0.00363664
Pt       2.80721392       1.62074571      22.29208057        2      -0.08638655       0.08268847       0.00363408
Pt       5.61442784       1.62074571      22.29208057        2      -0.00000040       0.00000003      -0.05206026
Pt       1.40360696       4.05186428      22.29208057        2       0.00000089       0.00000016       0.03506718
Pt       4.21082088       4.05186428      22.29208057        2      -0.11480361       0.03346821       0.00363367
Pt       7.01803480       4.05186428      22.29208057        2       0.11480233       0.03346675       0.00363680
Pt       2.80721392       6.48298285      22.29208057        2      -0.02841702      -0.11615777       0.00363428
Pt       5.61442784       6.48298285      22.29208057        2      -0.00000182       0.00000134      -0.05438714
Pt       8.42164176       6.48298285      22.29208057        2       0.02841898      -0.11615617       0.00363402
Pt       0.00256104      -0.00147842      24.56614356        1      -0.00538080       0.00310528      -0.00712782
Pt       2.80465315      -0.00147883      24.56614341        1       0.00538260       0.00310906      -0.00712746
Pt       5.61442801       0.00400296      24.58141992        1      -0.00000219       0.01598313      -0.00493790
Pt       1.40360684       2.40793750      24.63180022        1       0.00000179       0.01429602      -0.00862575
Pt       4.21428803       2.42911665      24.58141950        1       0.01384134      -0.00799418      -0.00493811
Pt       7.01456794       2.42911662      24.58142014        1      -0.01384387      -0.00799184      -0.00494695
Pt       2.82728971       4.87382764      24.63179995        1      -0.01238583      -0.00714798      -0.00862493
Pt       5.61442779       4.86519391      24.56614372        1       0.00000094      -0.00621327      -0.00712681
Pt       8.40156575       4.87382749      24.63180002        1       0.01238655      -0.00714796      -0.00862354
N        9.82524905       4.05186474      26.88131825        0      -0.00001880       0.00000989       0.03617771
H        9.02973499       3.59257307      26.36859317        0      -0.00271939      -0.00155819      -0.01069748
H        9.82524858       4.97044593      26.36859390        0      -0.00000018       0.00311941      -0.01070011
H       10.62076222       3.59257318      26.36859326        0       0.00273799      -0.00156933      -0.01070812
