31
Lattice="8.421641763931781 0.0 0.0 4.2108208819658905 7.293355709136913 0.0 0.0 0.0 44.584161137365626" Properties=species:S:1:pos:R:3:tags:I:1:forces:R:3 energy=-172.80612182617188 free_energy=-172.80612182617188 stress="0.010317446663975716 -1.978179842154759e-09 -4.4840509083599045e-10 -1.978179842154759e-09 0.010317460633814335 5.751622289551506e-09 -4.4840509083599045e-10 5.751622289551506e-09 1.4703122360515408e-05" pbc="T T T"
Pt       1.40360696       0.81037286      20.00000000        3       0.00000078       0.00306332      -0.00310081
Pt       4.21082088       0.81037286      20.00000000        3       0.00118373       0.00068103      -0.00975478
Pt       7.01803480       0.81037286      20.00000000        3      -0.00118440       0.00067979      -0.00975558
Pt       2.80721392       3.24149143      20.00000000        3      -0.00054086       0.00031240       0.01786658
Pt       5.61442784       3.24149143      20.00000000        3      -0.00000228      -0.00136485      -0.00975576
Pt       8.42164176       3.24149143      20.00000000        3       0.00054346       0.00031345       0.01786616
Pt       4.21082088       5.67261000      20.00000000        3      -0.00265248      -0.00153121      -0.00310054
Pt       7.01803480       5.67261000      20.00000000        3       0.00265264      -0.00153053      -0.00310278
Pt       9.82524872       5.67261000      20.00000000        3      -0.00000083      -0.00062313       0.01786697
Pt      -0.00000000       1.62074571      22.29208057        2       0.12058102       0.08953676       0.01156769
Pt       2.80721392       1.62074571      22.29208057        2      -0.12057878       0.08953978       0.01156337
Pt       5.61442784       1.62074571      22.29208057        2      -0.00000141      -0.00000200      -0.12116578
Pt       1.40360696       4.05186428      22.29208057        2       0.00000059      -0.00000001       0.08417631
Pt       4.21082088       4.05186428      22.29208057        2      -0.13783376       0.05965475       0.01156363
Pt       7.01803480       4.05186428      22.29208057        2       0.13783199       0.05965391       0.01156568
Pt       2.80721392       6.48298285      22.29208057        2      -0.01725247      -0.14919277       0.01156585
Pt       5.61442784       6.48298285      22.29208057        2      -0.00000401       0.00000302      -0.05945272
Pt       8.42164176       6.48298285      22.29208057        2       0.01725725      -0.14919207       0.01156328
Pt       0.00072256      -0.00041733      24.56338248        1       0.00593073      -0.00342368      -0.00191095
Pt       2.80649215      -0.00041691      24.56338195        1      -0.00593202      -0.00342691      -0.00190040
Pt       5.61442817       0.01175058      24.56734074        1      -0.00000045      -0.01475621       0.01010649
Pt       1.40360727       2.41191778      24.61556677        1      -0.00000289      -0.00761307      -0.00048121
Pt       4.22099764       2.42524285      24.56734130        1      -0.01277937       0.00737798       0.01010631
Pt       7.00785786       2.42524290      24.56734076        1       0.01278211       0.00737882       0.01010664
Pt       2.82384212       4.87183737      24.61556687        1       0.00659192       0.00380680      -0.00047892
Pt       5.61442738       4.86307091      24.56338197        1       0.00000156       0.00684900      -0.00190008
Pt       8.40501311       4.87183745      24.61556636        1      -0.00659110       0.00380473      -0.00047826
N        9.82524893       4.05186461      26.96079636        0      -0.00000051      -0.00002841      -0.02617839
H        9.00659562       4.52451350      26.53156576        0      -0.02723782       0.01573239       0.00500529
H       10.64390191       4.52451381      26.53156603        0       0.02723783       0.01573288       0.00500649
H        9.82524841       3.10656572      26.53156530        0      -0.00000009      -0.03143606       0.00502048
