31
Lattice="8.421641763931781 0.0 0.0 4.2108208819658905 7.293355709136913 0.0 0.0 0.0 44.584161137365626" Properties=species:S:1:pos:R:3:tags:I:1:forces:R:3 energy=-172.80628967285156 free_energy=-172.80628967285156 stress="0.01033662911504507 -3.649061275368126e-09 2.9928099998244306e-09 -3.649061275368126e-09 0.010336637496948242 4.652447760378209e-09 2.9928099998244306e-09 4.652447760378209e-09 2.1104720872244798e-05" pbc="T T T"
Pt       1.40360696       0.81037286      20.00000000        3       0.00000120       0.00278260      -0.00336143
Pt       4.21082088       0.81037286      20.00000000        3       0.00129170       0.00074315      -0.00833413
Pt       7.01803480       0.81037286      20.00000000        3      -0.00129260       0.00074263      -0.00833595
Pt       2.80721392       3.24149143      20.00000000        3      -0.00012253       0.00007077       0.01724896
Pt       5.61442784       3.24149143      20.00000000        3      -0.00000244      -0.00148975      -0.00833550
Pt       8.42164176       3.24149143      20.00000000        3       0.00012526       0.00007239       0.01724848
Pt       4.21082088       5.67261000      20.00000000        3      -0.00240994      -0.00139099      -0.00336149
Pt       7.01803480       5.67261000      20.00000000        3       0.00240968      -0.00138952      -0.00336301
Pt       9.82524872       5.67261000      20.00000000        3      -0.00000141      -0.00014017       0.01724949
Pt      -0.00000000       1.62074571      22.29208057        2       0.11445834       0.08732475       0.01453500
Pt       2.80721392       1.62074571      22.29208057        2      -0.11445762       0.08732436       0.01453185
Pt       5.61442784       1.62074571      22.29208057        2      -0.00000017      -0.00000276      -0.11074324
Pt       1.40360696       4.05186428      22.29208057        2       0.00000070       0.00000076       0.08593683
Pt       4.21082088       4.05186428      22.29208057        2      -0.13285434       0.05546114       0.01453302
Pt       7.01803480       4.05186428      22.29208057        2       0.13285342       0.05545871       0.01453557
Pt       2.80721392       6.48298285      22.29208057        2      -0.01839820      -0.14278480       0.01453418
Pt       5.61442784       6.48298285      22.29208057        2      -0.00000201       0.00000171      -0.05644608
Pt       8.42164176       6.48298285      22.29208057        2       0.01840011      -0.14278308       0.01453356
Pt       0.00121502      -0.00070161      24.56507424        1       0.00108085      -0.00062450      -0.00976260
Pt       2.80599919      -0.00070150      24.56507449        1      -0.00107961      -0.00062389      -0.00976266
Pt       5.61442783       0.01191158      24.57002393        1      -0.00000046      -0.01414577      -0.00316988
Pt       1.40360708       2.40978234      24.61315514        1      -0.00000133       0.00144746       0.00335331
Pt       4.22113656       2.42516260      24.57002343        1      -0.01224988       0.00707408      -0.00316022
Pt       7.00771884       2.42516264      24.57002383        1       0.01225103       0.00707257      -0.00316896
Pt       2.82569126       4.87290492      24.61315553        1      -0.00125312      -0.00072345       0.00335120
Pt       5.61442787       4.86363969      24.56507459        1      -0.00000219       0.00124611      -0.00976259
Pt       8.40316407       4.87290508      24.61315559        1       0.00125603      -0.00072419       0.00335355
N        9.82524889       4.05186444      26.94874438        0      -0.00002506      -0.00001394       0.04618299
H        9.00274599       4.52673651      26.53110515        0      -0.01024972       0.00591827      -0.01334960
H       10.64775106       4.52673629      26.53110547        0       0.01027551       0.00593440      -0.01336036
H        9.82524886       3.10212011      26.53110493        0      -0.00000132      -0.01183903      -0.01335018
