31
Lattice="8.421641763931781 0.0 0.0 4.2108208819658905 7.293355709136913 0.0 0.0 0.0 44.584161137365626" Properties=species:S:1:pos:R:3:tags:I:1:forces:R:3 energy=-172.575439453125 free_energy=-172.575439453125 stress="0.01054543349891901 4.3454212573124096e-05 7.290777375601465e-06 4.3454212573124096e-05 0.010495015420019627 -1.0563771866145544e-05 7.290777375601465e-06 -1.0563771866145544e-05 -0.0001201376726385206" pbc="T T T"
Pt       1.40360696       0.81037286      20.00000000        3       0.00022482       0.00059520      -0.00393885
Pt       4.21082088       0.81037286      20.00000000        3       0.00066147       0.00041121      -0.00524050
Pt       7.01803480       0.81037286      20.00000000        3      -0.00103279       0.00054299      -0.00411013
Pt       2.80721392       3.24149143      20.00000000        3       0.00007589      -0.00056769       0.00005853
Pt       5.61442784       3.24149143      20.00000000        3      -0.00017504      -0.00118179      -0.00392684
Pt       8.42164176       3.24149143      20.00000000        3       0.00034341       0.00083927       0.00689411
Pt       4.21082088       5.67261000      20.00000000        3      -0.00029969      -0.00019744      -0.00612992
Pt       7.01803480       5.67261000      20.00000000        3       0.00117973      -0.00032118      -0.00139138
Pt       9.82524872       5.67261000      20.00000000        3      -0.00103503      -0.00011426       0.00243354
Pt      -0.00000000       1.62074571      22.29208057        2       0.02262447       0.03895378       0.01556648
Pt       2.80721392       1.62074571      22.29208057        2      -0.03272343       0.02662071      -0.00910952
Pt       5.61442784       1.62074571      22.29208057        2       0.00998122       0.00578870      -0.04594734
Pt       1.40360696       4.05186428      22.29208057        2      -0.03569772      -0.00426197       0.04390849
Pt       4.21082088       4.05186428      22.29208057        2      -0.01807740      -0.00805278      -0.02391626
Pt       7.01803480       4.05186428      22.29208057        2       0.05501854       0.00939376       0.02675051
Pt       2.80721392       6.48298285      22.29208057        2      -0.01988789      -0.01517088      -0.02192563
Pt       5.61442784       6.48298285      22.29208057        2       0.01259261       0.00259029      -0.02985682
Pt       8.42164176       6.48298285      22.29208057        2       0.00659599      -0.05766382       0.00318376
Pt      -0.00088182      -0.00606525      24.57851488        1      -0.00249502       0.00638020      -0.00741050
Pt       2.80692167       0.00059424      24.57622561        1       0.00028298      -0.00024182      -0.00779432
Pt       5.61552040       0.00568897      24.57886125        1       0.00254091      -0.00973382      -0.00327435
Pt       1.41119963       2.41883845      24.58785876        1      -0.00744918       0.01322532       0.00253687
Pt       4.21680698       2.42867220      24.57873370        1      -0.00333445       0.00548160      -0.00410315
Pt       7.01041942       2.42585567      24.58337356        1       0.02986648       0.01623542       0.00005054
Pt       2.81493549       4.86598236      24.58331977        1      -0.02801027      -0.01777172      -0.00194621
Pt       5.60921285       4.86389889      24.57863008        1       0.00835536      -0.00811052      -0.00653583
Pt       8.41442829       4.87573086      24.59781625        1       0.00562493      -0.01048569       0.02197424
N        9.12314267       3.64700549      27.58833483        0      -0.01063637       0.01777166      -0.00560251
H        8.65054491       4.46571627      27.19136936        0       0.00979882      -0.01667061      -0.00837339
H       10.07090244       3.64812642      27.20179999        0      -0.02267621      -0.00906411       0.03900675
H        8.64822574       2.82696916      27.20167706        0       0.01776282       0.01478003       0.03816982
