31
Lattice="8.421641763931781 0.0 0.0 4.2108208819658905 7.293355709136913 0.0 0.0 0.0 44.584161137365626" Properties=species:S:1:pos:R:3:tags:I:1:forces:R:3 energy=-172.8042755126953 free_energy=-172.8042755126953 stress="0.010287951678037643 5.572054373459423e-09 9.187903771135097e-09 5.572054373459423e-09 0.010287942364811897 5.789032364589275e-09 9.187903771135097e-09 5.789032364589275e-09 2.5799594368436374e-05" pbc="T T T"
Pt       1.40360696       0.81037286      20.00000000        3       0.00198117       0.00238960       0.00095412
Pt       4.21082088       0.81037286      20.00000000        3       0.00000187      -0.00000139      -0.01218998
Pt       7.01803480       0.81037286      20.00000000        3      -0.00218862       0.00302484       0.00097689
Pt       2.80721392       3.24149143      20.00000000        3      -0.00152701      -0.00340822       0.00097528
Pt       5.61442784       3.24149143      20.00000000        3       0.00107977      -0.00291197       0.00095308
Pt       8.42164176       3.24149143      20.00000000        3       0.00000134       0.00000075       0.03240600
Pt       4.21082088       5.67261000      20.00000000        3       0.00000257       0.00000156      -0.01432908
Pt       7.01803480       5.67261000      20.00000000        3       0.00371342       0.00038286       0.00097522
Pt       9.82524872       5.67261000      20.00000000        3      -0.00306402       0.00052212       0.00095236
Pt      -0.00000000       1.62074571      22.29208057        2      -0.00260889       0.12158872       0.04922194
Pt       2.80721392       1.62074571      22.29208057        2      -0.14878961       0.08583839       0.01205780
Pt       5.61442784       1.62074571      22.29208057        2       0.14872862       0.08593283       0.01205616
Pt       1.40360696       4.05186428      22.29208057        2      -0.10399790      -0.06306031       0.04922011
Pt       4.21082088       4.05186428      22.29208057        2       0.00523951      -0.02982014      -0.07348197
Pt       7.01803480       4.05186428      22.29208057        2       0.10660602      -0.05853320       0.04922113
Pt       2.80721392       6.48298285      22.29208057        2      -0.02843966       0.01037961      -0.07347944
Pt       5.61442784       6.48298285      22.29208057        2       0.02320168       0.01944605      -0.07348257
Pt       8.42164176       6.48298285      22.29208057        2       0.00006003      -0.17177235       0.01205605
Pt      -0.00860682      -0.01200342      24.56953986        1       0.02004617       0.02605584      -0.00908171
Pt       2.81098465       0.00392331      24.56071376        1      -0.01566044      -0.02144257       0.02084118
Pt       5.60914401       0.00130317      24.56071383        1       0.02640304      -0.00284163       0.02082911
Pt       1.42528085       2.41046061      24.61256750        1      -0.01475022       0.02396399       0.01037580
Pt       4.21233346       2.42589101      24.56071380        1      -0.01074432       0.02428658       0.02082890
Pt       6.98930636       2.42267664      24.61256653        1       0.02813653       0.00079615       0.01039042
Pt       2.82191281       4.86078420      24.56953596        1      -0.03259010       0.00433706      -0.00906073
Pt       5.60833710       4.87569319      24.56953845        1       0.01253910      -0.03039535      -0.00907132
Pt       8.42869487       4.89133665      24.61256820        1      -0.01337939      -0.02475935       0.01037679
N        8.42164186       3.24149175      26.94051547        0      -0.00005167      -0.00003483      -0.04887074
H        8.50941578       4.18769219      26.52021818        0      -0.01306316      -0.02004935       0.00245053
H        9.19718924       2.69237725      26.52021813        0      -0.01084387       0.02134142       0.00245604
H        7.55832027       2.84440480      26.52021800        0       0.02395798      -0.00125778       0.00247272
