31
Lattice="8.421641763931781 0.0 0.0 4.2108208819658905 7.293355709136913 0.0 0.0 0.0 44.584161137365626" Properties=species:S:1:pos:R:3:tags:I:1:forces:R:3 energy=-172.80453491210938 free_energy=-172.80453491210938 stress="0.010308976285159588 6.7365264477814435e-09 -4.217131088779524e-09 6.7365264477814435e-09 0.010308973491191864 -1.3947480503873066e-08 -4.217131088779524e-09 -1.3947480503873066e-08 -2.47033985942835e-05" pbc="T T T"
Pt       1.40360696       0.81037286      20.00000000        3      -0.00024428       0.00310492      -0.00555441
Pt       4.21082088       0.81037286      20.00000000        3       0.00144776       0.00135490      -0.00842333
Pt       7.01803480       0.81037286      20.00000000        3      -0.00190047       0.00057151      -0.00842553
Pt       2.80721392       3.24149143      20.00000000        3       0.00004899       0.00011437       0.01854748
Pt       5.61442784       3.24149143      20.00000000        3       0.00044959      -0.00193058      -0.00842586
Pt       8.42164176       3.24149143      20.00000000        3       0.00007731      -0.00009872       0.01854676
Pt       4.21082088       5.67261000      20.00000000        3      -0.00256645      -0.00176454      -0.00555506
Pt       7.01803480       5.67261000      20.00000000        3       0.00281178      -0.00133831      -0.00555626
Pt       9.82524872       5.67261000      20.00000000        3      -0.00012480      -0.00001336       0.01854780
Pt      -0.00000000       1.62074571      22.29208057        2       0.11438964       0.09611861       0.00601178
Pt       2.80721392       1.62074571      22.29208057        2      -0.10751203       0.10099640       0.00854975
Pt       5.61442784       1.62074571      22.29208057        2      -0.00000238      -0.00000204      -0.10864317
Pt       1.40360696       4.05186428      22.29208057        2      -0.00000012       0.00000113       0.08440556
Pt       4.21082088       4.05186428      22.29208057        2      -0.14043579       0.05100230       0.00601148
Pt       7.01803480       4.05186428      22.29208057        2       0.14122200       0.04261100       0.00855292
Pt       2.80721392       6.48298285      22.29208057        2      -0.03370962      -0.14360660       0.00855024
Pt       5.61442784       6.48298285      22.29208057        2      -0.00000177       0.00000112      -0.08293707
Pt       8.42164176       6.48298285      22.29208057        2       0.02605095      -0.14712247       0.00601059
Pt       0.00042602      -0.00316112      24.55878838        1       0.00013538       0.01291586       0.02386567
Pt       2.80426423       0.00121140      24.55878906        1       0.01111316      -0.00657325       0.02386659
Pt       5.60486231       0.01234523      24.57146018        1       0.02427882      -0.01656355      -0.01095173
Pt       1.40990781       2.40983383      24.61358924        1      -0.01066662       0.00377218       0.00525640
Pt       4.22629489       2.43322879      24.57146126        1      -0.02648199      -0.01273892      -0.01095161
Pt       7.01212509       2.41666177      24.57146165        1       0.00220948       0.02930373      -0.01095055
Pt       2.82249722       4.87833618      24.61358904        1       0.00206345      -0.01112356       0.00525785
Pt       5.61695247       4.86418592      24.55878909        1      -0.01125357      -0.00633982       0.02386607
Pt       8.40005737       4.86742324      24.61358993        1       0.00860119       0.00734836       0.00524645
N        9.82524848       4.05186385      26.95090717        0       0.00002082       0.00008559      -0.01172930
H       10.60504455       4.59232338      26.52764782        0      -0.00609806      -0.01648400       0.00235397
H        9.90340211       3.10631347      26.52764872        0      -0.01121690       0.01343244       0.00231186
H        8.96730069       4.45695751      26.52764774        0       0.01729453       0.00296544       0.00234506
