31
Lattice="8.421641763931781 0.0 0.0 4.2108208819658905 7.293355709136913 0.0 0.0 0.0 44.584161137365626" Properties=species:S:1:pos:R:3:tags:I:1:forces:R:3 energy=-172.76148986816406 free_energy=-172.76148986816406 stress="0.010429887101054192 6.295451748883352e-05 -7.341390301007777e-05 6.295451748883352e-05 0.01031575258821249 0.00012295767373871058 -7.341390301007777e-05 0.00012295767373871058 3.0758870707359165e-05" pbc="T T T"
Pt       1.40360696       0.81037286      20.00000000        3       0.00091107       0.00282677       0.00399852
Pt       4.21082088       0.81037286      20.00000000        3       0.00047876      -0.00076885      -0.00353694
Pt       7.01803480       0.81037286      20.00000000        3      -0.00163190       0.00158355       0.00321844
Pt       2.80721392       3.24149143      20.00000000        3      -0.00094400      -0.00318445       0.01940846
Pt       5.61442784       3.24149143      20.00000000        3       0.00117347      -0.00337262       0.00237888
Pt       8.42164176       3.24149143      20.00000000        3       0.00306138      -0.00048807       0.03659701
Pt       4.21082088       5.67261000      20.00000000        3      -0.00204010      -0.00214591      -0.00485626
Pt       7.01803480       5.67261000      20.00000000        3       0.00310690      -0.00222676       0.00172198
Pt       9.82524872       5.67261000      20.00000000        3      -0.00232192       0.00035368       0.01590499
Pt      -0.00000000       1.62074571      22.29208057        2       0.08330750       0.10966168       0.02739194
Pt       2.80721392       1.62074571      22.29208057        2      -0.15306363       0.12235854       0.06492639
Pt       5.61442784       1.62074571      22.29208057        2       0.04896465       0.04778387      -0.05670196
Pt       1.40360696       4.05186428      22.29208057        2      -0.04417954      -0.05819490       0.02686662
Pt       4.21082088       4.05186428      22.29208057        2      -0.06685996      -0.00514768      -0.03392843
Pt       7.01803480       4.05186428      22.29208057        2       0.09624504       0.01339559      -0.01966845
Pt       2.80721392       6.48298285      22.29208057        2      -0.03806446      -0.02116912      -0.04282547
Pt       5.61442784       6.48298285      22.29208057        2       0.00248670       0.02219818      -0.05894419
Pt       8.42164176       6.48298285      22.29208057        2       0.01367203      -0.12854989       0.01836532
Pt      -0.01068716       0.00596963      24.57091181        1      -0.00031406       0.00412060      -0.01211970
Pt       2.80590237       0.00987517      24.55895357        1       0.01007856       0.01003135       0.00540511
Pt       5.61705495       0.03571794      24.57289248        1      -0.00850293       0.02079515      -0.01404734
Pt       1.42697029       2.40807026      24.62803550        1       0.02204173      -0.00868858      -0.01593155
Pt       4.22287597       2.44797566      24.57390671        1      -0.00773310      -0.01387746      -0.02147646
Pt       7.01755261       2.46369027      24.60179885        1      -0.02623410      -0.03252034       0.00962493
Pt       2.78892111       4.88485021      24.60072168        1       0.01981432      -0.00962368       0.01102997
Pt       5.59107299       4.88317365      24.57063949        1      -0.00721142      -0.00115909      -0.00685954
Pt       8.40247830       4.91211484      24.61623025        1       0.01561212       0.00423605       0.00466187
N        9.10528166       3.65243998      26.87165627        0       0.01576738      -0.02787957       0.02699921
H        8.21403790       3.55235982      26.32759683        0       0.02338292      -0.01026314       0.00020677
H        9.63308469       4.38029594      26.33079220        0      -0.00542568      -0.02756234      -0.00596294
H        9.60785076       2.79163372      26.56867307        0       0.00442219      -0.00252253       0.01815256
