31
Lattice="8.421641763931781 0.0 0.0 4.2108208819658905 7.293355709136913 0.0 0.0 0.0 44.584161137365626" Properties=species:S:1:pos:R:3:tags:I:1:forces:R:3 energy=-173.7158660888672 free_energy=-173.7158660888672 stress="0.010695413686335087 9.055268535007599e-09 -4.728628155703518e-09 9.055268535007599e-09 0.010695408098399639 4.108301698835248e-09 -4.728628155703518e-09 4.108301698835248e-09 5.40072433068417e-05" pbc="T T T"
Pt       1.40360696       0.81037286      20.00000000        3      -0.00274074      -0.00111017      -0.00573406
Pt       4.21082088       0.81037286      20.00000000        3      -0.00044683       0.00437315       0.01247057
Pt       7.01803480       0.81037286      20.00000000        3       0.00232764      -0.00182258      -0.00573346
Pt       2.80721392       3.24149143      20.00000000        3       0.00401360      -0.00179956       0.01246941
Pt       5.61442784       3.24149143      20.00000000        3      -0.00356616      -0.00257540       0.01247033
Pt       8.42164176       3.24149143      20.00000000        3       0.00056865      -0.00634770      -0.00905100
Pt       4.21082088       5.67261000      20.00000000        3       0.00041394       0.00292920      -0.00573355
Pt       7.01803480       5.67261000      20.00000000        3      -0.00578336       0.00268507      -0.00905043
Pt       9.82524872       5.67261000      20.00000000        3       0.00521260       0.00366800      -0.00904971
Pt      -0.00000000       1.62074571      22.29208057        2       0.00926895       0.00777785       0.00323918
Pt       2.80721392       1.62074571      22.29208057        2       0.06639413       0.03544838      -0.02263008
Pt       5.61442784       1.62074571      22.29208057        2      -0.06389784       0.03977280      -0.02262901
Pt       1.40360696       4.05186428      22.29208057        2       0.05539745      -0.03332966       0.03390594
Pt       4.21082088       4.05186428      22.29208057        2      -0.00249597      -0.07522234      -0.02262842
Pt       7.01803480       4.05186428      22.29208057        2      -0.05656547      -0.03131045       0.03390618
Pt       2.80721392       6.48298285      22.29208057        2      -0.01137043       0.00413703       0.00323842
Pt       5.61442784       6.48298285      22.29208057        2       0.00210000      -0.01191581       0.00323649
Pt       8.42164176       6.48298285      22.29208057        2       0.00116937       0.06464210       0.03390377
Pt       0.00000016      -0.00000011      24.58864027        1       0.00000081      -0.00000150       0.00205183
Pt       2.79586849      -0.01940993      24.60028333        1       0.01051958       0.02521069      -0.01355432
Pt       5.61371698       0.00285154      24.60569990        1       0.00597930      -0.00343422       0.00132929
Pt       1.40643222       2.43030826      24.60570029        1      -0.00596520      -0.00346493       0.00132988
Pt       4.21082081       2.43111835      24.65962073        1       0.00000251      -0.00000054       0.02954066
Pt       7.04051671       2.43099780      24.60028411        1      -0.02709348      -0.00349621      -0.01356247
Pt       2.79607728       4.88176740      24.60028365        1       0.01657541      -0.02171331      -0.01356281
Pt       5.61231366       4.86019535      24.60570043        1      -0.00001886       0.00689917       0.00132930
Pt       8.42164169       4.86223694      24.58918327        1       0.00000074       0.00000023      -0.00003913
N        4.21082138       2.43111804      26.72769285        0      -0.00004022       0.00005466       0.01213068
H        3.24042334       2.43232987      27.05203571        0      -0.02142805       0.00122201      -0.01453909
H        4.69706839       3.27090167      27.05203565        0       0.01178078       0.01795180      -0.01453681
H        4.69497000       1.59012494      27.05203548        0       0.00968706      -0.01922747      -0.01451771
