31
Lattice="8.421641763931781 0.0 0.0 4.2108208819658905 7.293355709136913 0.0 0.0 0.0 44.584161137365626" Properties=species:S:1:pos:R:3:tags:I:1:forces:R:3 energy=-172.5950164794922 free_energy=-172.5950164794922 stress="0.010540775954723358 -3.7433944832798716e-09 5.128575342183694e-09 -3.7433944832798716e-09 0.010540803894400597 4.006274423318246e-09 5.128575342183694e-09 4.006274423318246e-09 -0.00010158387885894626" pbc="T T T"
Pt       1.40360696       0.81037286      20.00000000        3       0.00033679       0.00056129      -0.00361994
Pt       4.21082088       0.81037286      20.00000000        3       0.00000183      -0.00000158      -0.00804210
Pt       7.01803480       0.81037286      20.00000000        3      -0.00033828       0.00056083      -0.00362024
Pt       2.80721392       3.24149143      20.00000000        3      -0.00031877      -0.00057293      -0.00362059
Pt       5.61442784       3.24149143      20.00000000        3       0.00031786      -0.00057232      -0.00362012
Pt       8.42164176       3.24149143      20.00000000        3       0.00000150       0.00000052       0.00279889
Pt       4.21082088       5.67261000      20.00000000        3       0.00000214       0.00000165      -0.00901806
Pt       7.01803480       5.67261000      20.00000000        3       0.00065393       0.00001163      -0.00362048
Pt       9.82524872       5.67261000      20.00000000        3      -0.00065733       0.00001191      -0.00362036
Pt      -0.00000000       1.62074571      22.29208057        2       0.00000188       0.02752603       0.02986814
Pt       2.80721392       1.62074571      22.29208057        2      -0.02764770       0.01596158      -0.01667721
Pt       5.61442784       1.62074571      22.29208057        2       0.02764655       0.01596146      -0.01667998
Pt       1.40360696       4.05186428      22.29208057        2      -0.02383921      -0.01376434       0.02986743
Pt       4.21082088       4.05186428      22.29208057        2       0.00000339      -0.01516560      -0.02845095
Pt       7.01803480       4.05186428      22.29208057        2       0.02383571      -0.01376275       0.02987064
Pt       2.80721392       6.48298285      22.29208057        2      -0.01313302       0.00758359      -0.02845189
Pt       5.61442784       6.48298285      22.29208057        2       0.01313176       0.00758146      -0.02845071
Pt       8.42164176       6.48298285      22.29208057        2       0.00000103      -0.03192365      -0.01667931
Pt       0.00000027      -0.00781510      24.57844238        1      -0.00000000       0.04039209       0.01040095
Pt       2.81157235       0.00251524      24.57790497        1      -0.02783060      -0.01606449       0.01101264
Pt       5.61006925       0.00251629      24.57790543        1       0.02783161      -0.01606979       0.01101130
Pt       1.40627387       2.42957838      24.59062832        1       0.02004108      -0.01157113       0.00456923
Pt       4.21082133       2.42608564      24.57790497        1      -0.00000413       0.03213579       0.01101339
Pt       7.01536730       2.42957820      24.59062815        1      -0.02003587      -0.01156955       0.00457080
Pt       2.81398167       4.86614436      24.57844216        1      -0.03498116      -0.02019561       0.01040122
Pt       5.60766009       4.86614385      24.57844288        1       0.03498166      -0.02019454       0.01039153
Pt       8.42164195       4.86531633      24.59062824        1      -0.00000313       0.02313889       0.00457047
N        8.42164260       3.24149135      27.94718892        0      -0.00004272      -0.00004411      -0.00696957
H        8.42164123       2.30042145      27.54979863        0       0.00000811       0.00779867       0.00361060
H        7.60665236       3.71202551      27.54979903        0       0.00672457      -0.00388273       0.00360274
H        9.23663086       3.71202637      27.54979928        0      -0.00668952      -0.00387189       0.00358198
