31
Lattice="8.421641763931781 0.0 0.0 4.2108208819658905 7.293355709136913 0.0 0.0 0.0 44.584161137365626" Properties=species:S:1:pos:R:3:tags:I:1:forces:R:3 energy=-172.5792236328125 free_energy=-172.5792236328125 stress="0.010523717850446701 4.3245152482995763e-05 -5.428904842119664e-05 4.3245152482995763e-05 0.010473816655576229 -3.133604332106188e-05 -5.428904842119664e-05 -3.133604332106188e-05 -0.00013971887528896332" pbc="T T T"
Pt       1.40360696       0.81037286      20.00000000        3      -0.00004049       0.00199821      -0.00325686
Pt       4.21082088       0.81037286      20.00000000        3       0.00088153       0.00050600      -0.00977650
Pt       7.01803480       0.81037286      20.00000000        3      -0.00029790       0.00084213      -0.00784999
Pt       2.80721392       3.24149143      20.00000000        3      -0.00144605      -0.00047990       0.00436321
Pt       5.61442784       3.24149143      20.00000000        3       0.00058164      -0.00067784      -0.00784996
Pt       8.42164176       3.24149143      20.00000000        3       0.00241829       0.00139612       0.01129639
Pt       4.21082088       5.67261000      20.00000000        3      -0.00098093      -0.00056680      -0.00677022
Pt       7.01803480       5.67261000      20.00000000        3       0.00170999      -0.00103378      -0.00325814
Pt       9.82524872       5.67261000      20.00000000        3      -0.00114016      -0.00101137       0.00436279
Pt      -0.00000000       1.62074571      22.29208057        2       0.04504216       0.05127221       0.01218040
Pt       2.80721392       1.62074571      22.29208057        2      -0.05828555       0.04750716      -0.00506872
Pt       5.61442784       1.62074571      22.29208057        2       0.01190988       0.00687532      -0.04704401
Pt       1.40360696       4.05186428      22.29208057        2      -0.03911837      -0.02258693       0.05191598
Pt       4.21082088       4.05186428      22.29208057        2      -0.04463023      -0.00174789      -0.02779061
Pt       7.01803480       4.05186428      22.29208057        2       0.06692297       0.01336661       0.01217703
Pt       2.80721392       6.48298285      22.29208057        2      -0.02382765      -0.03777661      -0.02778777
Pt       5.61442784       6.48298285      22.29208057        2       0.00456646       0.00264234      -0.04578950
Pt       8.42164176       6.48298285      22.29208057        2       0.01200327      -0.07422615      -0.00506999
Pt      -0.00604969      -0.00963555      24.57148274        1       0.00189570      -0.01141720       0.02709687
Pt       2.80766175       0.00025839      24.56720448        1      -0.00664741      -0.00383797       0.03754112
Pt       5.61609629       0.00293666      24.57342224        1      -0.00923506       0.01789971       0.01955837
Pt       1.40518917       2.41301667      24.60530606        1       0.00087979      -0.00114889      -0.03417234
Pt       4.21419802       2.43109482      24.57342230        1       0.01089094      -0.01694747       0.01955938
Pt       7.01742272       2.43076473      24.57805272        1      -0.03718082      -0.02146273       0.01029000
Pt       2.79513906       4.85526536      24.58929101        1       0.03499074       0.02020669      -0.01082546
Pt       5.60305812       4.86181577      24.57148257        1      -0.00893849       0.00734637       0.02710772
Pt       8.40675511       4.87265782      24.60530490        1      -0.00055090       0.00133928      -0.03416514
N        9.12334176       3.64661855      27.60063724        0      -0.00143907      -0.00087224       0.01744577
H        8.31828256       4.12918931      27.19143466        0       0.02259761       0.00548260      -0.00897369
H        9.95758877       4.12827148      27.25580095        0       0.00041905       0.00023907       0.03950999
H        9.13873049       2.70812988      27.19143462        0       0.01604906       0.01687369      -0.00895622
