31
Lattice="8.421641763931781 0.0 0.0 4.2108208819658905 7.293355709136913 0.0 0.0 0.0 44.584161137365626" Properties=species:S:1:pos:R:3:tags:I:1:forces:R:3 energy=-173.7055206298828 free_energy=-173.7055206298828 stress="0.010648689232766628 3.915070556104183e-05 5.374419561121613e-05 3.915070556104183e-05 0.010665635578334332 -0.00015529994561802596 5.374419561121613e-05 -0.00015529994561802596 2.1430354536278173e-05" pbc="T T T"
Pt       1.40360696       0.81037286      20.00000000        3       0.00466764       0.00446582      -0.01460910
Pt       4.21082088       0.81037286      20.00000000        3       0.00010759       0.00474709      -0.00989297
Pt       7.01803480       0.81037286      20.00000000        3      -0.00611337       0.00587715      -0.00744340
Pt       2.80721392       3.24149143      20.00000000        3       0.00315695      -0.00031874      -0.00667480
Pt       5.61442784       3.24149143      20.00000000        3      -0.00182564      -0.00159444      -0.00500721
Pt       8.42164176       3.24149143      20.00000000        3      -0.00130113       0.00630193       0.01754072
Pt       4.21082088       5.67261000      20.00000000        3      -0.00145140      -0.00494355      -0.00827593
Pt       7.01803480       5.67261000      20.00000000        3       0.00483038      -0.00157366       0.01131275
Pt       9.82524872       5.67261000      20.00000000        3      -0.00513503      -0.00051963       0.01697662
Pt      -0.00000000       1.62074571      22.29208057        2      -0.01619174       0.05625883       0.01343761
Pt       2.80721392       1.62074571      22.29208057        2       0.00717087      -0.01410126      -0.02941416
Pt       5.61442784       1.62074571      22.29208057        2       0.03500810      -0.01384630       0.00096176
Pt       1.40360696       4.05186428      22.29208057        2      -0.05142208       0.02948187      -0.04069528
Pt       4.21082088       4.05186428      22.29208057        2      -0.00774010      -0.00062561       0.00821184
Pt       7.01803480       4.05186428      22.29208057        2       0.07919230       0.02181120      -0.01975409
Pt       2.80721392       6.48298285      22.29208057        2      -0.05776061      -0.06042834       0.03095100
Pt       5.61442784       6.48298285      22.29208057        2       0.05189483      -0.06295355       0.02169824
Pt       8.42164176       6.48298285      22.29208057        2       0.01645546      -0.13422571       0.00243968
Pt       0.00548945      -0.03127272      24.58435088        1      -0.00252398       0.00185891       0.01873198
Pt       2.81460395      -0.02265474      24.59355617        1      -0.00836550      -0.00524680       0.02310377
Pt       5.62686871      -0.01676513      24.59995799        1      -0.00617314       0.00502697      -0.01197205
Pt       1.42452222       2.38071661      24.59048268        1      -0.00485161       0.03235578       0.00849587
Pt       4.22287656       2.40201093      24.58457183        1      -0.00038132       0.02591966       0.01824749
Pt       7.02764865       2.39926632      24.61003015        1      -0.01186914       0.01478679       0.00382994
Pt       2.81431638       4.82985113      24.61107251        1      -0.00558085       0.00925694      -0.00179367
Pt       5.60975264       4.83206725      24.59914020        1      -0.00562461       0.02531625      -0.00630441
Pt       8.42439319       4.83513374      24.67282678        1       0.00603949       0.02386706       0.00928095
N        8.58414949       4.54149666      26.72124847        0      -0.00749354       0.02394232       0.00351340
H        8.11602661       5.30656891      27.21397492        0       0.00101278      -0.01263985      -0.04486271
H        9.58049191       4.51344037      26.95488920        0       0.03181383       0.02519105      -0.00121900
H        8.15030582       3.64103639      26.94428250        0      -0.03954552      -0.00344807      -0.00081460
