31
Lattice="8.421641763931781 0.0 0.0 4.2108208819658905 7.293355709136913 0.0 0.0 0.0 44.584161137365626" Properties=species:S:1:pos:R:3:tags:I:1:forces:R:3 energy=-172.59942626953125 free_energy=-172.59942626953125 stress="0.010525383986532688 -1.7662257767447898e-10 -3.9602815471440067e-10 -1.7662257767447898e-10 0.010525386780500412 -8.355360847644988e-09 -3.9602815471440067e-10 -8.355360847644988e-09 1.6110419664983056e-06" pbc="T T T"
Pt       1.40360696       0.81037286      20.00000000        3       0.00000092       0.00103703      -0.00327522
Pt       4.21082088       0.81037286      20.00000000        3       0.00089507       0.00051421      -0.00636634
Pt       7.01803480       0.81037286      20.00000000        3      -0.00089595       0.00051312      -0.00636825
Pt       2.80721392       3.24149143      20.00000000        3      -0.00061207       0.00035361       0.00581127
Pt       5.61442784       3.24149143      20.00000000        3      -0.00000204      -0.00103140      -0.00636771
Pt       8.42164176       3.24149143      20.00000000        3       0.00061426       0.00035482       0.00581005
Pt       4.21082088       5.67261000      20.00000000        3      -0.00089811      -0.00051825      -0.00327531
Pt       7.01803480       5.67261000      20.00000000        3       0.00089853      -0.00051764      -0.00327572
Pt       9.82524872       5.67261000      20.00000000        3      -0.00000142      -0.00070502       0.00581139
Pt      -0.00000000       1.62074571      22.29208057        2       0.03870314       0.04042458       0.00523405
Pt       2.80721392       1.62074571      22.29208057        2      -0.03870050       0.04042521       0.00523345
Pt       5.61442784       1.62074571      22.29208057        2      -0.00000200      -0.00000193      -0.05875722
Pt       1.40360696       4.05186428      22.29208057        2       0.00000136      -0.00000025       0.06418583
Pt       4.21082088       4.05186428      22.29208057        2      -0.05435979       0.01330270       0.00523287
Pt       7.01803480       4.05186428      22.29208057        2       0.05435879       0.01330349       0.00523447
Pt       2.80721392       6.48298285      22.29208057        2      -0.01565951      -0.05372863       0.00523343
Pt       5.61442784       6.48298285      22.29208057        2      -0.00000131       0.00000160      -0.03006186
Pt       8.42164176       6.48298285      22.29208057        2       0.01566093      -0.05372740       0.00523353
Pt       0.00139403      -0.00080491      24.57666909        1      -0.00477722       0.00275844      -0.00865620
Pt       2.80582002      -0.00080479      24.57666916        1       0.00477790       0.00275790      -0.00865585
Pt       5.61442778       0.00735051      24.57767264        1       0.00000088      -0.01971533      -0.00594920
Pt       1.40360713       2.41886784      24.59704322        1       0.00000007       0.01958001       0.02003978
Pt       4.21718681       2.42744324      24.57767263        1      -0.01707569       0.00985772      -0.00594872
Pt       7.01166870       2.42744325      24.57767269        1       0.01707554       0.00985831      -0.00594762
Pt       2.81782335       4.86836253      24.59704322        1      -0.01695773      -0.00978964       0.02004071
Pt       5.61442773       4.86384666      24.57666923        1       0.00000114      -0.00551758      -0.00865459
Pt       8.41103238       4.86836264      24.59704334        1       0.01695502      -0.00978969       0.02004071
N        9.82524901       4.05186382      27.59093161        0      -0.00000009       0.00005226      -0.03130069
H        9.00656692       4.52453047      27.19264413        0       0.02518885      -0.01454553       0.00658000
H       10.64393009       4.52453030      27.19264419        0      -0.02518898      -0.01454564       0.00657994
H        9.82524864       3.10653265      27.19264432        0       0.00000008       0.02903916       0.00655889
