31
Lattice="8.421641763931781 0.0 0.0 4.2108208819658905 7.293355709136913 0.0 0.0 0.0 44.584161137365626" Properties=species:S:1:pos:R:3:tags:I:1:forces:R:3 energy=-172.79193115234375 free_energy=-172.79193115234375 stress="0.010310139507055283 1.3976388046899046e-08 -1.278198791254681e-08 1.3976388046899046e-08 0.010310142301023006 3.6512191048387876e-09 -1.278198791254681e-08 3.6512191048387876e-09 -5.320454147295095e-05" pbc="T T T"
Pt       1.40360696       0.81037286      20.00000000        3      -0.00026721       0.00262264      -0.00198057
Pt       4.21082088       0.81037286      20.00000000        3       0.00150386       0.00008053      -0.00642538
Pt       7.01803480       0.81037286      20.00000000        3      -0.00082407       0.00125796      -0.00642717
Pt       2.80721392       3.24149143      20.00000000        3      -0.00013103      -0.00073389       0.01711273
Pt       5.61442784       3.24149143      20.00000000        3      -0.00068242      -0.00134177      -0.00642750
Pt       8.42164176       3.24149143      20.00000000        3      -0.00056693       0.00048139       0.01711190
Pt       4.21082088       5.67261000      20.00000000        3      -0.00213759      -0.00154333      -0.00198203
Pt       7.01803480       5.67261000      20.00000000        3       0.00240552      -0.00107795      -0.00198275
Pt       9.82524872       5.67261000      20.00000000        3       0.00069969       0.00025416       0.01711294
Pt      -0.00000000       1.62074571      22.29208057        2       0.10594147       0.07567415       0.01753227
Pt       2.80721392       1.62074571      22.29208057        2      -0.11871395       0.08205502       0.00725914
Pt       5.61442784       1.62074571      22.29208057        2      -0.00000243      -0.00000216      -0.12335822
Pt       1.40360696       4.05186428      22.29208057        2       0.00000129      -0.00000069       0.07267009
Pt       4.21082088       4.05186428      22.29208057        2      -0.11850820       0.05390593       0.01752973
Pt       7.01803480       4.05186428      22.29208057        2       0.13041937       0.06178069       0.00725897
Pt       2.80721392       6.48298285      22.29208057        2      -0.01170553      -0.14383607       0.00725870
Pt       5.61442784       6.48298285      22.29208057        2      -0.00000103       0.00000422      -0.04818111
Pt       8.42164176       6.48298285      22.29208057        2       0.01256964      -0.12958069       0.01753091
Pt      -0.00401450      -0.01182692      24.56825763        1       0.01275174       0.02477748      -0.02906783
Pt       2.79897918       0.00939015      24.56825737        1       0.01508326      -0.02343339      -0.02906805
Pt       5.62314610       0.01462015      24.57019468        1      -0.02185505      -0.03446325      -0.00114752
Pt       1.38532317       2.40891783      24.60960926        1       0.02603390      -0.01961057      -0.00390887
Pt       4.21912335       2.41625807      24.57019471        1      -0.01891936       0.03615750      -0.00114745
Pt       7.00101400       2.43135813      24.57019469        1       0.04077251      -0.00169282      -0.00114705
Pt       2.83558188       4.85750319      24.60960908        1       0.00396790       0.03234917      -0.00390619
Pt       5.62667692       4.86467307      24.56825730        1      -0.02783064      -0.00134452      -0.02905746
Pt       8.41155812       4.88917141      24.60960885        1      -0.03000583      -0.01273978      -0.00391004
N        9.82524816       4.05186471      26.91368877        0       0.00007539      -0.00002765       0.03992862
H       10.73522809       4.30711745      26.47644879        0      -0.02100326       0.02485569       0.02029024
H        9.59131446       3.13617249      26.47644837        0       0.03201649       0.00573084       0.02027520
H        9.14920383       4.71230267      26.47644863        0      -0.01108751      -0.03055880       0.02025401
