31
Lattice="8.421641763931781 0.0 0.0 4.2108208819658905 7.293355709136913 0.0 0.0 0.0 44.584161137365626" Properties=species:S:1:pos:R:3:tags:I:1:forces:R:3 energy=-172.5792236328125 free_energy=-172.5792236328125 stress="0.010523702017962933 4.323183748056181e-05 -5.4281212214846164e-05 4.323183748056181e-05 0.010473810136318207 -3.132808342343196e-05 -5.4281212214846164e-05 -3.132808342343196e-05 -0.0001397266169078648" pbc="T T T"
Pt       1.40360696       0.81037286      20.00000000        3      -0.00004050       0.00199833      -0.00325823
Pt       4.21082088       0.81037286      20.00000000        3       0.00088101       0.00050600      -0.00977638
Pt       7.01803480       0.81037286      20.00000000        3      -0.00029761       0.00084252      -0.00785100
Pt       2.80721392       3.24149143      20.00000000        3      -0.00144597      -0.00047948       0.00436306
Pt       5.61442784       3.24149143      20.00000000        3       0.00058161      -0.00067762      -0.00785011
Pt       8.42164176       3.24149143      20.00000000        3       0.00241889       0.00139645       0.01129663
Pt       4.21082088       5.67261000      20.00000000        3      -0.00098106      -0.00056645      -0.00677064
Pt       7.01803480       5.67261000      20.00000000        3       0.00170979      -0.00103383      -0.00325847
Pt       9.82524872       5.67261000      20.00000000        3      -0.00113993      -0.00101124       0.00436410
Pt      -0.00000000       1.62074571      22.29208057        2       0.04504063       0.05127347       0.01217579
Pt       2.80721392       1.62074571      22.29208057        2      -0.05828026       0.04750997      -0.00507127
Pt       5.61442784       1.62074571      22.29208057        2       0.01190841       0.00687744      -0.04704181
Pt       1.40360696       4.05186428      22.29208057        2      -0.03911658      -0.02258493       0.05191458
Pt       4.21082088       4.05186428      22.29208057        2      -0.04463260      -0.00174939      -0.02778642
Pt       7.01803480       4.05186428      22.29208057        2       0.06692161       0.01336621       0.01217793
Pt       2.80721392       6.48298285      22.29208057        2      -0.02382992      -0.03778087      -0.02778871
Pt       5.61442784       6.48298285      22.29208057        2       0.00456576       0.00263857      -0.04579370
Pt       8.42164176       6.48298285      22.29208057        2       0.01200582      -0.07422676      -0.00507257
Pt      -0.00605026      -0.00963611      24.57148176        1       0.00189594      -0.01141741       0.02710617
Pt       2.80766174       0.00025837      24.56720397        1      -0.00664743      -0.00383960       0.03755116
Pt       5.61609666       0.00293656      24.57342136        1      -0.00923500       0.01790260       0.01955852
Pt       1.40518891       2.41301583      24.60530553        1       0.00087822      -0.00114674      -0.03416267
Pt       4.21419799       2.43109503      24.57342294        1       0.01089114      -0.01694792       0.01954931
Pt       7.01742310       2.43076470      24.57805189        1      -0.03718450      -0.02146155       0.01028961
Pt       2.79513707       4.85526422      24.58929169        1       0.03499875       0.02020838      -0.01083380
Pt       5.60305734       4.86181585      24.57148249        1      -0.00893672       0.00734560       0.02710843
Pt       8.40675532       4.87265841      24.60530545        1      -0.00055516       0.00133486      -0.03416358
N        9.12334171       3.64661882      27.60063903        0      -0.00148675      -0.00093709       0.01744279
H        9.13873285       2.70813077      27.19143374        0       0.01603996       0.01690422      -0.00893877
H        8.31828322       4.12919043      27.19143391        0       0.02261345       0.00547893      -0.00897099
H        9.95759033       4.12827120      27.25580707        0       0.00045894       0.00027740       0.03949093
