31
Lattice="8.421641763931781 0.0 0.0 4.2108208819658905 7.293355709136913 0.0 0.0 0.0 44.584161137365626" Properties=species:S:1:pos:R:3:tags:I:1:forces:R:3 energy=-172.8042755126953 free_energy=-172.8042755126953 stress="0.010287972167134285 -6.197822255415986e-09 1.6882126807615805e-09 -6.197822255415986e-09 0.010287974961102009 4.53817694534564e-09 1.6882126807615805e-09 4.53817694534564e-09 2.581260741862934e-05" pbc="T T T"
Pt       1.40360696       0.81037286      20.00000000        3       0.00198176       0.00239028       0.00095454
Pt       4.21082088       0.81037286      20.00000000        3       0.00000186      -0.00000149      -0.01219061
Pt       7.01803480       0.81037286      20.00000000        3      -0.00218922       0.00302529       0.00097656
Pt       2.80721392       3.24149143      20.00000000        3      -0.00152720      -0.00340816       0.00097507
Pt       5.61442784       3.24149143      20.00000000        3       0.00108013      -0.00291163       0.00095275
Pt       8.42164176       3.24149143      20.00000000        3       0.00000129       0.00000044       0.03240615
Pt       4.21082088       5.67261000      20.00000000        3       0.00000246       0.00000196      -0.01432991
Pt       7.01803480       5.67261000      20.00000000        3       0.00371351       0.00038227       0.00097516
Pt       9.82524872       5.67261000      20.00000000        3      -0.00306413       0.00052182       0.00095209
Pt      -0.00000000       1.62074571      22.29208057        2      -0.00260868       0.12159055       0.04922758
Pt       2.80721392       1.62074571      22.29208057        2      -0.14879385       0.08583394       0.01205701
Pt       5.61442784       1.62074571      22.29208057        2       0.14873362       0.08593357       0.01205819
Pt       1.40360696       4.05186428      22.29208057        2      -0.10400046      -0.06306492       0.04921907
Pt       4.21082088       4.05186428      22.29208057        2       0.00524276      -0.02981997      -0.07348734
Pt       7.01803480       4.05186428      22.29208057        2       0.10660608      -0.05853754       0.04922222
Pt       2.80721392       6.48298285      22.29208057        2      -0.02843899       0.01038271      -0.07348204
Pt       5.61442784       6.48298285      22.29208057        2       0.02320283       0.01944807      -0.07347824
Pt       8.42164176       6.48298285      22.29208057        2       0.00005721      -0.17176923       0.01205475
Pt      -0.00860669      -0.01200340      24.56953941        1       0.02004848       0.02605534      -0.00908099
Pt       2.81098451       0.00392372      24.56071379        1      -0.01566364      -0.02144738       0.02083077
Pt       5.60914425       0.00130257      24.56071475        1       0.02640570      -0.00283553       0.02082935
Pt       1.42528268       2.41046018      24.61256889        1      -0.01476420       0.02396998       0.01036783
Pt       4.21233291       2.42589076      24.56071342        1      -0.01073152       0.02428466       0.02084020
Pt       6.98930670       2.42267598      24.61256808        1       0.02813703       0.00079584       0.01038244
Pt       2.82191274       4.86078344      24.56953503        1      -0.03259229       0.00434076      -0.00905004
Pt       5.60833705       4.87569251      24.56953884        1       0.01253823      -0.03039055      -0.00907233
Pt       8.42869413       4.89133722      24.61256656        1      -0.01337644      -0.02477030       0.01039010
N        8.42164198       3.24149224      26.94051664        0       0.00001151      -0.00003603      -0.04893658
H        7.55832589       2.84439024      26.52022136        0       0.02397054      -0.00125533       0.00247645
H        8.50939787       4.18769601      26.52021927        0      -0.01305793      -0.02010860       0.00246711
H        9.19720057       2.69238974      26.52021738        0      -0.01092654       0.02139929       0.00249296
