31
Lattice="8.421641763931781 0.0 0.0 4.2108208819658905 7.293355709136913 0.0 0.0 0.0 44.584161137365626" Properties=species:S:1:pos:R:3:tags:I:1:forces:R:3 energy=-172.793212890625 free_energy=-172.793212890625 stress="0.010255740955471992 -4.358609029253557e-09 -4.935403641326275e-09 -4.358609029253557e-09 0.010255740955471992 4.951727916591153e-10 -4.935403641326275e-09 4.951727916591153e-10 -4.671290298574604e-05" pbc="T T T"
Pt       1.40360696       0.81037286      20.00000000        3       0.00227989       0.00265993       0.00166813
Pt       4.21082088       0.81037286      20.00000000        3       0.00000222      -0.00000126      -0.00486070
Pt       7.01803480       0.81037286      20.00000000        3      -0.00290850       0.00139640       0.00231376
Pt       2.80721392       3.24149143      20.00000000        3       0.00024342      -0.00321593       0.00231355
Pt       5.61442784       3.24149143      20.00000000        3       0.00116447      -0.00330481       0.00166735
Pt       8.42164176       3.24149143      20.00000000        3       0.00000098       0.00000047       0.03026241
Pt       4.21082088       5.67261000      20.00000000        3       0.00000225       0.00000102      -0.01544493
Pt       7.01803480       5.67261000      20.00000000        3       0.00266152       0.00181908       0.00231355
Pt       9.82524872       5.67261000      20.00000000        3      -0.00344595       0.00064531       0.00166634
Pt      -0.00000000       1.62074571      22.29208057        2       0.00400955       0.11404015       0.03495262
Pt       2.80721392       1.62074571      22.29208057        2      -0.12471388       0.08351000       0.03022166
Pt       5.61442784       1.62074571      22.29208057        2       0.13467585       0.06624702       0.03021779
Pt       1.40360696       4.05186428      22.29208057        2      -0.10076457      -0.05355497       0.03495286
Pt       4.21082088       4.05186428      22.29208057        2      -0.00719703      -0.04541011      -0.07373753
Pt       7.01803480       4.05186428      22.29208057        2       0.09675756      -0.06048996       0.03494905
Pt       2.80721392       6.48298285      22.29208057        2      -0.03572583       0.02894028      -0.07373743
Pt       5.61442784       6.48298285      22.29208057        2       0.04292313       0.01647302      -0.07373807
Pt       8.42164176       6.48298285      22.29208057        2      -0.00996501      -0.14975622       0.03021938
Pt       0.01051046      -0.01354447      24.56854522        1      -0.02909895       0.03360748      -0.00102331
Pt       2.80407700       0.01189158      24.56865827        1       0.01776817      -0.02652775      -0.02491315
Pt       5.60569802      -0.00866297      24.56865866        1       0.01408859       0.02865190      -0.02491409
Pt       1.43848564       2.43083530      24.60715602        1      -0.00514507      -0.02171156      -0.00092622
Pt       4.22268824       2.42788945      24.56865838        1      -0.03185983      -0.00212450      -0.02491370
Pt       7.00035050       2.40105444      24.60715468        1      -0.01622830       0.01530955      -0.00091388
Pt       2.81368857       4.87811093      24.56854432        1      -0.01455535      -0.04200485      -0.00102110
Pt       5.59744340       4.85990686      24.56854458        1       0.04365048       0.00839913      -0.00102313
Pt       8.40444704       4.89258398      24.60715538        1       0.02138049       0.00640005      -0.00091392
N        8.42164156       3.24149198      26.89807643        0       0.00003168      -0.00001266       0.02237883
H        8.18851785       4.15848377      26.46327026        0       0.02892315      -0.00174637       0.02065483
H        9.33234192       2.98488566      26.46326970        0      -0.01599446      -0.02415522       0.02067300
H        7.74406563       2.58110460      26.46327007        0      -0.01296069       0.02591541       0.02065622
