31
Lattice="8.421641763931781 0.0 0.0 4.2108208819658905 7.293355709136913 0.0 0.0 0.0 44.584161137365626" Properties=species:S:1:pos:R:3:tags:I:1:forces:R:3 energy=-172.80628967285156 free_energy=-172.80628967285156 stress="0.010336645878851414 1.3048616409605529e-08 -1.2058273490822558e-08 1.3048616409605529e-08 0.01033665332943201 3.060820930045338e-09 -1.2058273490822558e-08 3.060820930045338e-09 2.1113579350640066e-05" pbc="T T T"
Pt       1.40360696       0.81037286      20.00000000        3       0.00000121       0.00278251      -0.00336134
Pt       4.21082088       0.81037286      20.00000000        3       0.00129150       0.00074308      -0.00833419
Pt       7.01803480       0.81037286      20.00000000        3      -0.00129248       0.00074226      -0.00833574
Pt       2.80721392       3.24149143      20.00000000        3      -0.00012230       0.00007124       0.01724896
Pt       5.61442784       3.24149143      20.00000000        3      -0.00000178      -0.00149019      -0.00833640
Pt       8.42164176       3.24149143      20.00000000        3       0.00012537       0.00007215       0.01724777
Pt       4.21082088       5.67261000      20.00000000        3      -0.00240971      -0.00139048      -0.00336197
Pt       7.01803480       5.67261000      20.00000000        3       0.00241001      -0.00138960      -0.00336215
Pt       9.82524872       5.67261000      20.00000000        3      -0.00000127      -0.00014034       0.01724949
Pt      -0.00000000       1.62074571      22.29208057        2       0.11445802       0.08732452       0.01453536
Pt       2.80721392       1.62074571      22.29208057        2      -0.11445522       0.08732583       0.01453426
Pt       5.61442784       1.62074571      22.29208057        2      -0.00000253      -0.00000123      -0.11073662
Pt       1.40360696       4.05186428      22.29208057        2       0.00000166       0.00000024       0.08593745
Pt       4.21082088       4.05186428      22.29208057        2      -0.13285434       0.05545907       0.01453524
Pt       7.01803480       4.05186428      22.29208057        2       0.13285239       0.05545961       0.01453620
Pt       2.80721392       6.48298285      22.29208057        2      -0.01839797      -0.14278491       0.01453503
Pt       5.61442784       6.48298285      22.29208057        2      -0.00000183       0.00000093      -0.05644657
Pt       8.42164176       6.48298285      22.29208057        2       0.01840026      -0.14278254       0.01453382
Pt       0.00121507      -0.00070163      24.56507445        1       0.00107851      -0.00062337      -0.00976318
Pt       2.80599915      -0.00070147      24.56507439        1      -0.00107953      -0.00062436      -0.00976203
Pt       5.61442780       0.01191080      24.57002413        1       0.00000076      -0.01413856      -0.00317113
Pt       1.40360703       2.40978241      24.61315478        1       0.00000128       0.00144883       0.00335302
Pt       4.22113598       2.42516289      24.57002359        1      -0.01224459       0.00707010      -0.00317083
Pt       7.00771946       2.42516291      24.57002381        1       0.01224251       0.00706853      -0.00317027
Pt       2.82569136       4.87290508      24.61315485        1      -0.00125536      -0.00072538       0.00335363
Pt       5.61442773       4.86363986      24.56507429        1       0.00000042       0.00124548      -0.00976256
Pt       8.40316402       4.87290513      24.61315485        1       0.00125390      -0.00072363       0.00335081
N        9.82524781       4.05186448      26.94874321        0       0.00007463      -0.00001078       0.04615280
H       10.64775201       4.52673668      26.53110403        0       0.01021113       0.00589894      -0.01332719
H        9.82524869       3.10212014      26.53110386        0      -0.00000421      -0.01182184      -0.01333979
H        9.00274678       4.52673644      26.53110385        0      -0.01028042       0.00593392      -0.01336130
