27
Lattice="8.421641763931781 0.0 0.0 4.2108208819658905 7.293355709136913 0.0 0.0 0.0 44.584161137365626" Properties=species:S:1:pos:R:3:tags:I:1:forces:R:3 energy=-153.11451721191406 free_energy=-153.11451721191406 stress="0.010732308030128479 -3.731940978468629e-09 5.269782943351231e-10 -3.731940978468629e-09 0.010732303373515606 -1.0042215947692057e-09 5.269782943351231e-10 -1.0042215947692057e-09 -5.546759712160565e-05" pbc="T T T"
Pt       1.40360696       0.81037286      20.00000000        3       0.00000085      -0.00000297      -0.00368521
Pt       4.21082088       0.81037286      20.00000000        3       0.00000163      -0.00000164      -0.00368491
Pt       7.01803480       0.81037286      20.00000000        3      -0.00000227      -0.00000260      -0.00368577
Pt       2.80721392       3.24149143      20.00000000        3       0.00000150      -0.00000010      -0.00368637
Pt       5.61442784       3.24149143      20.00000000        3      -0.00000184       0.00000021      -0.00368643
Pt       8.42164176       3.24149143      20.00000000        3       0.00000120       0.00000061      -0.00368792
Pt       4.21082088       5.67261000      20.00000000        3       0.00000215       0.00000166      -0.00368518
Pt       7.01803480       5.67261000      20.00000000        3      -0.00000215       0.00000252      -0.00368625
Pt       9.82524872       5.67261000      20.00000000        3      -0.00000077       0.00000283      -0.00368604
Pt      -0.00000000       1.62074571      22.29208057        2       0.00000175      -0.00000304       0.00000880
Pt       2.80721392       1.62074571      22.29208057        2       0.00000115      -0.00000150       0.00000860
Pt       5.61442784       1.62074571      22.29208057        2      -0.00000255      -0.00000180       0.00000919
Pt       1.40360696       4.05186428      22.29208057        2       0.00000165       0.00000045       0.00000892
Pt       4.21082088       4.05186428      22.29208057        2       0.00000149      -0.00000027       0.00000924
Pt       7.01803480       4.05186428      22.29208057        2      -0.00000370       0.00000059       0.00000956
Pt       2.80721392       6.48298285      22.29208057        2       0.00000052       0.00000094       0.00000884
Pt       5.61442784       6.48298285      22.29208057        2      -0.00000190       0.00000125       0.00000866
Pt       8.42164176       6.48298285      22.29208057        2       0.00000128       0.00000311       0.00000911
Pt       0.00000000       0.00000000      24.58416114        1       0.00000170      -0.00000230       0.00367630
Pt       2.80721392       0.00000000      24.58416114        1       0.00000066      -0.00000091       0.00367653
Pt       5.61442784       0.00000000      24.58416114        1      -0.00000214      -0.00000072       0.00367600
Pt       1.40360696       2.43111857      24.58416114        1       0.00000091      -0.00000049       0.00367773
Pt       4.21082088       2.43111857      24.58416114        1       0.00000190       0.00000010       0.00367662
Pt       7.01803480       2.43111857      24.58416114        1      -0.00000310      -0.00000026       0.00367805
Pt       2.80721392       4.86223714      24.58416114        1       0.00000095       0.00000071       0.00367755
Pt       5.61442784       4.86223714      24.58416114        1      -0.00000210       0.00000118       0.00367671
Pt       8.42164176       4.86223714      24.58416114        1       0.00000106       0.00000272       0.00367787
